<event>
 7    1  0.2318319E-009  0.4778727E+02  0.7816164E-02  0.1312668E+00
        -11   -1    0    0    0    0  0.00000000000E+00  0.00000000000E+00  0.45593999997E+02  0.45594000000E+02  0.51100000000E-03 0.  1.
         11   -1    0    0    0    0 -0.00000000000E+00 -0.00000000000E+00 -0.45593999997E+02  0.45594000000E+02  0.51100000000E-03 0. -1.
    9900012    2    1    2    0    0  0.30182769547E+02 -0.20793315440E+02  0.23243527490E+02  0.47787272878E+02  0.20000008361E+02 0.  0.
         12    1    1    2    0    0 -0.30182769547E+02  0.20793315440E+02 -0.23243527490E+02  0.43400727122E+02  0.00000000000E+00 0. -1.
         11    1    3    3    0    0  0.18445350173E+02 -0.20256767686E+02  0.10232467152E+02  0.29245016061E+02  0.51100000000E-03 0. -1.
        -11    1    3    3    0    0 -0.56703735650E+00 -0.37191626701E+00  0.16909609381E+01  0.18218677857E+01  0.51100000000E-03 0.  1.
        -12    1    3    3    0    0  0.12304456731E+02 -0.16463148687E+00  0.11320099399E+02  0.16720389032E+02  0.00000000000E+00 0.  1.
</event>
<event>
 7    1  0.2318319E-009  0.4778727E+02  0.7816164E-02  0.1312668E+00
        -11   -1    0    0    0    0  0.00000000000E+00  0.00000000000E+00  0.45593999997E+02  0.45594000000E+02  0.51100000000E-03 0.  1.
         11   -1    0    0    0    0 -0.00000000000E+00 -0.00000000000E+00 -0.45593999997E+02  0.45594000000E+02  0.51100000000E-03 0. -1.
    9900012    2    1    2    0    0 -0.63930177868E+01 -0.87704097352E+01  0.42021810813E+02  0.47787270198E+02  0.19999996142E+02 0.  0.
         12    1    1    2    0    0  0.63930177868E+01  0.87704097352E+01 -0.42021810813E+02  0.43400729802E+02  0.00000000000E+00 0. -1.
         11    1    3    3    0    0  0.99769613436E+00  0.18540866509E+01  0.14379672527E+01  0.25496636967E+01  0.51100000000E-03 0. -1.
        -11    1    3    3    0    0 -0.33506290023E+01 -0.12169274342E+01  0.31029752305E+02  0.31233846312E+02  0.51100000000E-03 0.  1.
        -12    1    3    3    0    0 -0.40400849188E+01 -0.94075689519E+01  0.95540912553E+01  0.14003760190E+02  0.00000000000E+00 0.  1.
</event>
<event>
 7    1  0.2318319E-009  0.4778727E+02  0.7816164E-02  0.1312668E+00
        -11   -1    0    0    0    0  0.00000000000E+00  0.00000000000E+00  0.45593999997E+02  0.45594000000E+02  0.51100000000E-03 0.  1.
         11   -1    0    0    0    0 -0.00000000000E+00 -0.00000000000E+00 -0.45593999997E+02  0.45594000000E+02  0.51100000000E-03 0. -1.
    9900012    2    1    2    0    0  0.71802351946E+01  0.42786688487E+02 -0.11689739284E+01  0.47787274324E+02  0.20000014952E+02 0.  0.
         12    1    1    2    0    0 -0.71802351946E+01 -0.42786688487E+02  0.11689739284E+01  0.43400725676E+02  0.00000000000E+00 0. -1.
         11    1    3    3    0    0 -0.29685712272E+00  0.38259792428E+01  0.36808100967E+01  0.53173870037E+01  0.51100000000E-03 0.  1.
        -11    1    3    3    0    0  0.27316648737E+01  0.37979452458E+01  0.37095877371E+01  0.59705462491E+01  0.51100000000E-03 0. -1.
        -12    1    3    3    0    0  0.47454274437E+01  0.35162763999E+02 -0.85593717623E+01  0.36499341071E+02  0.00000000000E+00 0.  1.
</event>
<event>
 7    1  0.2318319E-009  0.4778726E+02  0.7816164E-02  0.1312668E+00
        -11   -1    0    0    0    0  0.00000000000E+00  0.00000000000E+00  0.45593999997E+02  0.45594000000E+02  0.51100000000E-03 0.  1.
         11   -1    0    0    0    0 -0.00000000000E+00 -0.00000000000E+00 -0.45593999997E+02  0.45594000000E+02  0.51100000000E-03 0. -1.
    9900012    2    1    2    0    0 -0.20398149138E+02 -0.20479160942E+02  0.32375052723E+02  0.47787256228E+02  0.19999932446E+02 0.  0.
         12    1    1    2    0    0  0.20398149138E+02  0.20479160942E+02 -0.32375052723E+02  0.43400743772E+02  0.00000000000E+00 0. -1.
         11    1    3    3    0    0 -0.33592512460E+01 -0.63069674780E+01  0.21237091063E+01  0.74546997479E+01  0.51100000000E-03 0. -1.
        -11    1    3    3    0    0 -0.15731285945E+02 -0.17035981549E+02  0.24230176061E+02  0.33538030011E+02  0.51100000000E-03 0.  1.
         12    1    3    3    0    0 -0.13076119469E+01  0.28637880852E+01  0.60211675560E+01  0.67945264690E+01  0.00000000000E+00 0. -1.
</event>
<event>
 7    1  0.2318319E-009  0.4778727E+02  0.7816164E-02  0.1312668E+00
        -11   -1    0    0    0    0  0.00000000000E+00  0.00000000000E+00  0.45593999997E+02  0.45594000000E+02  0.51100000000E-03 0.  1.
         11   -1    0    0    0    0 -0.00000000000E+00 -0.00000000000E+00 -0.45593999997E+02  0.45594000000E+02  0.51100000000E-03 0. -1.
    9900012    2    1    2    0    0 -0.20436346747E+00  0.42204716835E+02 -0.10116511928E+02  0.47787266122E+02  0.19999977559E+02 0.  0.
         12    1    1    2    0    0  0.20436346747E+00 -0.42204716835E+02  0.10116511928E+02  0.43400733878E+02  0.00000000000E+00 0. -1.
         11    1    3    3    0    0 -0.66209197065E+01  0.14257518883E+02 -0.50200950289E+01  0.16501962817E+02  0.51100000000E-03 0.  1.
        -11    1    3    3    0    0 -0.22726655251E+01  0.29155879261E+01  0.14841471796E+01  0.39835103433E+01  0.51100000000E-03 0. -1.
        -12    1    3    3    0    0  0.86892217642E+01  0.25031610025E+02 -0.65805640786E+01  0.27301792962E+02  0.00000000000E+00 0.  1.
</event>
<event>
 7    1  0.2318319E-009  0.4778727E+02  0.7816164E-02  0.1312668E+00
        -11   -1    0    0    0    0  0.00000000000E+00  0.00000000000E+00  0.45593999997E+02  0.45594000000E+02  0.51100000000E-03 0.  1.
         11   -1    0    0    0    0 -0.00000000000E+00 -0.00000000000E+00 -0.45593999997E+02  0.45594000000E+02  0.51100000000E-03 0. -1.
    9900012    2    1    2    0    0 -0.31205579607E+02 -0.26243931133E+02  0.14869123533E+02  0.47787274723E+02  0.20000016774E+02 0.  0.
         12    1    1    2    0    0  0.31205579607E+02  0.26243931133E+02 -0.14869123533E+02  0.43400725277E+02  0.00000000000E+00 0. -1.
         11    1    3    3    0    0 -0.10923466992E+02 -0.15565408238E+02  0.38089535074E+01  0.19393612140E+02  0.51100000000E-03 0. -1.
        -11    1    3    3    0    0 -0.76078500915E+00 -0.56216146061E+01  0.43231312008E+01  0.71323774612E+01  0.51100000000E-03 0.  1.
        -12    1    3    3    0    0 -0.19521327605E+02 -0.50569082882E+01  0.67370388246E+01  0.21261285122E+02  0.00000000000E+00 0.  1.
</event>
<event>
 7    1  0.2318319E-009  0.4778728E+02  0.7816164E-02  0.1312668E+00
        -11   -1    0    0    0    0  0.00000000000E+00  0.00000000000E+00  0.45593999997E+02  0.45594000000E+02  0.51100000000E-03 0.  1.
         11   -1    0    0    0    0 -0.00000000000E+00 -0.00000000000E+00 -0.45593999997E+02  0.45594000000E+02  0.51100000000E-03 0. -1.
    9900012    2    1    2    0    0 -0.34262596652E+02 -0.19661064998E+02  0.17976074312E+02  0.47787282796E+02  0.20000053579E+02 0.  0.
         12    1    1    2    0    0  0.34262596652E+02  0.19661064998E+02 -0.17976074312E+02  0.43400717204E+02  0.00000000000E+00 0. -1.
         11    1    3    3    0    0 -0.23476009905E+02 -0.78273230953E+01  0.18811670844E+02  0.31084867509E+02  0.51100000000E-03 0. -1.
        -11    1    3    3    0    0 -0.62491288375E+01 -0.37620026559E+01  0.65524159545E+00  0.73234975948E+01  0.51100000000E-03 0.  1.
         12    1    3    3    0    0 -0.45374579092E+01 -0.80717392469E+01 -0.14908381271E+01  0.93789176917E+01  0.00000000000E+00 0. -1.
</event>
<event>
 7    1  0.2318319E-009  0.4778727E+02  0.7816164E-02  0.1312668E+00
        -11   -1    0    0    0    0  0.00000000000E+00  0.00000000000E+00  0.45593999997E+02  0.45594000000E+02  0.51100000000E-03 0.  1.
         11   -1    0    0    0    0 -0.00000000000E+00 -0.00000000000E+00 -0.45593999997E+02  0.45594000000E+02  0.51100000000E-03 0. -1.
    9900012    2    1    2    0    0  0.21274673547E+02  0.25359526740E+02  0.28069665984E+02  0.47787268675E+02  0.19999989199E+02 0.  0.
         12    1    1    2    0    0 -0.21274673547E+02 -0.25359526740E+02 -0.28069665984E+02  0.43400731325E+02  0.00000000000E+00 0. -1.
         11    1    3    3    0    0  0.11597234515E+02  0.25138928829E+01  0.98855067734E+01  0.15444699747E+02  0.51100000000E-03 0. -1.
        -11    1    3    3    0    0  0.40295242202E+01  0.13387589098E+01  0.13588069121E+01  0.44582168347E+01  0.51100000000E-03 0.  1.
         12    1    3    3    0    0  0.56479148115E+01  0.21506874948E+02  0.16825352299E+02  0.27884352094E+02  0.00000000000E+00 0. -1.
</event>
<event>
 7    1  0.2318319E-009  0.4778728E+02  0.7816164E-02  0.1312668E+00
        -11   -1    0    0    0    0  0.00000000000E+00  0.00000000000E+00  0.45593999997E+02  0.45594000000E+02  0.51100000000E-03 0. -1.
         11   -1    0    0    0    0 -0.00000000000E+00 -0.00000000000E+00 -0.45593999997E+02  0.45594000000E+02  0.51100000000E-03 0.  1.
    9900012    2    1    2    0    0 -0.34294351142E+02  0.26578526506E+02 -0.10497282929E+01  0.47787279718E+02  0.20000039548E+02 0.  0.
         12    1    1    2    0    0  0.34294351142E+02 -0.26578526506E+02  0.10497282929E+01  0.43400720282E+02  0.00000000000E+00 0. -1.
         11    1    3    3    0    0 -0.13550079494E+02  0.17571968309E+02 -0.14329763433E+01  0.22235830230E+02  0.51100000000E-03 0. -1.
        -11    1    3    3    0    0 -0.61404595497E+01  0.29047958558E+01 -0.54237186004E+01  0.86925143752E+01  0.51100000000E-03 0.  1.
         12    1    3    3    0    0 -0.14603812098E+02  0.61017623409E+01  0.58069666509E+01  0.16858935113E+02  0.00000000000E+00 0. -1.
</event>
<event>
 7    1  0.2318319E-009  0.4778729E+02  0.7816164E-02  0.1312668E+00
        -11   -1    0    0    0    0  0.00000000000E+00  0.00000000000E+00  0.45593999997E+02  0.45594000000E+02  0.51100000000E-03 0. -1.
         11   -1    0    0    0    0 -0.00000000000E+00 -0.00000000000E+00 -0.45593999997E+02  0.45594000000E+02  0.51100000000E-03 0.  1.
    9900012    2    1    2    0    0 -0.31720181464E+02 -0.26145974774E+02 -0.13922646576E+02  0.47787285758E+02  0.20000067086E+02 0.  0.
         12    1    1    2    0    0  0.31720181464E+02  0.26145974774E+02  0.13922646576E+02  0.43400714242E+02  0.00000000000E+00 0. -1.
         11    1    3    3    0    0 -0.20239366881E+02 -0.24038653293E+02 -0.12916165528E+02  0.33975228566E+02  0.51100000000E-03 0.  1.
        -11    1    3    3    0    0  0.38740026189E+00 -0.33565013512E+00 -0.17164484526E+01  0.17913501968E+01  0.51100000000E-03 0. -1.
         12    1    3    3    0    0 -0.11868214845E+02 -0.17716713462E+01  0.70996740412E+00  0.12020706996E+02  0.00000000000E+00 0. -1.
</event>
<event>
 7    1  0.2318319E-009  0.4778729E+02  0.7816164E-02  0.1312668E+00
        -11   -1    0    0    0    0  0.00000000000E+00  0.00000000000E+00  0.45593999997E+02  0.45594000000E+02  0.51100000000E-03 0. -1.
         11   -1    0    0    0    0 -0.00000000000E+00 -0.00000000000E+00 -0.45593999997E+02  0.45594000000E+02  0.51100000000E-03 0.  1.
    9900012    2    1    2    0    0  0.25925644363E+02 -0.28914022986E+02  0.19376841667E+02  0.47787288556E+02  0.20000079841E+02 0.  0.
         12    1    1    2    0    0 -0.25925644363E+02  0.28914022986E+02 -0.19376841667E+02  0.43400711444E+02  0.00000000000E+00 0. -1.
         11    1    3    3    0    0  0.95076137420E+01 -0.54941791838E+01  0.11732943713E+02  0.16069931313E+02  0.51100000000E-03 0. -1.
        -11    1    3    3    0    0  0.16794371902E+02 -0.21773169956E+02  0.96069954428E+01  0.29127585194E+02  0.51100000000E-03 0.  1.
         12    1    3    3    0    0 -0.37634128102E+00 -0.16466738468E+01 -0.19630974887E+01  0.25897720493E+01  0.00000000000E+00 0. -1.
</event>
<event>
 7    1  0.2318319E-009  0.4778727E+02  0.7816164E-02  0.1312668E+00
        -11   -1    0    0    0    0  0.00000000000E+00  0.00000000000E+00  0.45593999997E+02  0.45594000000E+02  0.51100000000E-03 0.  1.
         11   -1    0    0    0    0 -0.00000000000E+00 -0.00000000000E+00 -0.45593999997E+02  0.45594000000E+02  0.51100000000E-03 0. -1.
    9900012    2    1    2    0    0 -0.28654164087E+02  0.20242094001E+02  0.25550336979E+02  0.47787271794E+02  0.20000003419E+02 0.  0.
         12    1    1    2    0    0  0.28654164087E+02 -0.20242094001E+02 -0.25550336979E+02  0.43400728206E+02  0.00000000000E+00 0. -1.
         11    1    3    3    0    0 -0.10401549955E+02  0.16734624940E+02  0.10795370394E+02  0.22467308150E+02  0.51100000000E-03 0. -1.
        -11    1    3    3    0    0 -0.12296588094E+02  0.63691780639E+01  0.86779539369E+01  0.16342563837E+02  0.51100000000E-03 0.  1.
        -12    1    3    3    0    0 -0.59560260378E+01 -0.28617090020E+01  0.60770126481E+01  0.89773998073E+01  0.00000000000E+00 0.  1.
</event>
<event>
 7    1  0.2318319E-009  0.4778726E+02  0.7816164E-02  0.1312668E+00
        -11   -1    0    0    0    0  0.00000000000E+00  0.00000000000E+00  0.45593999997E+02  0.45594000000E+02  0.51100000000E-03 0.  1.
         11   -1    0    0    0    0 -0.00000000000E+00 -0.00000000000E+00 -0.45593999997E+02  0.45594000000E+02  0.51100000000E-03 0. -1.
    9900012    2    1    2    0    0 -0.10992476361E+02 -0.10722299325E+02  0.40593372584E+02  0.47787261100E+02  0.19999954659E+02 0.  0.
         12    1    1    2    0    0  0.10992476361E+02  0.10722299325E+02 -0.40593372584E+02  0.43400738900E+02  0.00000000000E+00 0. -1.
         11    1    3    3    0    0 -0.18793063595E+01 -0.41616499605E+01  0.22629445047E+01  0.50962771588E+01  0.51100000000E-03 0. -1.
        -11    1    3    3    0    0 -0.13257673627E+02 -0.42355017896E+01  0.26291741228E+02  0.29748294783E+02  0.51100000000E-03 0.  1.
         12    1    3    3    0    0  0.41445036263E+01 -0.23251475745E+01  0.12038686851E+02  0.12942689158E+02  0.00000000000E+00 0. -1.
</event>
<event>
 7    1  0.2318319E-009  0.4778727E+02  0.7816164E-02  0.1312668E+00
        -11   -1    0    0    0    0  0.00000000000E+00  0.00000000000E+00  0.45593999997E+02  0.45594000000E+02  0.51100000000E-03 0.  1.
         11   -1    0    0    0    0 -0.00000000000E+00 -0.00000000000E+00 -0.45593999997E+02  0.45594000000E+02  0.51100000000E-03 0. -1.
    9900012    2    1    2    0    0  0.28326079936E+02  0.97460520420E+01  0.31404955491E+02  0.47787267698E+02  0.19999984742E+02 0.  0.
         12    1    1    2    0    0 -0.28326079936E+02 -0.97460520420E+01 -0.31404955491E+02  0.43400732302E+02  0.00000000000E+00 0. -1.
         11    1    3    3    0    0 -0.10689588143E+01 -0.18629451516E-01 -0.72846290538E+00  0.12937072578E+01  0.51100000000E-03 0. -1.
        -11    1    3    3    0    0  0.13953463576E+02  0.25717324525E+01  0.62418710272E+01  0.15500771199E+02  0.51100000000E-03 0.  1.
        -12    1    3    3    0    0  0.15441575174E+02  0.71929490410E+01  0.25891547369E+02  0.30992789241E+02  0.00000000000E+00 0.  1.
</event>
<event>
 7    1  0.2318319E-009  0.4778727E+02  0.7816164E-02  0.1312668E+00
        -11   -1    0    0    0    0  0.00000000000E+00  0.00000000000E+00  0.45593999997E+02  0.45594000000E+02  0.51100000000E-03 0.  1.
         11   -1    0    0    0    0 -0.00000000000E+00 -0.00000000000E+00 -0.45593999997E+02  0.45594000000E+02  0.51100000000E-03 0. -1.
    9900012    2    1    2    0    0 -0.42179414882E+02 -0.35569997477E+01  0.95848053467E+01  0.47787265208E+02  0.19999973388E+02 0.  0.
         12    1    1    2    0    0  0.42179414882E+02  0.35569997477E+01 -0.95848053467E+01  0.43400734792E+02  0.00000000000E+00 0. -1.
         11    1    3    3    0    0 -0.85308424969E+01  0.37436718293E+01  0.36320772656E+01  0.99991168608E+01  0.51100000000E-03 0. -1.
        -11    1    3    3    0    0 -0.31162386066E+02 -0.23196487426E+01  0.72352951871E+01  0.32075295358E+02  0.51100000000E-03 0.  1.
         12    1    3    3    0    0 -0.24861863192E+01 -0.49810228344E+01 -0.12825671060E+01  0.57128529888E+01  0.00000000000E+00 0. -1.
</event>
<event>
 7    1  0.2318319E-009  0.4778727E+02  0.7816164E-02  0.1312668E+00
        -11   -1    0    0    0    0  0.00000000000E+00  0.00000000000E+00  0.45593999997E+02  0.45594000000E+02  0.51100000000E-03 0.  1.
         11   -1    0    0    0    0 -0.00000000000E+00 -0.00000000000E+00 -0.45593999997E+02  0.45594000000E+02  0.51100000000E-03 0. -1.
    9900012    2    1    2    0    0 -0.29280307980E+02 -0.14716893534E+01 -0.32001887587E+02  0.47787272885E+02  0.20000008393E+02 0.  0.
         12    1    1    2    0    0  0.29280307980E+02  0.14716893534E+01  0.32001887587E+02  0.43400727115E+02  0.00000000000E+00 0. -1.
         11    1    3    3    0    0 -0.12531345713E+02 -0.45813682589E+00 -0.21404954004E+02  0.24807590994E+02  0.51100000000E-03 0. -1.
        -11    1    3    3    0    0 -0.11074547478E+02  0.10103606020E+01 -0.12433823905E+02  0.16681319119E+02  0.51100000000E-03 0.  1.
        -12    1    3    3    0    0 -0.56744147889E+01 -0.20239131294E+01  0.18368903226E+01  0.62983627721E+01  0.00000000000E+00 0.  1.
</event>
<event>
 7    1  0.2318319E-009  0.4778728E+02  0.7816164E-02  0.1312668E+00
        -11   -1    0    0    0    0  0.00000000000E+00  0.00000000000E+00  0.45593999997E+02  0.45594000000E+02  0.51100000000E-03 0.  1.
         11   -1    0    0    0    0 -0.00000000000E+00 -0.00000000000E+00 -0.45593999997E+02  0.45594000000E+02  0.51100000000E-03 0. -1.
    9900012    2    1    2    0    0  0.36650461815E+02  0.60984129054E+01  0.22431580983E+02  0.47787276312E+02  0.20000024018E+02 0.  0.
         12    1    1    2    0    0 -0.36650461815E+02 -0.60984129054E+01 -0.22431580983E+02  0.43400723688E+02  0.00000000000E+00 0. -1.
         11    1    3    3    0    0  0.19926413677E+02  0.33213270684E+00  0.73854382048E+01  0.21253634322E+02  0.51100000000E-03 0. -1.
        -11    1    3    3    0    0  0.18386447552E+02  0.60346018437E+01  0.15495396846E+02  0.24790828882E+02  0.51100000000E-03 0.  1.
         12    1    3    3    0    0 -0.16623994133E+01 -0.26832164515E+00 -0.44925406730E+00  0.17428131086E+01  0.00000000000E+00 0. -1.
</event>
<event>
 7    1  0.2318319E-009  0.4778727E+02  0.7816164E-02  0.1312668E+00
        -11   -1    0    0    0    0  0.00000000000E+00  0.00000000000E+00  0.45593999997E+02  0.45594000000E+02  0.51100000000E-03 0.  1.
         11   -1    0    0    0    0 -0.00000000000E+00 -0.00000000000E+00 -0.45593999997E+02  0.45594000000E+02  0.51100000000E-03 0. -1.
    9900012    2    1    2    0    0 -0.17119091042E+02 -0.13718528727E+02  0.37448120929E+02  0.47787273397E+02  0.20000010727E+02 0.  0.
         12    1    1    2    0    0  0.17119091042E+02  0.13718528727E+02 -0.37448120929E+02  0.43400726603E+02  0.00000000000E+00 0. -1.
         11    1    3    3    0    0 -0.25023157322E+00 -0.41109742593E+01  0.41525272064E+01  0.58486073267E+01  0.51100000000E-03 0. -1.
        -11    1    3    3    0    0  0.65633573688E+00 -0.77946689056E+01  0.11584719388E+02  0.13978317621E+02  0.51100000000E-03 0.  1.
        -12    1    3    3    0    0 -0.17525195206E+02 -0.18128855624E+01  0.21710874334E+02  0.27960348450E+02  0.00000000000E+00 0.  1.
</event>
<event>
 7    1  0.2318319E-009  0.4778728E+02  0.7816164E-02  0.1312668E+00
        -11   -1    0    0    0    0  0.00000000000E+00  0.00000000000E+00  0.45593999997E+02  0.45594000000E+02  0.51100000000E-03 0.  1.
         11   -1    0    0    0    0 -0.00000000000E+00 -0.00000000000E+00 -0.45593999997E+02  0.45594000000E+02  0.51100000000E-03 0. -1.
    9900012    2    1    2    0    0 -0.35600517079E+02  0.24309993345E+02  0.50249565283E+01  0.47787276724E+02  0.20000025897E+02 0.  0.
         12    1    1    2    0    0  0.35600517079E+02 -0.24309993345E+02 -0.50249565283E+01  0.43400723276E+02  0.00000000000E+00 0. -1.
         11    1    3    3    0    0  0.16608743719E+01  0.30273538800E+00  0.20233866610E+01  0.26351937757E+01  0.51100000000E-03 0. -1.
        -11    1    3    3    0    0 -0.10617752967E+02  0.81526031367E+01  0.44700970052E+01  0.14113234337E+02  0.51100000000E-03 0.  1.
        -12    1    3    3    0    0 -0.26643638484E+02  0.15854654820E+02 -0.14685271379E+01  0.31038848611E+02  0.00000000000E+00 0.  1.
</event>
<event>
 7    1  0.2318319E-009  0.4778727E+02  0.7816164E-02  0.1312668E+00
        -11   -1    0    0    0    0  0.00000000000E+00  0.00000000000E+00  0.45593999997E+02  0.45594000000E+02  0.51100000000E-03 0.  1.
         11   -1    0    0    0    0 -0.00000000000E+00 -0.00000000000E+00 -0.45593999997E+02  0.45594000000E+02  0.51100000000E-03 0. -1.
    9900012    2    1    2    0    0 -0.15638494979E+02 -0.27177383684E+02  0.30007514634E+02  0.47787266785E+02  0.19999980579E+02 0.  0.
         12    1    1    2    0    0  0.15638494979E+02  0.27177383684E+02 -0.30007514634E+02  0.43400733215E+02  0.00000000000E+00 0. -1.
         11    1    3    3    0    0 -0.37665465911E+01 -0.21088923132E+02  0.21113826912E+02  0.30078617641E+02  0.51100000000E-03 0.  1.
        -11    1    3    3    0    0 -0.43552420232E+01 -0.62272641537E+01  0.30572395052E+01  0.81910723091E+01  0.51100000000E-03 0. -1.
        -12    1    3    3    0    0 -0.75167063650E+01  0.13880360120E+00  0.58364482168E+01  0.95175768347E+01  0.00000000000E+00 0.  1.
</event>
<event>
 7    1  0.2318319E-009  0.4778727E+02  0.7816164E-02  0.1312668E+00
        -11   -1    0    0    0    0  0.00000000000E+00  0.00000000000E+00  0.45593999997E+02  0.45594000000E+02  0.51100000000E-03 0.  1.
         11   -1    0    0    0    0 -0.00000000000E+00 -0.00000000000E+00 -0.45593999997E+02  0.45594000000E+02  0.51100000000E-03 0. -1.
    9900012    2    1    2    0    0 -0.24280013348E+01  0.11873367692E+01  0.43316490571E+02  0.47787270577E+02  0.19999997869E+02 0.  0.
         12    1    1    2    0    0  0.24280013348E+01 -0.11873367692E+01 -0.43316490571E+02  0.43400729423E+02  0.00000000000E+00 0. -1.
         11    1    3    3    0    0 -0.97535202950E-01 -0.80395944967E+01  0.11589114956E+02  0.14105040890E+02  0.51100000000E-03 0.  1.
        -11    1    3    3    0    0 -0.24472814641E+01  0.13150893796E+01  0.13941628735E+02  0.14215753891E+02  0.51100000000E-03 0. -1.
         12    1    3    3    0    0  0.11681533225E+00  0.79118418863E+01  0.17785746880E+02  0.19466475796E+02  0.00000000000E+00 0. -1.
</event>
<event>
 7    1  0.2318319E-009  0.4778727E+02  0.7816164E-02  0.1312668E+00
        -11   -1    0    0    0    0  0.00000000000E+00  0.00000000000E+00  0.45593999997E+02  0.45594000000E+02  0.51100000000E-03 0.  1.
         11   -1    0    0    0    0 -0.00000000000E+00 -0.00000000000E+00 -0.45593999997E+02  0.45594000000E+02  0.51100000000E-03 0. -1.
    9900012    2    1    2    0    0 -0.40891988086E+02 -0.59411892029E+01 -0.13272950180E+02  0.47787266996E+02  0.19999981542E+02 0.  0.
         12    1    1    2    0    0  0.40891988086E+02  0.59411892029E+01  0.13272950180E+02  0.43400733004E+02  0.00000000000E+00 0. -1.
         11    1    3    3    0    0 -0.26013096423E+02  0.59613536070E+01 -0.86760845111E+01  0.28062312182E+02  0.51100000000E-03 0. -1.
        -11    1    3    3    0    0 -0.18269089592E+01 -0.23468042709E+01 -0.30823654362E+00  0.29899994414E+01  0.51100000000E-03 0.  1.
         12    1    3    3    0    0 -0.13051982704E+02 -0.95557385389E+01 -0.42886291257E+01  0.16734955372E+02  0.00000000000E+00 0. -1.
</event>
<event>
 7    1  0.2318319E-009  0.4778727E+02  0.7816164E-02  0.1312668E+00
        -11   -1    0    0    0    0  0.00000000000E+00  0.00000000000E+00  0.45593999997E+02  0.45594000000E+02  0.51100000000E-03 0.  1.
         11   -1    0    0    0    0 -0.00000000000E+00 -0.00000000000E+00 -0.45593999997E+02  0.45594000000E+02  0.51100000000E-03 0. -1.
    9900012    2    1    2    0    0  0.21010221545E+02  0.23272815746E+02  0.30009492406E+02  0.47787274239E+02  0.20000014564E+02 0.  0.
         12    1    1    2    0    0 -0.21010221545E+02 -0.23272815746E+02 -0.30009492406E+02  0.43400725761E+02  0.00000000000E+00 0. -1.
         11    1    3    3    0    0  0.35051036455E+01  0.40603872747E+00  0.26256988885E+01  0.43982853395E+01  0.51100000000E-03 0. -1.
        -11    1    3    3    0    0  0.10401767523E+02  0.21987299784E+02  0.26823290547E+02  0.36209488196E+02  0.51100000000E-03 0.  1.
        -12    1    3    3    0    0  0.71033503760E+01  0.87947723506E+00  0.56050297138E+00  0.71795007036E+01  0.00000000000E+00 0.  1.
</event>
<event>
 7    1  0.2318319E-009  0.4778727E+02  0.7816164E-02  0.1312668E+00
        -11   -1    0    0    0    0  0.00000000000E+00  0.00000000000E+00  0.45593999997E+02  0.45594000000E+02  0.51100000000E-03 0. -1.
         11   -1    0    0    0    0 -0.00000000000E+00 -0.00000000000E+00 -0.45593999997E+02  0.45594000000E+02  0.51100000000E-03 0.  1.
    9900012    2    1    2    0    0  0.44623635796E+00  0.40716536298E+02 -0.15019577849E+02  0.47787272197E+02  0.20000005257E+02 0.  0.
         12    1    1    2    0    0 -0.44623635796E+00 -0.40716536298E+02  0.15019577849E+02  0.43400727803E+02  0.00000000000E+00 0. -1.
         11    1    3    3    0    0  0.46251238766E+01  0.17651881565E+02 -0.11303976834E+02  0.21465334523E+02  0.51100000000E-03 0. -1.
        -11    1    3    3    0    0 -0.17709471970E+01  0.28090046485E+00 -0.28842891263E+01  0.33962159930E+01  0.51100000000E-03 0.  1.
         12    1    3    3    0    0 -0.24079403216E+01  0.22783754269E+02 -0.83131188891E+00  0.22925721682E+02  0.00000000000E+00 0. -1.
</event>
<event>
 7    1  0.2318319E-009  0.4778727E+02  0.7816164E-02  0.1312668E+00
        -11   -1    0    0    0    0  0.00000000000E+00  0.00000000000E+00  0.45593999997E+02  0.45594000000E+02  0.51100000000E-03 0. -1.
         11   -1    0    0    0    0 -0.00000000000E+00 -0.00000000000E+00 -0.45593999997E+02  0.45594000000E+02  0.51100000000E-03 0.  1.
    9900012    2    1    2    0    0 -0.13826222038E+02  0.40463270985E+02 -0.74284926011E+01  0.47787271700E+02  0.20000002989E+02 0.  0.
         12    1    1    2    0    0  0.13826222038E+02 -0.40463270985E+02  0.74284926011E+01  0.43400728300E+02  0.00000000000E+00 0. -1.
         11    1    3    3    0    0 -0.37698001943E+01  0.26894579014E+02 -0.62518457202E+01  0.27867819237E+02  0.51100000000E-03 0. -1.
        -11    1    3    3    0    0 -0.70370426362E+01  0.13166676814E+02 -0.43206851694E+01  0.15541868227E+02  0.51100000000E-03 0.  1.
         12    1    3    3    0    0 -0.30193792077E+01  0.40201515706E+00  0.31440382885E+01  0.43775842363E+01  0.00000000000E+00 0. -1.
</event>
<event>
 7    1  0.2318319E-009  0.4778727E+02  0.7816164E-02  0.1312668E+00
        -11   -1    0    0    0    0  0.00000000000E+00  0.00000000000E+00  0.45593999997E+02  0.45594000000E+02  0.51100000000E-03 0.  1.
         11   -1    0    0    0    0 -0.00000000000E+00 -0.00000000000E+00 -0.45593999997E+02  0.45594000000E+02  0.51100000000E-03 0. -1.
    9900012    2    1    2    0    0  0.16615721243E+02  0.22891643732E+02  0.32916769809E+02  0.47787270976E+02  0.19999999688E+02 0.  0.
         12    1    1    2    0    0 -0.16615721243E+02 -0.22891643732E+02 -0.32916769809E+02  0.43400729024E+02  0.00000000000E+00 0. -1.
         11    1    3    3    0    0  0.59747568060E+01  0.14787478339E+02  0.21996225344E+02  0.27169857639E+02  0.51100000000E-03 0. -1.
        -11    1    3    3    0    0  0.11210415198E+02  0.10174762341E+02  0.10513131563E+02  0.18431634033E+02  0.51100000000E-03 0.  1.
         12    1    3    3    0    0 -0.56945076152E+00 -0.20705969478E+01  0.40741290212E+00  0.21857793034E+01  0.00000000000E+00 0. -1.
</event>
<event>
 7    1  0.2318319E-009  0.4778727E+02  0.7816164E-02  0.1312668E+00
        -11   -1    0    0    0    0  0.00000000000E+00  0.00000000000E+00  0.45593999997E+02  0.45594000000E+02  0.51100000000E-03 0.  1.
         11   -1    0    0    0    0 -0.00000000000E+00 -0.00000000000E+00 -0.45593999997E+02  0.45594000000E+02  0.51100000000E-03 0. -1.
    9900012    2    1    2    0    0  0.19482661899E+02 -0.38780905536E+02 -0.30112020860E+00  0.47787269335E+02  0.19999992206E+02 0.  0.
         12    1    1    2    0    0 -0.19482661899E+02  0.38780905536E+02  0.30112020860E+00  0.43400730665E+02  0.00000000000E+00 0. -1.
         11    1    3    3    0    0  0.63000061541E+01 -0.96081301930E+01  0.19861095552E+01  0.11659797373E+02  0.51100000000E-03 0. -1.
        -11    1    3    3    0    0  0.14854233784E+02 -0.28062452216E+02  0.15585666059E+01  0.31789599176E+02  0.51100000000E-03 0.  1.
         12    1    3    3    0    0 -0.16715780390E+01 -0.11103231274E+01 -0.38457963697E+01  0.43378727857E+01  0.00000000000E+00 0. -1.
</event>
<event>
 7    1  0.2318319E-009  0.4778727E+02  0.7816164E-02  0.1312668E+00
        -11   -1    0    0    0    0  0.00000000000E+00  0.00000000000E+00  0.45593999997E+02  0.45594000000E+02  0.51100000000E-03 0.  1.
         11   -1    0    0    0    0 -0.00000000000E+00 -0.00000000000E+00 -0.45593999997E+02  0.45594000000E+02  0.51100000000E-03 0. -1.
    9900012    2    1    2    0    0 -0.92903869575E+01  0.20737966465E+02  0.36976329328E+02  0.47787268745E+02  0.19999989515E+02 0.  0.
         12    1    1    2    0    0  0.92903869575E+01 -0.20737966465E+02 -0.36976329328E+02  0.43400731255E+02  0.00000000000E+00 0. -1.
         11    1    3    3    0    0 -0.12163388409E+01  0.47714604748E+01  0.19641228832E+02  0.20249053942E+02  0.51100000000E-03 0. -1.
        -11    1    3    3    0    0 -0.49565602514E+01  0.99753828142E+01  0.17543852990E+02  0.20781302409E+02  0.51100000000E-03 0.  1.
        -12    1    3    3    0    0 -0.31174878652E+01  0.59911231761E+01 -0.20875249401E+00  0.67569123943E+01  0.00000000000E+00 0.  1.
</event>
<event>
 7    1  0.2318319E-009  0.4778727E+02  0.7816164E-02  0.1312668E+00
        -11   -1    0    0    0    0  0.00000000000E+00  0.00000000000E+00  0.45593999997E+02  0.45594000000E+02  0.51100000000E-03 0.  1.
         11   -1    0    0    0    0 -0.00000000000E+00 -0.00000000000E+00 -0.45593999997E+02  0.45594000000E+02  0.51100000000E-03 0. -1.
    9900012    2    1    2    0    0 -0.22727801150E+02 -0.13323281666E+02  0.34490006846E+02  0.47787270148E+02  0.19999995912E+02 0.  0.
         12    1    1    2    0    0  0.22727801150E+02  0.13323281666E+02 -0.34490006846E+02  0.43400729852E+02  0.00000000000E+00 0. -1.
         11    1    3    3    0    0 -0.19685859943E+01 -0.63566053186E+01  0.69439339159E+01  0.96176910162E+01  0.51100000000E-03 0.  1.
        -11    1    3    3    0    0 -0.14830220646E+01  0.14556102555E+00 -0.18056342560E+01  0.23411231886E+01  0.51100000000E-03 0. -1.
        -12    1    3    3    0    0 -0.19276193091E+02 -0.71122373727E+01  0.29351707186E+02  0.35828455943E+02  0.00000000000E+00 0.  1.
</event>
<event>
 7    1  0.2318319E-009  0.4778727E+02  0.7816164E-02  0.1312668E+00
        -11   -1    0    0    0    0  0.00000000000E+00  0.00000000000E+00  0.45593999997E+02  0.45594000000E+02  0.51100000000E-03 0. -1.
         11   -1    0    0    0    0 -0.00000000000E+00 -0.00000000000E+00 -0.45593999997E+02  0.45594000000E+02  0.51100000000E-03 0.  1.
    9900012    2    1    2    0    0 -0.23448641188E+02 -0.34644507331E+02 -0.11556060570E+02  0.47787271923E+02  0.20000004004E+02 0.  0.
         12    1    1    2    0    0  0.23448641188E+02  0.34644507331E+02  0.11556060570E+02  0.43400728077E+02  0.00000000000E+00 0. -1.
         11    1    3    3    0    0 -0.11392774721E+02 -0.23324306095E+02 -0.72162510607E+01  0.26942398748E+02  0.51100000000E-03 0. -1.
        -11    1    3    3    0    0 -0.63302349361E+00 -0.80058924934E+01 -0.39372812498E+01  0.89441163488E+01  0.51100000000E-03 0.  1.
         12    1    3    3    0    0 -0.11422842973E+02 -0.33143087420E+01 -0.40252826005E+00  0.11900756826E+02  0.00000000000E+00 0. -1.
</event>
<event>
 7    1  0.2318319E-009  0.4778727E+02  0.7816164E-02  0.1312668E+00
        -11   -1    0    0    0    0  0.00000000000E+00  0.00000000000E+00  0.45593999997E+02  0.45594000000E+02  0.51100000000E-03 0.  1.
         11   -1    0    0    0    0 -0.00000000000E+00 -0.00000000000E+00 -0.45593999997E+02  0.45594000000E+02  0.51100000000E-03 0. -1.
    9900012    2    1    2    0    0 -0.32711871143E+02  0.23411208026E+02  0.16293304781E+02  0.47787274711E+02  0.20000016718E+02 0.  0.
         12    1    1    2    0    0  0.32711871143E+02 -0.23411208026E+02 -0.16293304781E+02  0.43400725289E+02  0.00000000000E+00 0. -1.
         11    1    3    3    0    0 -0.73040718793E+01  0.74175044371E+01  0.31666690111E+01  0.10881021596E+02  0.51100000000E-03 0. -1.
        -11    1    3    3    0    0 -0.20950724558E+02  0.35267942464E+01  0.84669280964E+01  0.22870505216E+02  0.51100000000E-03 0.  1.
        -12    1    3    3    0    0 -0.44570747055E+01  0.12466909343E+02  0.46597076731E+01  0.14035747899E+02  0.00000000000E+00 0.  1.
</event>
<event>
 7    1  0.2318319E-009  0.4778727E+02  0.7816164E-02  0.1312668E+00
        -11   -1    0    0    0    0  0.00000000000E+00  0.00000000000E+00  0.45593999997E+02  0.45594000000E+02  0.51100000000E-03 0. -1.
         11   -1    0    0    0    0 -0.00000000000E+00 -0.00000000000E+00 -0.45593999997E+02  0.45594000000E+02  0.51100000000E-03 0.  1.
    9900012    2    1    2    0    0  0.42969473594E+02 -0.22041563846E+01 -0.56911485211E+01  0.47787272612E+02  0.20000007149E+02 0.  0.
         12    1    1    2    0    0 -0.42969473594E+02  0.22041563846E+01  0.56911485211E+01  0.43400727388E+02  0.00000000000E+00 0. -1.
         11    1    3    3    0    0  0.27567194197E+01  0.20976730988E+01 -0.17930141650E+01  0.39005941144E+01  0.51100000000E-03 0. -1.
        -11    1    3    3    0    0  0.35608554354E+02  0.15535798979E+01 -0.36945109696E+00  0.35644343844E+02  0.51100000000E-03 0.  1.
         12    1    3    3    0    0  0.46041998195E+01 -0.58554093814E+01 -0.35286832592E+01  0.82423346538E+01  0.00000000000E+00 0. -1.
</event>
<event>
 7    1  0.2318319E-009  0.4778727E+02  0.7816164E-02  0.1312668E+00
        -11   -1    0    0    0    0  0.00000000000E+00  0.00000000000E+00  0.45593999997E+02  0.45594000000E+02  0.51100000000E-03 0.  1.
         11   -1    0    0    0    0 -0.00000000000E+00 -0.00000000000E+00 -0.45593999997E+02  0.45594000000E+02  0.51100000000E-03 0. -1.
    9900012    2    1    2    0    0 -0.20730560682E+02  0.38211287246E+01  0.37937665506E+02  0.47787266884E+02  0.19999981032E+02 0.  0.
         12    1    1    2    0    0  0.20730560682E+02 -0.38211287246E+01 -0.37937665506E+02  0.43400733116E+02  0.00000000000E+00 0. -1.
         11    1    3    3    0    0 -0.38381771525E+01 -0.34384474456E+00  0.44739343927E+01  0.59047372738E+01  0.51100000000E-03 0. -1.
        -11    1    3    3    0    0 -0.36103529775E+01 -0.69692955328E+01  0.10830716852E+02  0.13375730135E+02  0.51100000000E-03 0.  1.
         12    1    3    3    0    0 -0.13282030552E+02  0.11134269002E+02  0.22633014261E+02  0.28506799476E+02  0.00000000000E+00 0. -1.
</event>
<event>
 7    1  0.2318319E-009  0.4778727E+02  0.7816164E-02  0.1312668E+00
        -11   -1    0    0    0    0  0.00000000000E+00  0.00000000000E+00  0.45593999997E+02  0.45594000000E+02  0.51100000000E-03 0.  1.
         11   -1    0    0    0    0 -0.00000000000E+00 -0.00000000000E+00 -0.45593999997E+02  0.45594000000E+02  0.51100000000E-03 0. -1.
    9900012    2    1    2    0    0 -0.26044177123E+02 -0.21960441419E+02  0.26889830920E+02  0.47787272400E+02  0.20000006180E+02 0.  0.
         12    1    1    2    0    0  0.26044177123E+02  0.21960441419E+02 -0.26889830920E+02  0.43400727600E+02  0.00000000000E+00 0. -1.
         11    1    3    3    0    0 -0.10602921483E+02 -0.60202976902E+01  0.10962740458E+02  0.16396573022E+02  0.51100000000E-03 0. -1.
        -11    1    3    3    0    0 -0.12507599337E+02 -0.17567755575E+02  0.17416493264E+02  0.27720034542E+02  0.51100000000E-03 0.  1.
         12    1    3    3    0    0 -0.29336563027E+01  0.16276118470E+01 -0.14894028023E+01  0.36706648355E+01  0.00000000000E+00 0. -1.
</event>
<event>
 7    1  0.2318319E-009  0.4778728E+02  0.7816164E-02  0.1312668E+00
        -11   -1    0    0    0    0  0.00000000000E+00  0.00000000000E+00  0.45593999997E+02  0.45594000000E+02  0.51100000000E-03 0. -1.
         11   -1    0    0    0    0 -0.00000000000E+00 -0.00000000000E+00 -0.45593999997E+02  0.45594000000E+02  0.51100000000E-03 0.  1.
    9900012    2    1    2    0    0  0.41841258212E+02  0.86094977544E+01  0.76686403443E+01  0.47787281284E+02  0.20000046687E+02 0.  0.
         12    1    1    2    0    0 -0.41841258212E+02 -0.86094977544E+01 -0.76686403443E+01  0.43400718716E+02  0.00000000000E+00 0. -1.
         11    1    3    3    0    0 -0.55416870405E+00 -0.15002745101E+01 -0.10137695736E+01  0.18935827332E+01  0.51100000000E-03 0. -1.
        -11    1    3    3    0    0  0.20955217356E+02  0.68417059759E+01  0.99146774851E+01  0.24170868933E+02  0.51100000000E-03 0.  1.
         12    1    3    3    0    0  0.21440209560E+02  0.32680662886E+01 -0.12322675672E+01  0.21722829617E+02  0.00000000000E+00 0. -1.
</event>
<event>
 7    1  0.2318319E-009  0.4778727E+02  0.7816164E-02  0.1312668E+00
        -11   -1    0    0    0    0  0.00000000000E+00  0.00000000000E+00  0.45593999997E+02  0.45594000000E+02  0.51100000000E-03 0.  1.
         11   -1    0    0    0    0 -0.00000000000E+00 -0.00000000000E+00 -0.45593999997E+02  0.45594000000E+02  0.51100000000E-03 0. -1.
    9900012    2    1    2    0    0  0.32956308770E+02 -0.13656481001E+02  0.24718521530E+02  0.47787273420E+02  0.20000010831E+02 0.  0.
         12    1    1    2    0    0 -0.32956308770E+02  0.13656481001E+02 -0.24718521530E+02  0.43400726580E+02  0.00000000000E+00 0. -1.
         11    1    3    3    0    0 -0.15299210833E+01  0.38977124994E+00 -0.63875609161E+00  0.17031117856E+01  0.51100000000E-03 0. -1.
        -11    1    3    3    0    0  0.11288551835E+02 -0.30954405395E+01  0.30674702611E+01  0.12100517705E+02  0.51100000000E-03 0.  1.
         12    1    3    3    0    0  0.23197678019E+02 -0.10950811711E+02  0.22289807360E+02  0.33983643930E+02  0.00000000000E+00 0. -1.
</event>
<event>
 7    1  0.2318319E-009  0.4778727E+02  0.7816164E-02  0.1312668E+00
        -11   -1    0    0    0    0  0.00000000000E+00  0.00000000000E+00  0.45593999997E+02  0.45594000000E+02  0.51100000000E-03 0.  1.
         11   -1    0    0    0    0 -0.00000000000E+00 -0.00000000000E+00 -0.45593999997E+02  0.45594000000E+02  0.51100000000E-03 0. -1.
    9900012    2    1    2    0    0 -0.19040170970E+02  0.36627594520E+02 -0.13398292503E+02  0.47787273821E+02  0.20000012658E+02 0.  0.
         12    1    1    2    0    0  0.19040170970E+02 -0.36627594520E+02  0.13398292503E+02  0.43400726179E+02  0.00000000000E+00 0. -1.
         11    1    3    3    0    0 -0.10790050175E+02  0.16430426225E+02 -0.77889995693E+01  0.21143618499E+02  0.51100000000E-03 0. -1.
        -11    1    3    3    0    0 -0.47703981857E+01  0.19492025470E+02 -0.73841732376E-01  0.20067416591E+02  0.51100000000E-03 0.  1.
         12    1    3    3    0    0 -0.34797226093E+01  0.70514282597E+00 -0.55354512009E+01  0.65762387305E+01  0.00000000000E+00 0. -1.
</event>
<event>
 7    1  0.2318319E-009  0.4778727E+02  0.7816164E-02  0.1312668E+00
        -11   -1    0    0    0    0  0.00000000000E+00  0.00000000000E+00  0.45593999997E+02  0.45594000000E+02  0.51100000000E-03 0.  1.
         11   -1    0    0    0    0 -0.00000000000E+00 -0.00000000000E+00 -0.45593999997E+02  0.45594000000E+02  0.51100000000E-03 0. -1.
    9900012    2    1    2    0    0  0.13204833526E+02 -0.28692384516E+02  0.29765798128E+02  0.47787270791E+02  0.19999998846E+02 0.  0.
         12    1    1    2    0    0 -0.13204833526E+02  0.28692384516E+02 -0.29765798128E+02  0.43400729209E+02  0.00000000000E+00 0. -1.
         11    1    3    3    0    0  0.66163583714E+01 -0.10269113399E+01  0.25546726607E+01  0.71663866532E+01  0.51100000000E-03 0. -1.
        -11    1    3    3    0    0  0.37890940164E+01 -0.76826384451E+01  0.29378567114E+01  0.90560018364E+01  0.51100000000E-03 0.  1.
        -12    1    3    3    0    0  0.27993811379E+01 -0.19982834731E+02  0.24273268756E+02  0.31564882302E+02  0.00000000000E+00 0.  1.
</event>
<event>
 7    1  0.2318319E-009  0.4778727E+02  0.7816164E-02  0.1312668E+00
        -11   -1    0    0    0    0  0.00000000000E+00  0.00000000000E+00  0.45593999997E+02  0.45594000000E+02  0.51100000000E-03 0. -1.
         11   -1    0    0    0    0 -0.00000000000E+00 -0.00000000000E+00 -0.45593999997E+02  0.45594000000E+02  0.51100000000E-03 0.  1.
    9900012    2    1    2    0    0  0.10739966872E+02  0.30100587650E+02 -0.29363770284E+02  0.47787271082E+02  0.20000000173E+02 0.  0.
         12    1    1    2    0    0 -0.10739966872E+02 -0.30100587650E+02  0.29363770284E+02  0.43400728918E+02  0.00000000000E+00 0. -1.
         11    1    3    3    0    0 -0.47400173178E+00  0.18485561701E+02 -0.13671314314E+02  0.22996641154E+02  0.51100000000E-03 0. -1.
        -11    1    3    3    0    0  0.53248403907E+01  0.12162552197E+02 -0.10890765093E+02  0.17172372163E+02  0.51100000000E-03 0.  1.
         12    1    3    3    0    0  0.58891282130E+01 -0.54752624792E+00 -0.48016908772E+01  0.76182577655E+01  0.00000000000E+00 0. -1.
</event>
<event>
 7    1  0.2318319E-009  0.4778727E+02  0.7816164E-02  0.1312668E+00
        -11   -1    0    0    0    0  0.00000000000E+00  0.00000000000E+00  0.45593999997E+02  0.45594000000E+02  0.51100000000E-03 0.  1.
         11   -1    0    0    0    0 -0.00000000000E+00 -0.00000000000E+00 -0.45593999997E+02  0.45594000000E+02  0.51100000000E-03 0. -1.
    9900012    2    1    2    0    0 -0.65272137416E+01 -0.19909208444E+02  0.38008453346E+02  0.47787266990E+02  0.19999981514E+02 0.  0.
         12    1    1    2    0    0  0.65272137416E+01  0.19909208444E+02 -0.38008453346E+02  0.43400733010E+02  0.00000000000E+00 0. -1.
         11    1    3    3    0    0 -0.61567529381E+00 -0.51739232994E+01  0.66054876917E+01  0.84131448508E+01  0.51100000000E-03 0. -1.
        -11    1    3    3    0    0 -0.34785734008E+01 -0.41280368559E+01  0.27163679638E+02  0.27694884959E+02  0.51100000000E-03 0.  1.
         12    1    3    3    0    0 -0.24329650470E+01 -0.10607248288E+02  0.42392860163E+01  0.11679237180E+02  0.00000000000E+00 0. -1.
</event>
<event>
 7    1  0.2318319E-009  0.4778732E+02  0.7816164E-02  0.1312668E+00
        -11   -1    0    0    0    0  0.00000000000E+00  0.00000000000E+00  0.45593999997E+02  0.45594000000E+02  0.51100000000E-03 0.  1.
         11   -1    0    0    0    0 -0.00000000000E+00 -0.00000000000E+00 -0.45593999997E+02  0.45594000000E+02  0.51100000000E-03 0. -1.
    9900012    2    1    2    0    0 -0.19932633376E+02  0.10759732375E+01  0.38537663897E+02  0.47787318780E+02  0.20000217642E+02 0.  0.
         12    1    1    2    0    0  0.19932633376E+02 -0.10759732375E+01 -0.38537663897E+02  0.43400681220E+02  0.00000000000E+00 0. -1.
         11    1    3    3    0    0 -0.98137715042E+01  0.11001168068E+01  0.96832969795E+01  0.13830640216E+02  0.51100000000E-03 0. -1.
        -11    1    3    3    0    0 -0.13946568038E+02  0.84277962562E+00  0.22865022689E+02  0.26796012770E+02  0.51100000000E-03 0.  1.
         12    1    3    3    0    0  0.38277061657E+01 -0.86692319491E+00  0.59893442294E+01  0.71606657941E+01  0.00000000000E+00 0. -1.
</event>
<event>
 7    1  0.2318319E-009  0.4778728E+02  0.7816164E-02  0.1312668E+00
        -11   -1    0    0    0    0  0.00000000000E+00  0.00000000000E+00  0.45593999997E+02  0.45594000000E+02  0.51100000000E-03 0.  1.
         11   -1    0    0    0    0 -0.00000000000E+00 -0.00000000000E+00 -0.45593999997E+02  0.45594000000E+02  0.51100000000E-03 0. -1.
    9900012    2    1    2    0    0  0.31132579070E+02 -0.21154760062E+02  0.21606977382E+02  0.47787276222E+02  0.20000023608E+02 0.  0.
         12    1    1    2    0    0 -0.31132579070E+02  0.21154760062E+02 -0.21606977382E+02  0.43400723778E+02  0.00000000000E+00 0. -1.
         11    1    3    3    0    0  0.19202903558E+01  0.27067962342E+01  0.28507540047E+01  0.43750496638E+01  0.51100000000E-03 0. -1.
        -11    1    3    3    0    0  0.87201196623E+01 -0.74956974395E+01  0.59878969741E+00  0.11514535005E+02  0.51100000000E-03 0.  1.
        -12    1    3    3    0    0  0.20492169052E+02 -0.16365858857E+02  0.18157433680E+02  0.31897691553E+02  0.00000000000E+00 0.  1.
</event>
<event>
 7    1  0.2318319E-009  0.4778727E+02  0.7816164E-02  0.1312668E+00
        -11   -1    0    0    0    0  0.00000000000E+00  0.00000000000E+00  0.45593999997E+02  0.45594000000E+02  0.51100000000E-03 0.  1.
         11   -1    0    0    0    0 -0.00000000000E+00 -0.00000000000E+00 -0.45593999997E+02  0.45594000000E+02  0.51100000000E-03 0. -1.
    9900012    2    1    2    0    0 -0.14229505758E+01 -0.18239597841E+02  0.39356263296E+02  0.47787272145E+02  0.20000005019E+02 0.  0.
         12    1    1    2    0    0  0.14229505758E+01  0.18239597841E+02 -0.39356263296E+02  0.43400727855E+02  0.00000000000E+00 0. -1.
         11    1    3    3    0    0  0.10974236066E+01 -0.71529872590E+01  0.79356359718E+01  0.10739826993E+02  0.51100000000E-03 0. -1.
        -11    1    3    3    0    0 -0.29051996076E+00 -0.13571322295E+02  0.14749337337E+02  0.20045152602E+02  0.51100000000E-03 0.  1.
         12    1    3    3    0    0 -0.22298542216E+01  0.24847117134E+01  0.16671289986E+02  0.17002292550E+02  0.00000000000E+00 0. -1.
</event>
<event>
 7    1  0.2318319E-009  0.4778727E+02  0.7816164E-02  0.1312668E+00
        -11   -1    0    0    0    0  0.00000000000E+00  0.00000000000E+00  0.45593999997E+02  0.45594000000E+02  0.51100000000E-03 0.  1.
         11   -1    0    0    0    0 -0.00000000000E+00 -0.00000000000E+00 -0.45593999997E+02  0.45594000000E+02  0.51100000000E-03 0. -1.
    9900012    2    1    2    0    0 -0.23671346431E+02  0.26199884485E+02  0.25236016350E+02  0.47787272931E+02  0.20000008602E+02 0.  0.
         12    1    1    2    0    0  0.23671346431E+02 -0.26199884485E+02 -0.25236016350E+02  0.43400727069E+02  0.00000000000E+00 0. -1.
         11    1    3    3    0    0 -0.11311994766E+02  0.10105771623E+02  0.91458017617E+01  0.17712524829E+02  0.51100000000E-03 0. -1.
        -11    1    3    3    0    0 -0.80378284295E+01  0.18002137451E+02  0.92887443475E+01  0.21793678223E+02  0.51100000000E-03 0.  1.
         12    1    3    3    0    0 -0.43215232348E+01 -0.19080245890E+01  0.68014702411E+01  0.82810698790E+01  0.00000000000E+00 0. -1.
</event>
<event>
 7    1  0.2318319E-009  0.4778727E+02  0.7816164E-02  0.1312668E+00
        -11   -1    0    0    0    0  0.00000000000E+00  0.00000000000E+00  0.45593999997E+02  0.45594000000E+02  0.51100000000E-03 0. -1.
         11   -1    0    0    0    0 -0.00000000000E+00 -0.00000000000E+00 -0.45593999997E+02  0.45594000000E+02  0.51100000000E-03 0.  1.
    9900012    2    1    2    0    0 -0.65482259093E+01  0.41303498692E+02 -0.11608830689E+02  0.47787271703E+02  0.20000003001E+02 0.  0.
         12    1    1    2    0    0  0.65482259093E+01 -0.41303498692E+02  0.11608830689E+02  0.43400728297E+02  0.00000000000E+00 0. -1.
         11    1    3    3    0    0 -0.79309803025E+01  0.15604655515E+02  0.37972310203E+00  0.17508566823E+02  0.51100000000E-03 0. -1.
        -11    1    3    3    0    0 -0.10552413635E+00  0.24726816057E+02 -0.81281525386E+01  0.26028703994E+02  0.51100000000E-03 0.  1.
         12    1    3    3    0    0  0.14882785296E+01  0.97202712076E+00 -0.38604012521E+01  0.42500008861E+01  0.00000000000E+00 0. -1.
</event>
<event>
 7    1  0.2318319E-009  0.4778727E+02  0.7816164E-02  0.1312668E+00
        -11   -1    0    0    0    0  0.00000000000E+00  0.00000000000E+00  0.45593999997E+02  0.45594000000E+02  0.51100000000E-03 0. -1.
         11   -1    0    0    0    0 -0.00000000000E+00 -0.00000000000E+00 -0.45593999997E+02  0.45594000000E+02  0.51100000000E-03 0.  1.
    9900012    2    1    2    0    0 -0.78920914422E+01 -0.33386010785E+02 -0.26584066031E+02  0.47787269704E+02  0.19999993888E+02 0.  0.
         12    1    1    2    0    0  0.78920914422E+01  0.33386010785E+02  0.26584066031E+02  0.43400730296E+02  0.00000000000E+00 0. -1.
         11    1    3    3    0    0 -0.19596329755E+01 -0.14483076476E+02 -0.17399019764E+02  0.22722798124E+02  0.51100000000E-03 0. -1.
        -11    1    3    3    0    0 -0.67909626614E+01 -0.19140876830E+02 -0.10960078301E+02  0.23078424043E+02  0.51100000000E-03 0.  1.
         12    1    3    3    0    0  0.85850419465E+00  0.23794252001E+00  0.17750320341E+01  0.19860475365E+01  0.00000000000E+00 0. -1.
</event>
<event>
 7    1  0.2318319E-009  0.4778728E+02  0.7816164E-02  0.1312668E+00
        -11   -1    0    0    0    0  0.00000000000E+00  0.00000000000E+00  0.45593999997E+02  0.45594000000E+02  0.51100000000E-03 0.  1.
         11   -1    0    0    0    0 -0.00000000000E+00 -0.00000000000E+00 -0.45593999997E+02  0.45594000000E+02  0.51100000000E-03 0. -1.
    9900012    2    1    2    0    0  0.28477800648E+02  0.25496321696E+02  0.20556618666E+02  0.47787284329E+02  0.20000060572E+02 0.  0.
         12    1    1    2    0    0 -0.28477800648E+02 -0.25496321696E+02 -0.20556618666E+02  0.43400715671E+02  0.00000000000E+00 0. -1.
         11    1    3    3    0    0  0.75091777909E+01  0.55430155908E+01  0.11809417731E+02  0.15052412443E+02  0.51100000000E-03 0. -1.
        -11    1    3    3    0    0  0.15431563484E+02  0.75824255632E+01  0.84976516046E+01  0.19179061814E+02  0.51100000000E-03 0.  1.
        -12    1    3    3    0    0  0.55370593725E+01  0.12370880542E+02  0.24954932979E+00  0.13555810073E+02  0.00000000000E+00 0.  1.
</event>
<event>
 7    1  0.2318319E-009  0.4778727E+02  0.7816164E-02  0.1312668E+00
        -11   -1    0    0    0    0  0.00000000000E+00  0.00000000000E+00  0.45593999997E+02  0.45594000000E+02  0.51100000000E-03 0.  1.
         11   -1    0    0    0    0 -0.00000000000E+00 -0.00000000000E+00 -0.45593999997E+02  0.45594000000E+02  0.51100000000E-03 0. -1.
    9900012    2    1    2    0    0  0.27187833141E+02  0.32371042906E+02  0.98265271773E+01  0.47787270443E+02  0.19999997256E+02 0.  0.
         12    1    1    2    0    0 -0.27187833141E+02 -0.32371042906E+02 -0.98265271773E+01  0.43400729557E+02  0.00000000000E+00 0. -1.
         11    1    3    3    0    0  0.13899801288E+02  0.71162405589E+01 -0.12411288923E+01  0.15664793542E+02  0.51100000000E-03 0. -1.
        -11    1    3    3    0    0  0.89528124479E+01  0.10219772706E+02  0.90979426311E+01  0.16351427010E+02  0.51100000000E-03 0.  1.
         12    1    3    3    0    0  0.43352194054E+01  0.15035029641E+02  0.19697134386E+01  0.15771049890E+02  0.00000000000E+00 0. -1.
</event>
<event>
 7    1  0.2380434E-009  0.4778727E+02  0.7816164E-02  0.1312668E+00
        -11   -1    0    0    0    0  0.00000000000E+00  0.00000000000E+00  0.45593999997E+02  0.45594000000E+02  0.51100000000E-03 0. -1.
         11   -1    0    0    0    0 -0.00000000000E+00 -0.00000000000E+00 -0.45593999997E+02  0.45594000000E+02  0.51100000000E-03 0.  1.
    9900012    2    1    2    0    0  0.27258996366E+01 -0.44234288533E+01 -0.43088582121E+02  0.47787272347E+02  0.20000005938E+02 0.  0.
         12    1    1    2    0    0 -0.27258996366E+01  0.44234288533E+01  0.43088582121E+02  0.43400727653E+02  0.00000000000E+00 0. -1.
         11    1    3    3    0    0  0.45402505890E+01  0.43343397566E+00 -0.58415094605E+01  0.74111384726E+01  0.51100000000E-03 0. -1.
        -11    1    3    3    0    0  0.56331279984E+01 -0.55679064359E+01 -0.22225946588E+02  0.23595050648E+02  0.51100000000E-03 0.  1.
         12    1    3    3    0    0 -0.74474789508E+01  0.71104360694E+00 -0.15021126073E+02  0.16781083226E+02  0.00000000000E+00 0. -1.
</event>
<event>
 7    1  0.2318319E-009  0.4778728E+02  0.7816164E-02  0.1312668E+00
        -11   -1    0    0    0    0  0.00000000000E+00  0.00000000000E+00  0.45593999997E+02  0.45594000000E+02  0.51100000000E-03 0. -1.
         11   -1    0    0    0    0 -0.00000000000E+00 -0.00000000000E+00 -0.45593999997E+02  0.45594000000E+02  0.51100000000E-03 0.  1.
    9900012    2    1    2    0    0  0.18518666540E+02  0.38053486157E+02  0.96236168389E+01  0.47787276272E+02  0.20000023833E+02 0.  0.
         12    1    1    2    0    0 -0.18518666540E+02 -0.38053486157E+02 -0.96236168389E+01  0.43400723728E+02  0.00000000000E+00 0. -1.
         11    1    3    3    0    0  0.14408985823E+01 -0.18616786981E+01  0.17353998860E+01  0.29246622582E+01  0.51100000000E-03 0. -1.
        -11    1    3    3    0    0  0.58461150174E+01  0.12378853982E+02  0.63312954652E+01  0.15083049733E+02  0.51100000000E-03 0.  1.
         12    1    3    3    0    0  0.11231652940E+02  0.27536310873E+02  0.15569214878E+01  0.29779564281E+02  0.00000000000E+00 0. -1.
</event>
<event>
 7    1  0.2318319E-009  0.4778727E+02  0.7816164E-02  0.1312668E+00
        -11   -1    0    0    0    0  0.00000000000E+00  0.00000000000E+00  0.45593999997E+02  0.45594000000E+02  0.51100000000E-03 0. -1.
         11   -1    0    0    0    0 -0.00000000000E+00 -0.00000000000E+00 -0.45593999997E+02  0.45594000000E+02  0.51100000000E-03 0.  1.
    9900012    2    1    2    0    0  0.16197384517E+02 -0.27409662763E+02 -0.29495395778E+02  0.47787271318E+02  0.20000001248E+02 0.  0.
         12    1    1    2    0    0 -0.16197384517E+02  0.27409662763E+02  0.29495395778E+02  0.43400728682E+02  0.00000000000E+00 0. -1.
         11    1    3    3    0    0  0.60054525087E+01 -0.65616111466E+01 -0.17569185972E+02  0.19692549268E+02  0.51100000000E-03 0.  1.
        -11    1    3    3    0    0  0.26245266265E+00 -0.46256172322E+01 -0.70898457755E+01  0.84694232129E+01  0.51100000000E-03 0. -1.
        -12    1    3    3    0    0  0.99294793456E+01 -0.16222434384E+02 -0.48363640309E+01  0.19625298838E+02  0.00000000000E+00 0.  1.
</event>
<event>
 7    1  0.2318319E-009  0.4778727E+02  0.7816164E-02  0.1312668E+00
        -11   -1    0    0    0    0  0.00000000000E+00  0.00000000000E+00  0.45593999997E+02  0.45594000000E+02  0.51100000000E-03 0.  1.
         11   -1    0    0    0    0 -0.00000000000E+00 -0.00000000000E+00 -0.45593999997E+02  0.45594000000E+02  0.51100000000E-03 0. -1.
    9900012    2    1    2    0    0 -0.12562011437E+02  0.84563242889E+01  0.40673207201E+02  0.47787270330E+02  0.19999996743E+02 0.  0.
         12    1    1    2    0    0  0.12562011437E+02 -0.84563242889E+01 -0.40673207201E+02  0.43400729670E+02  0.00000000000E+00 0. -1.
         11    1    3    3    0    0 -0.92606631017E+01 -0.10125248734E+01  0.10914532652E+02  0.14349638009E+02  0.51100000000E-03 0. -1.
        -11    1    3    3    0    0 -0.24761824685E+01 -0.22770334303E+01  0.50657899876E+01  0.60810023285E+01  0.51100000000E-03 0.  1.
        -12    1    3    3    0    0 -0.82516586727E+00  0.11745882593E+02  0.24692884561E+02  0.27356629993E+02  0.00000000000E+00 0.  1.
</event>
<event>
 7    1  0.2318319E-009  0.4778728E+02  0.7816164E-02  0.1312668E+00
        -11   -1    0    0    0    0  0.00000000000E+00  0.00000000000E+00  0.45593999997E+02  0.45594000000E+02  0.51100000000E-03 0.  1.
         11   -1    0    0    0    0 -0.00000000000E+00 -0.00000000000E+00 -0.45593999997E+02  0.45594000000E+02  0.51100000000E-03 0. -1.
    9900012    2    1    2    0    0 -0.20391339235E+02  0.93325348166E+01  0.37158036944E+02  0.47787278446E+02  0.20000033745E+02 0.  0.
         12    1    1    2    0    0  0.20391339235E+02 -0.93325348166E+01 -0.37158036944E+02  0.43400721554E+02  0.00000000000E+00 0. -1.
         11    1    3    3    0    0  0.43086445293E-01 -0.59870927534E+00  0.10879894323E+01  0.12425902398E+01  0.51100000000E-03 0. -1.
        -11    1    3    3    0    0  0.20305376488E+01  0.41431474711E-01  0.11985955082E+02  0.12156805468E+02  0.51100000000E-03 0.  1.
        -12    1    3    3    0    0 -0.22464963329E+02  0.98898126172E+01  0.24084092430E+02  0.34387882737E+02  0.00000000000E+00 0.  1.
</event>
<event>
 7    1  0.2318319E-009  0.4778728E+02  0.7816164E-02  0.1312668E+00
        -11   -1    0    0    0    0  0.00000000000E+00  0.00000000000E+00  0.45593999997E+02  0.45594000000E+02  0.51100000000E-03 0.  1.
         11   -1    0    0    0    0 -0.00000000000E+00 -0.00000000000E+00 -0.45593999997E+02  0.45594000000E+02  0.51100000000E-03 0. -1.
    9900012    2    1    2    0    0  0.29359193399E+02  0.34967052142E+01  0.31771581626E+02  0.47787278999E+02  0.20000036269E+02 0.  0.
         12    1    1    2    0    0 -0.29359193399E+02 -0.34967052142E+01 -0.31771581626E+02  0.43400721001E+02  0.00000000000E+00 0. -1.
         11    1    3    3    0    0  0.25169005223E+01 -0.26651479174E+01  0.90772837423E+00  0.37764762310E+01  0.51100000000E-03 0. -1.
        -11    1    3    3    0    0  0.13565641970E+02 -0.22992733023E+01  0.21986557405E+02  0.25936885059E+02  0.51100000000E-03 0.  1.
        -12    1    3    3    0    0  0.13276650907E+02  0.84611264339E+01  0.88772958467E+01  0.18073917710E+02  0.00000000000E+00 0.  1.
</event>
<event>
 7    1  0.2936290E-009  0.4778728E+02  0.7816164E-02  0.1312668E+00
        -11   -1    0    0    0    0  0.00000000000E+00  0.00000000000E+00  0.45593999997E+02  0.45594000000E+02  0.51100000000E-03 0. -1.
         11   -1    0    0    0    0 -0.00000000000E+00 -0.00000000000E+00 -0.45593999997E+02  0.45594000000E+02  0.51100000000E-03 0.  1.
    9900012    2    1    2    0    0  0.31114223343E+02  0.20634659423E+02 -0.22130042727E+02  0.47787275871E+02  0.20000022008E+02 0.  0.
         12    1    1    2    0    0 -0.31114223343E+02 -0.20634659423E+02  0.22130042727E+02  0.43400724129E+02  0.00000000000E+00 0. -1.
         11    1    3    3    0    0  0.37971397633E+00  0.33016400251E+00  0.16632995980E+01  0.17377447414E+01  0.51100000000E-03 0. -1.
        -11    1    3    3    0    0  0.87916163376E+01  0.31207890390E+01 -0.13349875243E+02  0.16286528522E+02  0.51100000000E-03 0.  1.
        -12    1    3    3    0    0  0.21942893029E+02  0.17183706382E+02 -0.10443467083E+02  0.29763002608E+02  0.00000000000E+00 0.  1.
</event>
<event>
 7    1  0.2318319E-009  0.4778727E+02  0.7816164E-02  0.1312668E+00
        -11   -1    0    0    0    0  0.00000000000E+00  0.00000000000E+00  0.45593999997E+02  0.45594000000E+02  0.51100000000E-03 0. -1.
         11   -1    0    0    0    0 -0.00000000000E+00 -0.00000000000E+00 -0.45593999997E+02  0.45594000000E+02  0.51100000000E-03 0.  1.
    9900012    2    1    2    0    0  0.19327947980E+02  0.38618152480E+02  0.43234073053E+01  0.47787272762E+02  0.20000007829E+02 0.  0.
         12    1    1    2    0    0 -0.19327947980E+02 -0.38618152480E+02 -0.43234073053E+01  0.43400727238E+02  0.00000000000E+00 0. -1.
         11    1    3    3    0    0  0.60703193015E+00  0.10852582122E+02  0.80943222724E+01  0.13552309021E+02  0.51100000000E-03 0. -1.
        -11    1    3    3    0    0  0.34075303724E+01  0.77148399619E+01  0.12046098995E+01  0.85194544513E+01  0.51100000000E-03 0.  1.
        -12    1    3    3    0    0  0.15313385677E+02  0.20050730396E+02 -0.49755248666E+01  0.25715509290E+02  0.00000000000E+00 0.  1.
</event>
<event>
 7    1  0.2318319E-009  0.4778727E+02  0.7816164E-02  0.1312668E+00
        -11   -1    0    0    0    0  0.00000000000E+00  0.00000000000E+00  0.45593999997E+02  0.45594000000E+02  0.51100000000E-03 0. -1.
         11   -1    0    0    0    0 -0.00000000000E+00 -0.00000000000E+00 -0.45593999997E+02  0.45594000000E+02  0.51100000000E-03 0.  1.
    9900012    2    1    2    0    0 -0.18951004571E+02  0.38097325823E+02  0.85484758352E+01  0.47787271340E+02  0.20000001348E+02 0.  0.
         12    1    1    2    0    0  0.18951004571E+02 -0.38097325823E+02 -0.85484758352E+01  0.43400728660E+02  0.00000000000E+00 0. -1.
         11    1    3    3    0    0 -0.59495852208E+01  0.27148163819E+02  0.75327584233E+01  0.28795187319E+02  0.51100000000E-03 0.  1.
        -11    1    3    3    0    0 -0.25929140161E+01  0.55467884011E+01 -0.26981577766E+01  0.66910477737E+01  0.51100000000E-03 0. -1.
         12    1    3    3    0    0 -0.10408505334E+02  0.54023736032E+01  0.37138751886E+01  0.12301036247E+02  0.00000000000E+00 0. -1.
</event>
<event>
 7    1  0.2318319E-009  0.4778727E+02  0.7816164E-02  0.1312668E+00
        -11   -1    0    0    0    0  0.00000000000E+00  0.00000000000E+00  0.45593999997E+02  0.45594000000E+02  0.51100000000E-03 0. -1.
         11   -1    0    0    0    0 -0.00000000000E+00 -0.00000000000E+00 -0.45593999997E+02  0.45594000000E+02  0.51100000000E-03 0.  1.
    9900012    2    1    2    0    0  0.21782771298E+02  0.37513283225E+02 -0.13739978334E+01  0.47787269433E+02  0.19999992652E+02 0.  0.
         12    1    1    2    0    0 -0.21782771298E+02 -0.37513283225E+02  0.13739978334E+01  0.43400730567E+02  0.00000000000E+00 0. -1.
         11    1    3    3    0    0 -0.17947360535E-02 -0.12359024355E+01 -0.14916098381E+01  0.19371004675E+01  0.51100000000E-03 0. -1.
        -11    1    3    3    0    0  0.25082674503E+01  0.12247011401E+02  0.32872520107E+01  0.12926202841E+02  0.51100000000E-03 0.  1.
         12    1    3    3    0    0  0.19276298583E+02  0.26502174260E+02 -0.31696400060E+01  0.32923966124E+02  0.00000000000E+00 0. -1.
</event>
<event>
 7    1  0.2318319E-009  0.4778727E+02  0.7816164E-02  0.1312668E+00
        -11   -1    0    0    0    0  0.00000000000E+00  0.00000000000E+00  0.45593999997E+02  0.45594000000E+02  0.51100000000E-03 0.  1.
         11   -1    0    0    0    0 -0.00000000000E+00 -0.00000000000E+00 -0.45593999997E+02  0.45594000000E+02  0.51100000000E-03 0. -1.
    9900012    2    1    2    0    0  0.15673256264E+02 -0.46606192654E+01  0.40202622788E+02  0.47787271747E+02  0.20000003205E+02 0.  0.
         12    1    1    2    0    0 -0.15673256264E+02  0.46606192654E+01 -0.40202622788E+02  0.43400728253E+02  0.00000000000E+00 0. -1.
         11    1    3    3    0    0  0.11260611703E+02  0.18920842473E+01  0.19854042774E+02  0.22903370352E+02  0.51100000000E-03 0. -1.
        -11    1    3    3    0    0  0.57885454025E+01 -0.17969810371E+01  0.18712792620E+02  0.19669901033E+02  0.51100000000E-03 0.  1.
         12    1    3    3    0    0 -0.13759008415E+01 -0.47557224756E+01  0.16357873932E+01  0.52140003631E+01  0.00000000000E+00 0. -1.
</event>
<event>
 7    1  0.2318319E-009  0.4778727E+02  0.7816164E-02  0.1312668E+00
        -11   -1    0    0    0    0  0.00000000000E+00  0.00000000000E+00  0.45593999997E+02  0.45594000000E+02  0.51100000000E-03 0.  1.
         11   -1    0    0    0    0 -0.00000000000E+00 -0.00000000000E+00 -0.45593999997E+02  0.45594000000E+02  0.51100000000E-03 0. -1.
    9900012    2    1    2    0    0 -0.80241846091E+01  0.22137155087E+02  0.36457950163E+02  0.47787270697E+02  0.19999998414E+02 0.  0.
         12    1    1    2    0    0  0.80241846091E+01 -0.22137155087E+02 -0.36457950163E+02  0.43400729303E+02  0.00000000000E+00 0. -1.
         11    1    3    3    0    0  0.36630942437E+01  0.98263989843E+01  0.87060676486E+01  0.13629819903E+02  0.51100000000E-03 0. -1.
        -11    1    3    3    0    0 -0.19519411198E+01  0.85326965373E+01  0.17269646665E+02  0.19361241709E+02  0.51100000000E-03 0.  1.
         12    1    3    3    0    0 -0.97353377330E+01  0.37780595654E+01  0.10482235850E+02  0.14796209084E+02  0.00000000000E+00 0. -1.
</event>
<event>
 7    1  0.2318319E-009  0.4778727E+02  0.7816164E-02  0.1312668E+00
        -11   -1    0    0    0    0  0.00000000000E+00  0.00000000000E+00  0.45593999997E+02  0.45594000000E+02  0.51100000000E-03 0. -1.
         11   -1    0    0    0    0 -0.00000000000E+00 -0.00000000000E+00 -0.45593999997E+02  0.45594000000E+02  0.51100000000E-03 0.  1.
    9900012    2    1    2    0    0 -0.89037226788E+01 -0.76079806948E+01 -0.41790741652E+02  0.47787265725E+02  0.19999975746E+02 0.  0.
         12    1    1    2    0    0  0.89037226788E+01  0.76079806948E+01  0.41790741652E+02  0.43400734275E+02  0.00000000000E+00 0. -1.
         11    1    3    3    0    0 -0.13517530210E+02 -0.11738247465E+01 -0.20910734204E+02  0.24927099565E+02  0.51100000000E-03 0. -1.
        -11    1    3    3    0    0  0.31669897228E-01  0.56480675328E+00 -0.37963161480E+01  0.38382321722E+01  0.51100000000E-03 0.  1.
         12    1    3    3    0    0  0.45821376342E+01 -0.69989627016E+01 -0.17083691300E+02  0.19021933987E+02  0.00000000000E+00 0. -1.
</event>
<event>
 7    1  0.2318319E-009  0.4778727E+02  0.7816164E-02  0.1312668E+00
        -11   -1    0    0    0    0  0.00000000000E+00  0.00000000000E+00  0.45593999997E+02  0.45594000000E+02  0.51100000000E-03 0.  1.
         11   -1    0    0    0    0 -0.00000000000E+00 -0.00000000000E+00 -0.45593999997E+02  0.45594000000E+02  0.51100000000E-03 0. -1.
    9900012    2    1    2    0    0 -0.95109121871E+01  0.40672954645E+00  0.42343836250E+02  0.47787270191E+02  0.19999996109E+02 0.  0.
         12    1    1    2    0    0  0.95109121871E+01 -0.40672954645E+00 -0.42343836250E+02  0.43400729809E+02  0.00000000000E+00 0. -1.
         11    1    3    3    0    0 -0.94559294580E+00 -0.45275511467E+00 -0.14658870911E+01  0.18022093213E+01  0.51100000000E-03 0. -1.
        -11    1    3    3    0    0 -0.55416391610E+00 -0.43692691331E+01  0.13223731617E+02  0.13937886803E+02  0.51100000000E-03 0.  1.
         12    1    3    3    0    0 -0.80111553252E+01  0.52287537943E+01  0.30585991725E+02  0.32047174067E+02  0.00000000000E+00 0. -1.
</event>
<event>
 7    1  0.2318319E-009  0.4778727E+02  0.7816164E-02  0.1312668E+00
        -11   -1    0    0    0    0  0.00000000000E+00  0.00000000000E+00  0.45593999997E+02  0.45594000000E+02  0.51100000000E-03 0. -1.
         11   -1    0    0    0    0 -0.00000000000E+00 -0.00000000000E+00 -0.45593999997E+02  0.45594000000E+02  0.51100000000E-03 0.  1.
    9900012    2    1    2    0    0  0.21345313523E+02  0.28651964615E+02 -0.24638701953E+02  0.47787272821E+02  0.20000008102E+02 0.  0.
         12    1    1    2    0    0 -0.21345313523E+02 -0.28651964615E+02  0.24638701953E+02  0.43400727179E+02  0.00000000000E+00 0. -1.
         11    1    3    3    0    0 -0.79064415993E+00 -0.19764431207E+00 -0.22261804948E+01  0.23706668510E+01  0.51100000000E-03 0. -1.
        -11    1    3    3    0    0 -0.18302029903E+01  0.29347731944E+01 -0.49408771175E+01  0.60311527621E+01  0.51100000000E-03 0.  1.
         12    1    3    3    0    0  0.23966160673E+02  0.25914835733E+02 -0.17471644341E+02  0.39385453208E+02  0.00000000000E+00 0. -1.
</event>
<event>
 7    1  0.2318319E-009  0.4778730E+02  0.7816164E-02  0.1312668E+00
        -11   -1    0    0    0    0  0.00000000000E+00  0.00000000000E+00  0.45593999997E+02  0.45594000000E+02  0.51100000000E-03 0.  1.
         11   -1    0    0    0    0 -0.00000000000E+00 -0.00000000000E+00 -0.45593999997E+02  0.45594000000E+02  0.51100000000E-03 0. -1.
    9900012    2    1    2    0    0 -0.32348139399E+02 -0.21343579409E+01  0.28855904868E+02  0.47787298945E+02  0.20000127207E+02 0.  0.
         12    1    1    2    0    0  0.32348139399E+02  0.21343579409E+01 -0.28855904868E+02  0.43400701055E+02  0.00000000000E+00 0. -1.
         11    1    3    3    0    0 -0.46719594893E+01 -0.94799852713E+00  0.13174939652E+02  0.14010886545E+02  0.51100000000E-03 0. -1.
        -11    1    3    3    0    0 -0.28062718198E+01 -0.30600579530E+01  0.53717666657E+01  0.67893293906E+01  0.51100000000E-03 0.  1.
        -12    1    3    3    0    0 -0.24869908090E+02  0.18736985393E+01  0.10309198550E+02  0.26987083009E+02  0.00000000000E+00 0.  1.
</event>
<event>
 7    1  0.2318319E-009  0.4778727E+02  0.7816164E-02  0.1312668E+00
        -11   -1    0    0    0    0  0.00000000000E+00  0.00000000000E+00  0.45593999997E+02  0.45594000000E+02  0.51100000000E-03 0.  1.
         11   -1    0    0    0    0 -0.00000000000E+00 -0.00000000000E+00 -0.45593999997E+02  0.45594000000E+02  0.51100000000E-03 0. -1.
    9900012    2    1    2    0    0  0.24207995348E+02  0.21490568565E+02  0.28909365205E+02  0.47787274515E+02  0.20000015824E+02 0.  0.
         12    1    1    2    0    0 -0.24207995348E+02 -0.21490568565E+02 -0.28909365205E+02  0.43400725485E+02  0.00000000000E+00 0. -1.
         11    1    3    3    0    0  0.11307207089E+01 -0.11096870311E+01 -0.43817020254E+00  0.16437542444E+01  0.51100000000E-03 0. -1.
        -11    1    3    3    0    0  0.20623876048E+02  0.11998068840E+02  0.15182347998E+02  0.28280763959E+02  0.51100000000E-03 0.  1.
        -12    1    3    3    0    0  0.24533985911E+01  0.10602186757E+02  0.14165187410E+02  0.17862756311E+02  0.00000000000E+00 0.  1.
</event>
<event>
 7    1  0.2318319E-009  0.4778727E+02  0.7816164E-02  0.1312668E+00
        -11   -1    0    0    0    0  0.00000000000E+00  0.00000000000E+00  0.45593999997E+02  0.45594000000E+02  0.51100000000E-03 0.  1.
         11   -1    0    0    0    0 -0.00000000000E+00 -0.00000000000E+00 -0.45593999997E+02  0.45594000000E+02  0.51100000000E-03 0. -1.
    9900012    2    1    2    0    0 -0.24326422116E+02 -0.31944541747E+02  0.16474067898E+02  0.47787268745E+02  0.19999989516E+02 0.  0.
         12    1    1    2    0    0  0.24326422116E+02  0.31944541747E+02 -0.16474067898E+02  0.43400731255E+02  0.00000000000E+00 0. -1.
         11    1    3    3    0    0 -0.42615839889E+01 -0.77376321696E+01  0.93229338788E+01  0.12843252939E+02  0.51100000000E-03 0. -1.
        -11    1    3    3    0    0 -0.20157418504E+02 -0.19715731163E+02  0.96521158898E+01  0.29802599173E+02  0.51100000000E-03 0.  1.
        -12    1    3    3    0    0  0.92580377235E-01 -0.44911784147E+01 -0.25009818710E+01  0.51414166334E+01  0.00000000000E+00 0.  1.
</event>
<event>
 7    1  0.2318319E-009  0.4778727E+02  0.7816164E-02  0.1312668E+00
        -11   -1    0    0    0    0  0.00000000000E+00  0.00000000000E+00  0.45593999997E+02  0.45594000000E+02  0.51100000000E-03 0.  1.
         11   -1    0    0    0    0 -0.00000000000E+00 -0.00000000000E+00 -0.45593999997E+02  0.45594000000E+02  0.51100000000E-03 0. -1.
    9900012    2    1    2    0    0  0.21310647605E+02 -0.85112571797E+01  0.36837999989E+02  0.47787269093E+02  0.19999991101E+02 0.  0.
         12    1    1    2    0    0 -0.21310647605E+02  0.85112571797E+01 -0.36837999989E+02  0.43400730907E+02  0.00000000000E+00 0. -1.
         11    1    3    3    0    0  0.41598102128E+01  0.21548892749E+01  0.25798689951E+01  0.53482046602E+01  0.51100000000E-03 0. -1.
        -11    1    3    3    0    0  0.12209056226E+02  0.11273328462E+01  0.16574855007E+02  0.20616928773E+02  0.51100000000E-03 0.  1.
         12    1    3    3    0    0  0.49417811665E+01 -0.11793479301E+02  0.17683275987E+02  0.21822135660E+02  0.00000000000E+00 0. -1.
</event>
<event>
 7    1  0.2318319E-009  0.4778727E+02  0.7816164E-02  0.1312668E+00
        -11   -1    0    0    0    0  0.00000000000E+00  0.00000000000E+00  0.45593999997E+02  0.45594000000E+02  0.51100000000E-03 0.  1.
         11   -1    0    0    0    0 -0.00000000000E+00 -0.00000000000E+00 -0.45593999997E+02  0.45594000000E+02  0.51100000000E-03 0. -1.
    9900012    2    1    2    0    0  0.39848297492E+02 -0.17011607986E+02 -0.25182515023E+01  0.47787271781E+02  0.20000003360E+02 0.  0.
         12    1    1    2    0    0 -0.39848297492E+02  0.17011607986E+02  0.25182515023E+01  0.43400728219E+02  0.00000000000E+00 0. -1.
         11    1    3    3    0    0  0.23009394698E+02 -0.30208779392E+01  0.89985178169E+00  0.23224290761E+02  0.51100000000E-03 0. -1.
        -11    1    3    3    0    0  0.11491966846E+02 -0.11082002260E+02  0.23982079404E+01  0.16143961028E+02  0.51100000000E-03 0.  1.
         12    1    3    3    0    0  0.53469359476E+01 -0.29087277867E+01 -0.58163112244E+01  0.84190199919E+01  0.00000000000E+00 0. -1.
</event>
<event>
 7    1  0.2318319E-009  0.4778727E+02  0.7816164E-02  0.1312668E+00
        -11   -1    0    0    0    0  0.00000000000E+00  0.00000000000E+00  0.45593999997E+02  0.45594000000E+02  0.51100000000E-03 0. -1.
         11   -1    0    0    0    0 -0.00000000000E+00 -0.00000000000E+00 -0.45593999997E+02  0.45594000000E+02  0.51100000000E-03 0.  1.
    9900012    2    1    2    0    0 -0.30124812974E+02 -0.26634270096E+02 -0.16332010437E+02  0.47787271144E+02  0.20000000454E+02 0.  0.
         12    1    1    2    0    0  0.30124812974E+02  0.26634270096E+02  0.16332010437E+02  0.43400728856E+02  0.00000000000E+00 0. -1.
         11    1    3    3    0    0 -0.37709126583E+01  0.14827464038E+01 -0.27518804136E+01  0.48980777093E+01  0.51100000000E-03 0. -1.
        -11    1    3    3    0    0 -0.26635271742E+01  0.11176847099E+01 -0.99309770744E-02  0.28885454824E+01  0.51100000000E-03 0.  1.
        -12    1    3    3    0    0 -0.23690373142E+02 -0.29234701210E+02 -0.13570199046E+02  0.40000647952E+02  0.00000000000E+00 0.  1.
</event>
<event>
 7    1  0.2318319E-009  0.4778727E+02  0.7816164E-02  0.1312668E+00
        -11   -1    0    0    0    0  0.00000000000E+00  0.00000000000E+00  0.45593999997E+02  0.45594000000E+02  0.51100000000E-03 0.  1.
         11   -1    0    0    0    0 -0.00000000000E+00 -0.00000000000E+00 -0.45593999997E+02  0.45594000000E+02  0.51100000000E-03 0. -1.
    9900012    2    1    2    0    0  0.40510031767E+02  0.80288370802E+01  0.13345355294E+02  0.47787269516E+02  0.19999993033E+02 0.  0.
         12    1    1    2    0    0 -0.40510031767E+02 -0.80288370802E+01 -0.13345355294E+02  0.43400730484E+02  0.00000000000E+00 0. -1.
         11    1    3    3    0    0  0.12369876080E+02 -0.32551679420E+01 -0.25354189030E+00  0.12793523217E+02  0.51100000000E-03 0. -1.
        -11    1    3    3    0    0  0.15114254589E+02  0.70205413129E+01  0.15366346719E+01  0.16735887741E+02  0.51100000000E-03 0.  1.
        -12    1    3    3    0    0  0.13025901098E+02  0.42634637093E+01  0.12062262512E+02  0.18257858558E+02  0.00000000000E+00 0.  1.
</event>
<event>
 7    1  0.2318319E-009  0.4778727E+02  0.7816164E-02  0.1312668E+00
        -11   -1    0    0    0    0  0.00000000000E+00  0.00000000000E+00  0.45593999997E+02  0.45594000000E+02  0.51100000000E-03 0.  1.
         11   -1    0    0    0    0 -0.00000000000E+00 -0.00000000000E+00 -0.45593999997E+02  0.45594000000E+02  0.51100000000E-03 0. -1.
    9900012    2    1    2    0    0 -0.20922901277E+02  0.29281131641E+02  0.24258421744E+02  0.47787268514E+02  0.19999988462E+02 0.  0.
         12    1    1    2    0    0  0.20922901277E+02 -0.29281131641E+02 -0.24258421744E+02  0.43400731486E+02  0.00000000000E+00 0. -1.
         11    1    3    3    0    0 -0.18124070818E+02  0.13829068805E+02  0.14637683471E+02  0.27092191950E+02  0.51100000000E-03 0. -1.
        -11    1    3    3    0    0 -0.42078055209E+01  0.12169101378E+02  0.10930619206E+02  0.16889970163E+02  0.51100000000E-03 0.  1.
         12    1    3    3    0    0  0.14089750611E+01  0.32829614584E+01 -0.13098809327E+01  0.38051064003E+01  0.00000000000E+00 0. -1.
</event>
<event>
 7    1  0.2318319E-009  0.4778727E+02  0.7816164E-02  0.1312668E+00
        -11   -1    0    0    0    0  0.00000000000E+00  0.00000000000E+00  0.45593999997E+02  0.45594000000E+02  0.51100000000E-03 0.  1.
         11   -1    0    0    0    0 -0.00000000000E+00 -0.00000000000E+00 -0.45593999997E+02  0.45594000000E+02  0.51100000000E-03 0. -1.
    9900012    2    1    2    0    0  0.17519701972E+02  0.16413113638E+02  0.36156508125E+02  0.47787270325E+02  0.19999996722E+02 0.  0.
         12    1    1    2    0    0 -0.17519701972E+02 -0.16413113638E+02 -0.36156508125E+02  0.43400729675E+02  0.00000000000E+00 0. -1.
         11    1    3    3    0    0  0.14067116419E+01  0.53185220097E+01  0.17488775108E+01  0.57727018648E+01  0.51100000000E-03 0. -1.
        -11    1    3    3    0    0  0.54022699620E+01  0.11184120454E+02  0.24285520632E+02  0.27277382273E+02  0.51100000000E-03 0.  1.
         12    1    3    3    0    0  0.10710720368E+02 -0.89528825961E-01  0.10122109983E+02  0.14737186187E+02  0.00000000000E+00 0. -1.
</event>
<event>
 7    1  0.2318319E-009  0.4778728E+02  0.7816164E-02  0.1312668E+00
        -11   -1    0    0    0    0  0.00000000000E+00  0.00000000000E+00  0.45593999997E+02  0.45594000000E+02  0.51100000000E-03 0.  1.
         11   -1    0    0    0    0 -0.00000000000E+00 -0.00000000000E+00 -0.45593999997E+02  0.45594000000E+02  0.51100000000E-03 0. -1.
    9900012    2    1    2    0    0 -0.25169377987E+02  0.23558848603E+02 -0.26364861954E+02  0.47787275564E+02  0.20000020606E+02 0.  0.
         12    1    1    2    0    0  0.25169377987E+02 -0.23558848603E+02  0.26364861954E+02  0.43400724436E+02  0.00000000000E+00 0. -1.
         11    1    3    3    0    0 -0.14134943020E+02  0.89509133877E+01 -0.55306827525E+01  0.17621121322E+02  0.51100000000E-03 0. -1.
        -11    1    3    3    0    0 -0.96218070244E+01  0.32941757568E+01 -0.12082537087E+02  0.15792987908E+02  0.51100000000E-03 0.  1.
         12    1    3    3    0    0 -0.14126279422E+01  0.11313759458E+02 -0.87516421142E+01  0.14373166335E+02  0.00000000000E+00 0. -1.
</event>
<event>
 7    1  0.2318319E-009  0.4778727E+02  0.7816164E-02  0.1312668E+00
        -11   -1    0    0    0    0  0.00000000000E+00  0.00000000000E+00  0.45593999997E+02  0.45594000000E+02  0.51100000000E-03 0. -1.
         11   -1    0    0    0    0 -0.00000000000E+00 -0.00000000000E+00 -0.45593999997E+02  0.45594000000E+02  0.51100000000E-03 0.  1.
    9900012    2    1    2    0    0 -0.10873073926E+02  0.29869475851E+02 -0.29550195835E+02  0.47787269613E+02  0.19999993474E+02 0.  0.
         12    1    1    2    0    0  0.10873073926E+02 -0.29869475851E+02  0.29550195835E+02  0.43400730387E+02  0.00000000000E+00 0. -1.
         11    1    3    3    0    0  0.11402605553E+01  0.74866015141E+01 -0.15802052069E+01  0.77360484177E+01  0.51100000000E-03 0. -1.
        -11    1    3    3    0    0 -0.15961629476E+01  0.16179515842E+02 -0.18765687125E+02  0.24828924314E+02  0.51100000000E-03 0.  1.
        -12    1    3    3    0    0 -0.10417171534E+02  0.62033584952E+01 -0.92043035026E+01  0.15222296882E+02  0.00000000000E+00 0.  1.
</event>
<event>
 7    1  0.2318319E-009  0.4778728E+02  0.7816164E-02  0.1312668E+00
        -11   -1    0    0    0    0  0.00000000000E+00  0.00000000000E+00  0.45593999997E+02  0.45594000000E+02  0.51100000000E-03 0.  1.
         11   -1    0    0    0    0 -0.00000000000E+00 -0.00000000000E+00 -0.45593999997E+02  0.45594000000E+02  0.51100000000E-03 0. -1.
    9900012    2    1    2    0    0  0.18806314251E+02 -0.40057906997E+01  0.38908853866E+02  0.47787277380E+02  0.20000028885E+02 0.  0.
         12    1    1    2    0    0 -0.18806314251E+02  0.40057906997E+01 -0.38908853866E+02  0.43400722620E+02  0.00000000000E+00 0. -1.
         11    1    3    3    0    0  0.60664048392E+00 -0.31201885643E+01  0.75055972148E+01  0.81509250497E+01  0.51100000000E-03 0. -1.
        -11    1    3    3    0    0  0.12768730816E+02 -0.69884650566E+01  0.26136053387E+02  0.29916089608E+02  0.51100000000E-03 0.  1.
         12    1    3    3    0    0  0.54309429506E+01  0.61028629211E+01  0.52672032640E+01  0.97202627223E+01  0.00000000000E+00 0. -1.
</event>
<event>
 7    1  0.2318319E-009  0.4778727E+02  0.7816164E-02  0.1312668E+00
        -11   -1    0    0    0    0  0.00000000000E+00  0.00000000000E+00  0.45593999997E+02  0.45594000000E+02  0.51100000000E-03 0.  1.
         11   -1    0    0    0    0 -0.00000000000E+00 -0.00000000000E+00 -0.45593999997E+02  0.45594000000E+02  0.51100000000E-03 0. -1.
    9900012    2    1    2    0    0 -0.99739526928E+01  0.52755471574E+01  0.41908380315E+02  0.47787268776E+02  0.19999989658E+02 0.  0.
         12    1    1    2    0    0  0.99739526928E+01 -0.52755471574E+01 -0.41908380315E+02  0.43400731224E+02  0.00000000000E+00 0. -1.
         11    1    3    3    0    0  0.13797693733E+01 -0.41237854107E+01  0.80435890428E+01  0.91437790102E+01  0.51100000000E-03 0. -1.
        -11    1    3    3    0    0 -0.26138564107E+01  0.23613829756E+00  0.18716562715E+02  0.18899675308E+02  0.51100000000E-03 0.  1.
        -12    1    3    3    0    0 -0.87398656555E+01  0.91631942706E+01  0.15148228558E+02  0.19743814458E+02  0.00000000000E+00 0.  1.
</event>
<event>
 7    1  0.2318319E-009  0.4778727E+02  0.7816164E-02  0.1312668E+00
        -11   -1    0    0    0    0  0.00000000000E+00  0.00000000000E+00  0.45593999997E+02  0.45594000000E+02  0.51100000000E-03 0.  1.
         11   -1    0    0    0    0 -0.00000000000E+00 -0.00000000000E+00 -0.45593999997E+02  0.45594000000E+02  0.51100000000E-03 0. -1.
    9900012    2    1    2    0    0  0.17489205375E+02  0.16383060122E+02  0.36184897396E+02  0.47787265408E+02  0.19999974300E+02 0.  0.
         12    1    1    2    0    0 -0.17489205375E+02 -0.16383060122E+02 -0.36184897396E+02  0.43400734592E+02  0.00000000000E+00 0. -1.
         11    1    3    3    0    0  0.28434092435E+01 -0.23874633758E+01 -0.44137459822E+00  0.37389529676E+01  0.51100000000E-03 0. -1.
        -11    1    3    3    0    0  0.18357360720E+01  0.36261719706E+01  0.10397908534E+02  0.11164029391E+02  0.51100000000E-03 0.  1.
        -12    1    3    3    0    0  0.12810060060E+02  0.15144351527E+02  0.26228363460E+02  0.32884283050E+02  0.00000000000E+00 0.  1.
</event>
<event>
 7    1  0.2318319E-009  0.4778727E+02  0.7816164E-02  0.1312668E+00
        -11   -1    0    0    0    0  0.00000000000E+00  0.00000000000E+00  0.45593999997E+02  0.45594000000E+02  0.51100000000E-03 0. -1.
         11   -1    0    0    0    0 -0.00000000000E+00 -0.00000000000E+00 -0.45593999997E+02  0.45594000000E+02  0.51100000000E-03 0.  1.
    9900012    2    1    2    0    0  0.60716972599E+01 -0.30894688362E+02 -0.29870987795E+02  0.47787272029E+02  0.20000004489E+02 0.  0.
         12    1    1    2    0    0 -0.60716972599E+01  0.30894688362E+02  0.29870987795E+02  0.43400727971E+02  0.00000000000E+00 0. -1.
         11    1    3    3    0    0 -0.15165556425E+01  0.70235313039E+00 -0.13325237387E+01  0.21374893478E+01  0.51100000000E-03 0. -1.
        -11    1    3    3    0    0 -0.39660052244E+01 -0.12725922977E+02 -0.85890264796E+01  0.15857165231E+02  0.51100000000E-03 0.  1.
         12    1    3    3    0    0  0.11554258127E+02 -0.18871118515E+02 -0.19949437577E+02  0.29792617450E+02  0.00000000000E+00 0. -1.
</event>
<event>
 7    1  0.2318319E-009  0.4778727E+02  0.7816164E-02  0.1312668E+00
        -11   -1    0    0    0    0  0.00000000000E+00  0.00000000000E+00  0.45593999997E+02  0.45594000000E+02  0.51100000000E-03 0.  1.
         11   -1    0    0    0    0 -0.00000000000E+00 -0.00000000000E+00 -0.45593999997E+02  0.45594000000E+02  0.51100000000E-03 0. -1.
    9900012    2    1    2    0    0  0.35335583997E+02  0.11723866578E+02  0.22306291947E+02  0.47787271845E+02  0.20000003649E+02 0.  0.
         12    1    1    2    0    0 -0.35335583997E+02 -0.11723866578E+02 -0.22306291947E+02  0.43400728155E+02  0.00000000000E+00 0. -1.
         11    1    3    3    0    0  0.11763144070E+02  0.10117626389E+01  0.39194678381E+01  0.12440154760E+02  0.51100000000E-03 0. -1.
        -11    1    3    3    0    0  0.68665801565E+01 -0.33474174327E+01  0.83464978976E+01  0.11314554959E+02  0.51100000000E-03 0.  1.
         12    1    3    3    0    0  0.16705859771E+02  0.14059521372E+02  0.10040326211E+02  0.24032562125E+02  0.00000000000E+00 0. -1.
</event>
<event>
 7    1  0.2318319E-009  0.4778727E+02  0.7816164E-02  0.1312668E+00
        -11   -1    0    0    0    0  0.00000000000E+00  0.00000000000E+00  0.45593999997E+02  0.45594000000E+02  0.51100000000E-03 0.  1.
         11   -1    0    0    0    0 -0.00000000000E+00 -0.00000000000E+00 -0.45593999997E+02  0.45594000000E+02  0.51100000000E-03 0. -1.
    9900012    2    1    2    0    0 -0.57419255957E+01  0.42195510714E+02 -0.83780965759E+01  0.47787270326E+02  0.19999996725E+02 0.  0.
         12    1    1    2    0    0  0.57419255957E+01 -0.42195510714E+02  0.83780965759E+01  0.43400729674E+02  0.00000000000E+00 0. -1.
         11    1    3    3    0    0 -0.53411744172E+00 -0.27921943675E+00 -0.64721013038E+00  0.88437896255E+00  0.51100000000E-03 0. -1.
        -11    1    3    3    0    0  0.25581634212E+01  0.35786524505E+02 -0.74884280570E+01  0.36651003960E+02  0.51100000000E-03 0.  1.
        -12    1    3    3    0    0 -0.77659715752E+01  0.66882056458E+01 -0.24245838849E+00  0.10251887404E+02  0.00000000000E+00 0.  1.
</event>
<event>
 7    1  0.2318319E-009  0.4778727E+02  0.7816164E-02  0.1312668E+00
        -11   -1    0    0    0    0  0.00000000000E+00  0.00000000000E+00  0.45593999997E+02  0.45594000000E+02  0.51100000000E-03 0.  1.
         11   -1    0    0    0    0 -0.00000000000E+00 -0.00000000000E+00 -0.45593999997E+02  0.45594000000E+02  0.51100000000E-03 0. -1.
    9900012    2    1    2    0    0 -0.15044815859E+02 -0.40276527396E+02 -0.59227022590E+01  0.47787267917E+02  0.19999985739E+02 0.  0.
         12    1    1    2    0    0  0.15044815859E+02  0.40276527396E+02  0.59227022590E+01  0.43400732083E+02  0.00000000000E+00 0. -1.
         11    1    3    3    0    0 -0.70035527972E+01 -0.40436341367E+01  0.33375107039E-01  0.80871405932E+01  0.51100000000E-03 0. -1.
        -11    1    3    3    0    0 -0.43116649023E+01 -0.24937721252E+01  0.92238891909E+00  0.50655853780E+01  0.51100000000E-03 0.  1.
         12    1    3    3    0    0 -0.37295981594E+01 -0.33739121134E+02 -0.68784662851E+01  0.34634541946E+02  0.00000000000E+00 0. -1.
</event>
<event>
 7    1  0.2318319E-009  0.4778726E+02  0.7816164E-02  0.1312668E+00
        -11   -1    0    0    0    0  0.00000000000E+00  0.00000000000E+00  0.45593999997E+02  0.45594000000E+02  0.51100000000E-03 0.  1.
         11   -1    0    0    0    0 -0.00000000000E+00 -0.00000000000E+00 -0.45593999997E+02  0.45594000000E+02  0.51100000000E-03 0. -1.
    9900012    2    1    2    0    0 -0.40849325762E+02  0.78208426558E+01  0.12401248511E+02  0.47787263144E+02  0.19999963976E+02 0.  0.
         12    1    1    2    0    0  0.40849325762E+02 -0.78208426558E+01 -0.12401248511E+02  0.43400736856E+02  0.00000000000E+00 0. -1.
         11    1    3    3    0    0 -0.98427673776E+01  0.79920172735E+01  0.57324937436E+01  0.13914520995E+02  0.51100000000E-03 0. -1.
        -11    1    3    3    0    0  0.63214215322E-01 -0.11619142220E+01 -0.13373685721E+01  0.17727367698E+01  0.51100000000E-03 0.  1.
        -12    1    3    3    0    0 -0.31069772600E+02  0.99073960424E+00  0.80061233395E+01  0.32100005378E+02  0.00000000000E+00 0.  1.
</event>
<event>
 7    1  0.2318319E-009  0.4778727E+02  0.7816164E-02  0.1312668E+00
        -11   -1    0    0    0    0  0.00000000000E+00  0.00000000000E+00  0.45593999997E+02  0.45594000000E+02  0.51100000000E-03 0. -1.
         11   -1    0    0    0    0 -0.00000000000E+00 -0.00000000000E+00 -0.45593999997E+02  0.45594000000E+02  0.51100000000E-03 0.  1.
    9900012    2    1    2    0    0 -0.19682032503E+02 -0.27154412011E+02 -0.27547752337E+02  0.47787272427E+02  0.20000006302E+02 0.  0.
         12    1    1    2    0    0  0.19682032503E+02  0.27154412011E+02  0.27547752337E+02  0.43400727573E+02  0.00000000000E+00 0. -1.
         11    1    3    3    0    0 -0.80507282300E+01 -0.13079893563E+02 -0.16130729538E+02  0.22273263711E+02  0.51100000000E-03 0. -1.
        -11    1    3    3    0    0 -0.10919306275E+02 -0.16728806053E+02 -0.10751123872E+02  0.22686358594E+02  0.51100000000E-03 0.  1.
         12    1    3    3    0    0 -0.71199799806E+00  0.26542876040E+01 -0.66589892651E+00  0.28276501223E+01  0.00000000000E+00 0. -1.
</event>
<event>
 7    1  0.2318319E-009  0.4778727E+02  0.7816164E-02  0.1312668E+00
        -11   -1    0    0    0    0  0.00000000000E+00  0.00000000000E+00  0.45593999997E+02  0.45594000000E+02  0.51100000000E-03 0.  1.
         11   -1    0    0    0    0 -0.00000000000E+00 -0.00000000000E+00 -0.45593999997E+02  0.45594000000E+02  0.51100000000E-03 0. -1.
    9900012    2    1    2    0    0  0.45483792728E+01  0.13309913222E+02  0.41058271871E+02  0.47787271515E+02  0.20000002144E+02 0.  0.
         12    1    1    2    0    0 -0.45483792728E+01 -0.13309913222E+02 -0.41058271871E+02  0.43400728485E+02  0.00000000000E+00 0. -1.
         11    1    3    3    0    0 -0.19487132913E+01  0.87941973540E+00 -0.12690212266E+01  0.24862175483E+01  0.51100000000E-03 0. -1.
        -11    1    3    3    0    0  0.45224878424E+01  0.36589069382E+01  0.85054119101E+01  0.10304490686E+02  0.51100000000E-03 0.  1.
        -12    1    3    3    0    0  0.19746047217E+01  0.87715865485E+01  0.33821881188E+02  0.34996563281E+02  0.00000000000E+00 0.  1.
</event>
<event>
 7    1  0.2318319E-009  0.4778723E+02  0.7816164E-02  0.1312668E+00
        -11   -1    0    0    0    0  0.00000000000E+00  0.00000000000E+00  0.45593999997E+02  0.45594000000E+02  0.51100000000E-03 0.  1.
         11   -1    0    0    0    0 -0.00000000000E+00 -0.00000000000E+00 -0.45593999997E+02  0.45594000000E+02  0.51100000000E-03 0. -1.
    9900012    2    1    2    0    0 -0.41561659425E+02 -0.85638585505E+01 -0.91057948974E+01  0.47787231480E+02  0.19999819609E+02 0.  0.
         12    1    1    2    0    0  0.41561659425E+02  0.85638585505E+01  0.91057948974E+01  0.43400768520E+02  0.00000000000E+00 0. -1.
         11    1    3    3    0    0 -0.20094834701E+00 -0.16741678150E+01  0.24360071669E+01  0.29626591584E+01  0.51100000000E-03 0. -1.
        -11    1    3    3    0    0  0.94044339554E-01 -0.12724546528E+01  0.36933519897E+00  0.13283049091E+01  0.51100000000E-03 0.  1.
        -12    1    3    3    0    0 -0.41454755417E+02 -0.56172360827E+01 -0.11911137263E+02  0.43496267412E+02  0.00000000000E+00 0.  1.
</event>
<event>
 7    1  0.2318319E-009  0.4778727E+02  0.7816164E-02  0.1312668E+00
        -11   -1    0    0    0    0  0.00000000000E+00  0.00000000000E+00  0.45593999997E+02  0.45594000000E+02  0.51100000000E-03 0.  1.
         11   -1    0    0    0    0 -0.00000000000E+00 -0.00000000000E+00 -0.45593999997E+02  0.45594000000E+02  0.51100000000E-03 0. -1.
    9900012    2    1    2    0    0  0.19661224604E+02  0.38659769467E+02 -0.15753769612E+01  0.47787270274E+02  0.19999996486E+02 0.  0.
         12    1    1    2    0    0 -0.19661224604E+02 -0.38659769467E+02  0.15753769612E+01  0.43400729726E+02  0.00000000000E+00 0. -1.
         11    1    3    3    0    0  0.71831074505E+01  0.22408241067E+02  0.20049702990E+00  0.23532243830E+02  0.51100000000E-03 0. -1.
        -11    1    3    3    0    0  0.99976182589E+01  0.17698974182E+02  0.87554652640E+00  0.20346317601E+02  0.51100000000E-03 0.  1.
         12    1    3    3    0    0  0.24804988946E+01 -0.14474457814E+01 -0.26514205175E+01  0.39087088427E+01  0.00000000000E+00 0. -1.
</event>
<event>
 7    1  0.2318319E-009  0.4778727E+02  0.7816164E-02  0.1312668E+00
        -11   -1    0    0    0    0  0.00000000000E+00  0.00000000000E+00  0.45593999997E+02  0.45594000000E+02  0.51100000000E-03 0. -1.
         11   -1    0    0    0    0 -0.00000000000E+00 -0.00000000000E+00 -0.45593999997E+02  0.45594000000E+02  0.51100000000E-03 0.  1.
    9900012    2    1    2    0    0 -0.30065686043E+01 -0.23367506784E+02 -0.36449191977E+02  0.47787269316E+02  0.19999992121E+02 0.  0.
         12    1    1    2    0    0  0.30065686043E+01  0.23367506784E+02  0.36449191977E+02  0.43400730684E+02  0.00000000000E+00 0. -1.
         11    1    3    3    0    0 -0.15220788224E+00  0.11284359367E+01 -0.53122228577E+01  0.54328856838E+01  0.51100000000E-03 0. -1.
        -11    1    3    3    0    0  0.15673430803E+01 -0.13846888074E+02 -0.26472054961E+02  0.29915924987E+02  0.51100000000E-03 0.  1.
        -12    1    3    3    0    0 -0.44217038023E+01 -0.10649054646E+02 -0.46649141583E+01  0.12438458646E+02  0.00000000000E+00 0.  1.
</event>
<event>
 7    1  0.2318319E-009  0.4778727E+02  0.7816164E-02  0.1312668E+00
        -11   -1    0    0    0    0  0.00000000000E+00  0.00000000000E+00  0.45593999997E+02  0.45594000000E+02  0.51100000000E-03 0.  1.
         11   -1    0    0    0    0 -0.00000000000E+00 -0.00000000000E+00 -0.45593999997E+02  0.45594000000E+02  0.51100000000E-03 0. -1.
    9900012    2    1    2    0    0  0.14191449176E+02  0.29418878130E+02  0.28578941038E+02  0.47787268543E+02  0.19999988593E+02 0.  0.
         12    1    1    2    0    0 -0.14191449176E+02 -0.29418878130E+02 -0.28578941038E+02  0.43400731457E+02  0.00000000000E+00 0. -1.
         11    1    3    3    0    0  0.17842891062E+01  0.11201371471E+02  0.22845739383E+01  0.11570379803E+02  0.51100000000E-03 0. -1.
        -11    1    3    3    0    0  0.90214147844E+01  0.71681014730E+01  0.63241520723E+01  0.13143915061E+02  0.51100000000E-03 0.  1.
         12    1    3    3    0    0  0.33857452857E+01  0.11049405186E+02  0.19970215028E+02  0.23072973678E+02  0.00000000000E+00 0. -1.
</event>
<event>
 7    1  0.2318319E-009  0.4778727E+02  0.7816164E-02  0.1312668E+00
        -11   -1    0    0    0    0  0.00000000000E+00  0.00000000000E+00  0.45593999997E+02  0.45594000000E+02  0.51100000000E-03 0. -1.
         11   -1    0    0    0    0 -0.00000000000E+00 -0.00000000000E+00 -0.45593999997E+02  0.45594000000E+02  0.51100000000E-03 0.  1.
    9900012    2    1    2    0    0 -0.13127244850E+02  0.23854828808E+02 -0.33797127471E+02  0.47787271433E+02  0.20000001773E+02 0.  0.
         12    1    1    2    0    0  0.13127244850E+02 -0.23854828808E+02  0.33797127471E+02  0.43400728567E+02  0.00000000000E+00 0. -1.
         11    1    3    3    0    0  0.48737857425E+01  0.43229278709E+01 -0.96092483316E+01  0.11609442131E+02  0.51100000000E-03 0. -1.
        -11    1    3    3    0    0 -0.91535543547E+01  0.11805313184E+02 -0.11232749566E+02  0.18690308713E+02  0.51100000000E-03 0.  1.
        -12    1    3    3    0    0 -0.88474762382E+01  0.77265877532E+01 -0.12955129573E+02  0.17487520589E+02  0.00000000000E+00 0.  1.
</event>
<event>
 7    1  0.2318319E-009  0.4778727E+02  0.7816164E-02  0.1312668E+00
        -11   -1    0    0    0    0  0.00000000000E+00  0.00000000000E+00  0.45593999997E+02  0.45594000000E+02  0.51100000000E-03 0. -1.
         11   -1    0    0    0    0 -0.00000000000E+00 -0.00000000000E+00 -0.45593999997E+02  0.45594000000E+02  0.51100000000E-03 0.  1.
    9900012    2    1    2    0    0  0.13379991533E+01 -0.37134517210E+02  0.22424565782E+02  0.47787265436E+02  0.19999974429E+02 0.  0.
         12    1    1    2    0    0 -0.13379991533E+01  0.37134517210E+02 -0.22424565782E+02  0.43400734564E+02  0.00000000000E+00 0. -1.
         11    1    3    3    0    0 -0.13946646459E+01 -0.14323041478E+02  0.35891628313E+01  0.14831611401E+02  0.51100000000E-03 0. -1.
        -11    1    3    3    0    0  0.59458977418E+01 -0.22814668223E+02  0.14964545569E+02  0.27924906632E+02  0.51100000000E-03 0.  1.
         12    1    3    3    0    0 -0.32132339426E+01  0.31924903359E-02  0.38708573819E+01  0.50307474030E+01  0.00000000000E+00 0. -1.
</event>
<event>
 7    1  0.2318319E-009  0.4778727E+02  0.7816164E-02  0.1312668E+00
        -11   -1    0    0    0    0  0.00000000000E+00  0.00000000000E+00  0.45593999997E+02  0.45594000000E+02  0.51100000000E-03 0. -1.
         11   -1    0    0    0    0 -0.00000000000E+00 -0.00000000000E+00 -0.45593999997E+02  0.45594000000E+02  0.51100000000E-03 0.  1.
    9900012    2    1    2    0    0  0.34005050748E+02  0.22613750179E+02  0.14693488439E+02  0.47787265259E+02  0.19999973621E+02 0.  0.
         12    1    1    2    0    0 -0.34005050748E+02 -0.22613750179E+02 -0.14693488439E+02  0.43400734741E+02  0.00000000000E+00 0. -1.
         11    1    3    3    0    0  0.67278054378E+00  0.19006198276E+01  0.40592652582E+01  0.45323971678E+01  0.51100000000E-03 0. -1.
        -11    1    3    3    0    0  0.12745189903E+02  0.49214809622E-01  0.37321039579E+01  0.13280470171E+02  0.51100000000E-03 0.  1.
         12    1    3    3    0    0  0.20587080302E+02  0.20663915542E+02  0.69021192229E+01  0.29974397920E+02  0.00000000000E+00 0. -1.
</event>
<event>
 7    1  0.2318319E-009  0.4778727E+02  0.7816164E-02  0.1312668E+00
        -11   -1    0    0    0    0  0.00000000000E+00  0.00000000000E+00  0.45593999997E+02  0.45594000000E+02  0.51100000000E-03 0.  1.
         11   -1    0    0    0    0 -0.00000000000E+00 -0.00000000000E+00 -0.45593999997E+02  0.45594000000E+02  0.51100000000E-03 0. -1.
    9900012    2    1    2    0    0 -0.86845302419E+01 -0.35312871795E+02  0.23689732042E+02  0.47787269774E+02  0.19999994208E+02 0.  0.
         12    1    1    2    0    0  0.86845302419E+01  0.35312871795E+02 -0.23689732042E+02  0.43400730226E+02  0.00000000000E+00 0. -1.
         11    1    3    3    0    0 -0.55924536919E+01 -0.95133609260E+01  0.41613801061E+01  0.11793924667E+02  0.51100000000E-03 0. -1.
        -11    1    3    3    0    0 -0.55020668102E+01 -0.15970453596E+02  0.38377249408E+01  0.17322132092E+02  0.51100000000E-03 0.  1.
         12    1    3    3    0    0  0.24099902602E+01 -0.98290572728E+01  0.15690626995E+02  0.18671213015E+02  0.00000000000E+00 0. -1.
</event>
<event>
 7    1  0.2318319E-009  0.4778727E+02  0.7816164E-02  0.1312668E+00
        -11   -1    0    0    0    0  0.00000000000E+00  0.00000000000E+00  0.45593999997E+02  0.45594000000E+02  0.51100000000E-03 0. -1.
         11   -1    0    0    0    0 -0.00000000000E+00 -0.00000000000E+00 -0.45593999997E+02  0.45594000000E+02  0.51100000000E-03 0.  1.
    9900012    2    1    2    0    0 -0.40772318665E+02 -0.13843364774E+02 -0.54408308904E+01  0.47787270071E+02  0.19999995560E+02 0.  0.
         12    1    1    2    0    0  0.40772318665E+02  0.13843364774E+02  0.54408308904E+01  0.43400729929E+02  0.00000000000E+00 0. -1.
         11    1    3    3    0    0 -0.83844311558E+01 -0.10233468761E+01 -0.16822773400E+00  0.84483267851E+01  0.51100000000E-03 0. -1.
        -11    1    3    3    0    0 -0.31558989225E+02 -0.60321850636E+01 -0.47670736885E+01  0.32482026559E+02  0.51100000000E-03 0.  1.
         12    1    3    3    0    0 -0.82889828435E+00 -0.67878328346E+01 -0.50552946796E+00  0.68569167269E+01  0.00000000000E+00 0. -1.
</event>
<event>
 7    1  0.2318319E-009  0.4778727E+02  0.7816164E-02  0.1312668E+00
        -11   -1    0    0    0    0  0.00000000000E+00  0.00000000000E+00  0.45593999997E+02  0.45594000000E+02  0.51100000000E-03 0.  1.
         11   -1    0    0    0    0 -0.00000000000E+00 -0.00000000000E+00 -0.45593999997E+02  0.45594000000E+02  0.51100000000E-03 0. -1.
    9900012    2    1    2    0    0  0.36074482511E+02 -0.97977096525E+01  0.22051302592E+02  0.47787270180E+02  0.19999996059E+02 0.  0.
         12    1    1    2    0    0 -0.36074482511E+02  0.97977096525E+01 -0.22051302592E+02  0.43400729820E+02  0.00000000000E+00 0. -1.
         11    1    3    3    0    0  0.80137079545E+01  0.32143969176E+01 -0.17508719954E+00  0.86361170970E+01  0.51100000000E-03 0. -1.
        -11    1    3    3    0    0  0.80409441766E+01 -0.20401375842E+01  0.17371549650E+01  0.84756505501E+01  0.51100000000E-03 0.  1.
        -12    1    3    3    0    0  0.20019830380E+02 -0.10971968986E+02  0.20489234827E+02  0.30675502533E+02  0.00000000000E+00 0.  1.
</event>
<event>
 7    1  0.2318319E-009  0.4778727E+02  0.7816164E-02  0.1312668E+00
        -11   -1    0    0    0    0  0.00000000000E+00  0.00000000000E+00  0.45593999997E+02  0.45594000000E+02  0.51100000000E-03 0. -1.
         11   -1    0    0    0    0 -0.00000000000E+00 -0.00000000000E+00 -0.45593999997E+02  0.45594000000E+02  0.51100000000E-03 0.  1.
    9900012    2    1    2    0    0 -0.42087264233E+02  0.27990627934E-01  0.10596440830E+02  0.47787272445E+02  0.20000006385E+02 0.  0.
         12    1    1    2    0    0  0.42087264233E+02 -0.27990627934E-01 -0.10596440830E+02  0.43400727555E+02  0.00000000000E+00 0. -1.
         11    1    3    3    0    0 -0.90704626891E+01 -0.25901111105E+01 -0.39316122884E+01  0.10219566743E+02  0.51100000000E-03 0. -1.
        -11    1    3    3    0    0 -0.20734830289E+02  0.27716378001E+01  0.38046141164E+01  0.21262414069E+02  0.51100000000E-03 0.  1.
        -12    1    3    3    0    0 -0.12281971254E+02 -0.15353606168E+00  0.10723439002E+02  0.16305291633E+02  0.00000000000E+00 0.  1.
</event>
<event>
 7    1  0.2318319E-009  0.4778727E+02  0.7816164E-02  0.1312668E+00
        -11   -1    0    0    0    0  0.00000000000E+00  0.00000000000E+00  0.45593999997E+02  0.45594000000E+02  0.51100000000E-03 0. -1.
         11   -1    0    0    0    0 -0.00000000000E+00 -0.00000000000E+00 -0.45593999997E+02  0.45594000000E+02  0.51100000000E-03 0.  1.
    9900012    2    1    2    0    0 -0.76557280183E+01 -0.37233991732E+02 -0.20943797633E+02  0.47787274533E+02  0.20000015905E+02 0.  0.
         12    1    1    2    0    0  0.76557280183E+01  0.37233991732E+02  0.20943797633E+02  0.43400725467E+02  0.00000000000E+00 0. -1.
         11    1    3    3    0    0  0.26937572166E+01 -0.21982803199E+02 -0.12148027207E+02  0.25260137167E+02  0.51100000000E-03 0. -1.
        -11    1    3    3    0    0 -0.34354763777E+01 -0.11172843228E+02 -0.85746180757E+01  0.14496861700E+02  0.51100000000E-03 0.  1.
        -12    1    3    3    0    0 -0.69140088571E+01 -0.40783453047E+01 -0.22115235042E+00  0.80302756654E+01  0.00000000000E+00 0.  1.
</event>
<event>
 7    1  0.2318319E-009  0.4778729E+02  0.7816164E-02  0.1312668E+00
        -11   -1    0    0    0    0  0.00000000000E+00  0.00000000000E+00  0.45593999997E+02  0.45594000000E+02  0.51100000000E-03 0. -1.
         11   -1    0    0    0    0 -0.00000000000E+00 -0.00000000000E+00 -0.45593999997E+02  0.45594000000E+02  0.51100000000E-03 0.  1.
    9900012    2    1    2    0    0  0.28817751193E+02  0.27364819426E+02 -0.17444938622E+02  0.47787285610E+02  0.20000066410E+02 0.  0.
         12    1    1    2    0    0 -0.28817751193E+02 -0.27364819426E+02  0.17444938622E+02  0.43400714390E+02  0.00000000000E+00 0. -1.
         11    1    3    3    0    0  0.15287108571E+01  0.51205096077E+01  0.26359859455E+01  0.59586070263E+01  0.51100000000E-03 0. -1.
        -11    1    3    3    0    0  0.13020535385E+02  0.10774152952E+02 -0.37841189022E+01  0.17318668242E+02  0.51100000000E-03 0.  1.
         12    1    3    3    0    0  0.14268504951E+02  0.11470156867E+02 -0.16296805665E+02  0.24510010342E+02  0.00000000000E+00 0. -1.
</event>
<event>
 7    1  0.2318319E-009  0.4778729E+02  0.7816164E-02  0.1312668E+00
        -11   -1    0    0    0    0  0.00000000000E+00  0.00000000000E+00  0.45593999997E+02  0.45594000000E+02  0.51100000000E-03 0.  1.
         11   -1    0    0    0    0 -0.00000000000E+00 -0.00000000000E+00 -0.45593999997E+02  0.45594000000E+02  0.51100000000E-03 0. -1.
    9900012    2    1    2    0    0 -0.26041790487E+02 -0.65346232274E+01  0.34099058067E+02  0.47787286716E+02  0.20000071452E+02 0.  0.
         12    1    1    2    0    0  0.26041790487E+02  0.65346232274E+01 -0.34099058067E+02  0.43400713284E+02  0.00000000000E+00 0. -1.
         11    1    3    3    0    0 -0.13953345186E+02 -0.71960465764E+01  0.64312146591E+01  0.16965831853E+02  0.51100000000E-03 0. -1.
        -11    1    3    3    0    0 -0.81016656805E+01 -0.24633582384E+01  0.16034134912E+02  0.18132804616E+02  0.51100000000E-03 0.  1.
         12    1    3    3    0    0 -0.39867796203E+01  0.31247815874E+01  0.11633708496E+02  0.12688650247E+02  0.00000000000E+00 0. -1.
</event>
<event>
 7    1  0.2318319E-009  0.4778727E+02  0.7816164E-02  0.1312668E+00
        -11   -1    0    0    0    0  0.00000000000E+00  0.00000000000E+00  0.45593999997E+02  0.45594000000E+02  0.51100000000E-03 0. -1.
         11   -1    0    0    0    0 -0.00000000000E+00 -0.00000000000E+00 -0.45593999997E+02  0.45594000000E+02  0.51100000000E-03 0.  1.
    9900012    2    1    2    0    0  0.24453023529E+02 -0.85129705325E+01 -0.34831053410E+02  0.47787270644E+02  0.19999998172E+02 0.  0.
         12    1    1    2    0    0 -0.24453023529E+02  0.85129705325E+01  0.34831053410E+02  0.43400729356E+02  0.00000000000E+00 0. -1.
         11    1    3    3    0    0  0.75958895252E+01 -0.89360945265E+00  0.25108063078E+00  0.76523929119E+01  0.51100000000E-03 0. -1.
        -11    1    3    3    0    0  0.27682546575E+01 -0.18027133519E+01 -0.12211263102E+02  0.12650215653E+02  0.51100000000E-03 0.  1.
        -12    1    3    3    0    0  0.14088879346E+02 -0.58166477280E+01 -0.22870870940E+02  0.27484662078E+02  0.00000000000E+00 0.  1.
</event>
<event>
 7    1  0.2318319E-009  0.4778727E+02  0.7816164E-02  0.1312668E+00
        -11   -1    0    0    0    0  0.00000000000E+00  0.00000000000E+00  0.45593999997E+02  0.45594000000E+02  0.51100000000E-03 0.  1.
         11   -1    0    0    0    0 -0.00000000000E+00 -0.00000000000E+00 -0.45593999997E+02  0.45594000000E+02  0.51100000000E-03 0. -1.
    9900012    2    1    2    0    0 -0.57654310460E+01 -0.43013082058E+02 -0.50798594381E+00  0.47787268750E+02  0.19999989540E+02 0.  0.
         12    1    1    2    0    0  0.57654310460E+01  0.43013082058E+02  0.50798594381E+00  0.43400731250E+02  0.00000000000E+00 0. -1.
         11    1    3    3    0    0  0.35667971541E+01 -0.11987049493E+02 -0.10494846679E+01  0.12550410982E+02  0.51100000000E-03 0.  1.
        -11    1    3    3    0    0  0.39819471047E+00 -0.49165190439E+00  0.30278566448E+01  0.30932501911E+01  0.51100000000E-03 0. -1.
         12    1    3    3    0    0 -0.97304229106E+01 -0.30534380661E+02 -0.24863579207E+01  0.32143607577E+02  0.00000000000E+00 0. -1.
</event>
<event>
 7    1  0.2318319E-009  0.4778727E+02  0.7816164E-02  0.1312668E+00
        -11   -1    0    0    0    0  0.00000000000E+00  0.00000000000E+00  0.45593999997E+02  0.45594000000E+02  0.51100000000E-03 0. -1.
         11   -1    0    0    0    0 -0.00000000000E+00 -0.00000000000E+00 -0.45593999997E+02  0.45594000000E+02  0.51100000000E-03 0.  1.
    9900012    2    1    2    0    0 -0.23255667974E+02  0.11081853521E+01 -0.36627432446E+02  0.47787274485E+02  0.20000015685E+02 0.  0.
         12    1    1    2    0    0  0.23255667974E+02 -0.11081853521E+01  0.36627432446E+02  0.43400725515E+02  0.00000000000E+00 0. -1.
         11    1    3    3    0    0  0.40974142295E-01 -0.27018436322E+01 -0.41357756661E+01  0.49402710973E+01  0.51100000000E-03 0. -1.
        -11    1    3    3    0    0 -0.14864916190E+02  0.38417551897E+01 -0.30555233486E+02  0.34195717714E+02  0.51100000000E-03 0.  1.
        -12    1    3    3    0    0 -0.84317259256E+01 -0.31726205324E-01 -0.19364232935E+01  0.86512856737E+01  0.00000000000E+00 0.  1.
</event>
<event>
 7    1  0.2318319E-009  0.4778727E+02  0.7816164E-02  0.1312668E+00
        -11   -1    0    0    0    0  0.00000000000E+00  0.00000000000E+00  0.45593999997E+02  0.45594000000E+02  0.51100000000E-03 0.  1.
         11   -1    0    0    0    0 -0.00000000000E+00 -0.00000000000E+00 -0.45593999997E+02  0.45594000000E+02  0.51100000000E-03 0. -1.
    9900012    2    1    2    0    0 -0.32844090080E+02 -0.28299800925E+02  0.20025022308E+01  0.47787274190E+02  0.20000014344E+02 0.  0.
         12    1    1    2    0    0  0.32844090080E+02  0.28299800925E+02 -0.20025022308E+01  0.43400725810E+02  0.00000000000E+00 0. -1.
         11    1    3    3    0    0 -0.11855646413E+01 -0.23052870669E+01 -0.25006787814E+01  0.36018476658E+01  0.51100000000E-03 0. -1.
        -11    1    3    3    0    0 -0.64996517847E+01 -0.10108529071E+02  0.76793289661E+01  0.14261834627E+02  0.51100000000E-03 0.  1.
        -12    1    3    3    0    0 -0.25158873654E+02 -0.15885984788E+02 -0.31761479540E+01  0.29923591898E+02  0.00000000000E+00 0.  1.
</event>
<event>
 7    1  0.2318319E-009  0.4778727E+02  0.7816164E-02  0.1312668E+00
        -11   -1    0    0    0    0  0.00000000000E+00  0.00000000000E+00  0.45593999997E+02  0.45594000000E+02  0.51100000000E-03 0. -1.
         11   -1    0    0    0    0 -0.00000000000E+00 -0.00000000000E+00 -0.45593999997E+02  0.45594000000E+02  0.51100000000E-03 0.  1.
    9900012    2    1    2    0    0  0.82997489585E+01  0.43303506293E+01 -0.42379066331E+02  0.47787273826E+02  0.20000012682E+02 0.  0.
         12    1    1    2    0    0 -0.82997489585E+01 -0.43303506293E+01  0.42379066331E+02  0.43400726174E+02  0.00000000000E+00 0. -1.
         11    1    3    3    0    0  0.30970762515E+01  0.70846793219E+01 -0.21047450343E+02  0.22422750246E+02  0.51100000000E-03 0. -1.
        -11    1    3    3    0    0 -0.36581394401E+01 -0.31116589913E+01 -0.64599713571E+01  0.80495736556E+01  0.51100000000E-03 0.  1.
         12    1    3    3    0    0  0.88608121471E+01  0.35733029877E+00 -0.14871644631E+02  0.17314949924E+02  0.00000000000E+00 0. -1.
</event>
<event>
 7    1  0.2318319E-009  0.4778727E+02  0.7816164E-02  0.1312668E+00
        -11   -1    0    0    0    0  0.00000000000E+00  0.00000000000E+00  0.45593999997E+02  0.45594000000E+02  0.51100000000E-03 0. -1.
         11   -1    0    0    0    0 -0.00000000000E+00 -0.00000000000E+00 -0.45593999997E+02  0.45594000000E+02  0.51100000000E-03 0.  1.
    9900012    2    1    2    0    0  0.17543738452E+02 -0.39322691797E+02 -0.54375145112E+01  0.47787269440E+02  0.19999992686E+02 0.  0.
         12    1    1    2    0    0 -0.17543738452E+02  0.39322691797E+02  0.54375145112E+01  0.43400730560E+02  0.00000000000E+00 0. -1.
         11    1    3    3    0    0  0.34786766594E+01 -0.88475563622E+01  0.45156007132E+01  0.10524784793E+02  0.51100000000E-03 0.  1.
        -11    1    3    3    0    0  0.16289260401E+02 -0.25014658234E+02 -0.95970832175E+01  0.31355655591E+02  0.51100000000E-03 0. -1.
         12    1    3    3    0    0 -0.22241986082E+01 -0.54604772008E+01 -0.35603200687E+00  0.59068290562E+01  0.00000000000E+00 0. -1.
</event>
<event>
 7    1  0.2318319E-009  0.4778727E+02  0.7816164E-02  0.1312668E+00
        -11   -1    0    0    0    0  0.00000000000E+00  0.00000000000E+00  0.45593999997E+02  0.45594000000E+02  0.51100000000E-03 0. -1.
         11   -1    0    0    0    0 -0.00000000000E+00 -0.00000000000E+00 -0.45593999997E+02  0.45594000000E+02  0.51100000000E-03 0.  1.
    9900012    2    1    2    0    0  0.41388350863E+02 -0.11928426101E+02 -0.53235740650E+01  0.47787269854E+02  0.19999994572E+02 0.  0.
         12    1    1    2    0    0 -0.41388350863E+02  0.11928426101E+02  0.53235740650E+01  0.43400730146E+02  0.00000000000E+00 0. -1.
         11    1    3    3    0    0  0.18096069852E+02 -0.22729698455E+01  0.24489035161E+01  0.18401936439E+02  0.51100000000E-03 0. -1.
        -11    1    3    3    0    0  0.13978620773E+02 -0.96448302619E+01  0.40977351971E+00  0.16988010598E+02  0.51100000000E-03 0.  1.
         12    1    3    3    0    0  0.93136602382E+01 -0.10625993302E-01 -0.81822511009E+01  0.12397322817E+02  0.00000000000E+00 0. -1.
</event>
<event>
 7    1  0.2318319E-009  0.4778727E+02  0.7816164E-02  0.1312668E+00
        -11   -1    0    0    0    0  0.00000000000E+00  0.00000000000E+00  0.45593999997E+02  0.45594000000E+02  0.51100000000E-03 0.  1.
         11   -1    0    0    0    0 -0.00000000000E+00 -0.00000000000E+00 -0.45593999997E+02  0.45594000000E+02  0.51100000000E-03 0. -1.
    9900012    2    1    2    0    0 -0.97547585454E+01  0.32190718374E+02  0.27426734662E+02  0.47787269154E+02  0.19999991382E+02 0.  0.
         12    1    1    2    0    0  0.97547585454E+01 -0.32190718374E+02 -0.27426734662E+02  0.43400730846E+02  0.00000000000E+00 0. -1.
         11    1    3    3    0    0 -0.22361790132E+01  0.17295954266E+01  0.47466217792E+01  0.55247095395E+01  0.51100000000E-03 0. -1.
        -11    1    3    3    0    0 -0.27418502683E+01  0.30217874864E+02  0.21891862858E+02  0.37415122128E+02  0.51100000000E-03 0.  1.
        -12    1    3    3    0    0 -0.47767292639E+01  0.24324808392E+00  0.78825002434E+00  0.48474374871E+01  0.00000000000E+00 0.  1.
</event>
<event>
 7    1  0.2318319E-009  0.4778727E+02  0.7816164E-02  0.1312668E+00
        -11   -1    0    0    0    0  0.00000000000E+00  0.00000000000E+00  0.45593999997E+02  0.45594000000E+02  0.51100000000E-03 0. -1.
         11   -1    0    0    0    0 -0.00000000000E+00 -0.00000000000E+00 -0.45593999997E+02  0.45594000000E+02  0.51100000000E-03 0.  1.
    9900012    2    1    2    0    0  0.28413507307E+02 -0.13640847650E+01 -0.32778577003E+02  0.47787271492E+02  0.20000002040E+02 0.  0.
         12    1    1    2    0    0 -0.28413507307E+02  0.13640847650E+01  0.32778577003E+02  0.43400728508E+02  0.00000000000E+00 0. -1.
         11    1    3    3    0    0  0.18001871639E+01 -0.47050538263E+01 -0.36341550925E+01  0.62117057908E+01  0.51100000000E-03 0. -1.
        -11    1    3    3    0    0  0.18951408162E+02 -0.31650049478E+01 -0.22191480414E+02  0.29353618701E+02  0.51100000000E-03 0.  1.
        -12    1    3    3    0    0  0.76619119812E+01  0.65059740092E+01 -0.69529414962E+01  0.12221947000E+02  0.00000000000E+00 0.  1.
</event>
<event>
 7    1  0.2318319E-009  0.4778727E+02  0.7816164E-02  0.1312668E+00
        -11   -1    0    0    0    0  0.00000000000E+00  0.00000000000E+00  0.45593999997E+02  0.45594000000E+02  0.51100000000E-03 0.  1.
         11   -1    0    0    0    0 -0.00000000000E+00 -0.00000000000E+00 -0.45593999997E+02  0.45594000000E+02  0.51100000000E-03 0. -1.
    9900012    2    1    2    0    0  0.12554509957E+02  0.37510185034E+01  0.41375564387E+02  0.47787272029E+02  0.20000004487E+02 0.  0.
         12    1    1    2    0    0 -0.12554509957E+02 -0.37510185034E+01 -0.41375564387E+02  0.43400727971E+02  0.00000000000E+00 0. -1.
         11    1    3    3    0    0  0.17207781099E+01 -0.29880734281E+01  0.12142565690E+02  0.12622660651E+02  0.51100000000E-03 0. -1.
        -11    1    3    3    0    0 -0.39780531758E+00 -0.44026303899E+00 -0.15282087314E+01  0.16393604857E+01  0.51100000000E-03 0.  1.
        -12    1    3    3    0    0  0.11231537165E+02  0.71793549705E+01  0.30761207429E+02  0.33525250892E+02  0.00000000000E+00 0.  1.
</event>
<event>
 7    1  0.2318319E-009  0.4778727E+02  0.7816164E-02  0.1312668E+00
        -11   -1    0    0    0    0  0.00000000000E+00  0.00000000000E+00  0.45593999997E+02  0.45594000000E+02  0.51100000000E-03 0.  1.
         11   -1    0    0    0    0 -0.00000000000E+00 -0.00000000000E+00 -0.45593999997E+02  0.45594000000E+02  0.51100000000E-03 0. -1.
    9900012    2    1    2    0    0  0.38140134409E+02 -0.52151076317E+01  0.20043863174E+02  0.47787266696E+02  0.19999980175E+02 0.  0.
         12    1    1    2    0    0 -0.38140134409E+02  0.52151076317E+01 -0.20043863174E+02  0.43400733304E+02  0.00000000000E+00 0. -1.
         11    1    3    3    0    0  0.19448555517E+02  0.50798587204E+01  0.88854721613E+01  0.21977326774E+02  0.51100000000E-03 0. -1.
        -11    1    3    3    0    0  0.16369126951E+02 -0.47599556617E+01  0.66307485716E+01  0.18291318211E+02  0.51100000000E-03 0.  1.
        -12    1    3    3    0    0  0.23224519414E+01 -0.55350106905E+01  0.45276424411E+01  0.75186217113E+01  0.00000000000E+00 0.  1.
</event>
<event>
 7    1  0.2318319E-009  0.4778727E+02  0.7816164E-02  0.1312668E+00
        -11   -1    0    0    0    0  0.00000000000E+00  0.00000000000E+00  0.45593999997E+02  0.45594000000E+02  0.51100000000E-03 0.  1.
         11   -1    0    0    0    0 -0.00000000000E+00 -0.00000000000E+00 -0.45593999997E+02  0.45594000000E+02  0.51100000000E-03 0. -1.
    9900012    2    1    2    0    0 -0.16422577338E+02 -0.20589449861E+02  0.34496334100E+02  0.47787267767E+02  0.19999985059E+02 0.  0.
         12    1    1    2    0    0  0.16422577338E+02  0.20589449861E+02 -0.34496334100E+02  0.43400732233E+02  0.00000000000E+00 0. -1.
         11    1    3    3    0    0 -0.12859697514E+01 -0.26193113981E+01  0.57490006527E+01  0.64471326315E+01  0.51100000000E-03 0. -1.
        -11    1    3    3    0    0 -0.17727771713E+02 -0.18059940020E+02  0.29272095062E+02  0.38694842977E+02  0.51100000000E-03 0.  1.
         12    1    3    3    0    0  0.25911641271E+01  0.89801557130E-01 -0.52476161475E+00  0.26452921588E+01  0.00000000000E+00 0. -1.
</event>
<event>
 7    1  0.2318319E-009  0.4778727E+02  0.7816164E-02  0.1312668E+00
        -11   -1    0    0    0    0  0.00000000000E+00  0.00000000000E+00  0.45593999997E+02  0.45594000000E+02  0.51100000000E-03 0.  1.
         11   -1    0    0    0    0 -0.00000000000E+00 -0.00000000000E+00 -0.45593999997E+02  0.45594000000E+02  0.51100000000E-03 0. -1.
    9900012    2    1    2    0    0  0.10227057476E+02  0.43590450509E+01  0.41952701969E+02  0.47787272116E+02  0.20000004887E+02 0.  0.
         12    1    1    2    0    0 -0.10227057476E+02 -0.43590450509E+01 -0.41952701969E+02  0.43400727884E+02  0.00000000000E+00 0. -1.
         11    1    3    3    0    0 -0.11911629728E+01  0.15643447175E+00  0.42619927002E+01  0.44280834465E+01  0.51100000000E-03 0. -1.
        -11    1    3    3    0    0  0.12475880601E+02 -0.37375424088E+01  0.27225632129E+02  0.30180322482E+02  0.51100000000E-03 0.  1.
        -12    1    3    3    0    0 -0.10576601523E+01  0.79401529880E+01  0.10465077139E+02  0.13178866188E+02  0.00000000000E+00 0.  1.
</event>
<event>
 7    1  0.2318319E-009  0.4778725E+02  0.7816164E-02  0.1312668E+00
        -11   -1    0    0    0    0  0.00000000000E+00  0.00000000000E+00  0.45593999997E+02  0.45594000000E+02  0.51100000000E-03 0.  1.
         11   -1    0    0    0    0 -0.00000000000E+00 -0.00000000000E+00 -0.45593999997E+02  0.45594000000E+02  0.51100000000E-03 0. -1.
    9900012    2    1    2    0    0 -0.35600139853E+01 -0.42985300887E+02  0.48182404169E+01  0.47787248479E+02  0.19999897114E+02 0.  0.
         12    1    1    2    0    0  0.35600139853E+01  0.42985300887E+02 -0.48182404169E+01  0.43400751521E+02  0.00000000000E+00 0. -1.
         11    1    3    3    0    0 -0.91448572496E+00 -0.63810524071E+01 -0.49596168788E+01  0.81333826794E+01  0.51100000000E-03 0. -1.
        -11    1    3    3    0    0 -0.18060791296E+00  0.85084890011E+00  0.43485230117E+00  0.97245043781E+00  0.51100000000E-03 0.  1.
        -12    1    3    3    0    0 -0.24649203474E+01 -0.37455097380E+02  0.93430049946E+01  0.38681415362E+02  0.00000000000E+00 0.  1.
</event>
<event>
 7    1  0.2318319E-009  0.4778727E+02  0.7816164E-02  0.1312668E+00
        -11   -1    0    0    0    0  0.00000000000E+00  0.00000000000E+00  0.45593999997E+02  0.45594000000E+02  0.51100000000E-03 0.  1.
         11   -1    0    0    0    0 -0.00000000000E+00 -0.00000000000E+00 -0.45593999997E+02  0.45594000000E+02  0.51100000000E-03 0. -1.
    9900012    2    1    2    0    0  0.22159350605E+02 -0.36760398453E+02  0.64233441714E+01  0.47787273462E+02  0.20000011022E+02 0.  0.
         12    1    1    2    0    0 -0.22159350605E+02  0.36760398453E+02 -0.64233441714E+01  0.43400726538E+02  0.00000000000E+00 0. -1.
         11    1    3    3    0    0  0.59002947163E+01 -0.23785547968E+01  0.39652874180E+01  0.74962994356E+01  0.51100000000E-03 0. -1.
        -11    1    3    3    0    0  0.53535989322E+01 -0.23062768036E+01  0.26698226953E+01  0.64115433171E+01  0.51100000000E-03 0.  1.
         12    1    3    3    0    0  0.10905456957E+02 -0.32075566853E+02 -0.21176594193E+00  0.33879430709E+02  0.00000000000E+00 0. -1.
</event>
<event>
 7    1  0.2318319E-009  0.4778727E+02  0.7816164E-02  0.1312668E+00
        -11   -1    0    0    0    0  0.00000000000E+00  0.00000000000E+00  0.45593999997E+02  0.45594000000E+02  0.51100000000E-03 0.  1.
         11   -1    0    0    0    0 -0.00000000000E+00 -0.00000000000E+00 -0.45593999997E+02  0.45594000000E+02  0.51100000000E-03 0. -1.
    9900012    2    1    2    0    0  0.28127503609E+02 -0.25668550780E+02 -0.20822875098E+02  0.47787273211E+02  0.20000009880E+02 0.  0.
         12    1    1    2    0    0 -0.28127503609E+02  0.25668550780E+02  0.20822875098E+02  0.43400726789E+02  0.00000000000E+00 0. -1.
         11    1    3    3    0    0  0.55313729308E+01 -0.88087365017E+01  0.13506307088E+01  0.10488762026E+02  0.51100000000E-03 0. -1.
        -11    1    3    3    0    0  0.10975551310E+02 -0.13999588886E+02 -0.10934127363E+02  0.20880765240E+02  0.51100000000E-03 0.  1.
        -12    1    3    3    0    0  0.11620579369E+02 -0.28602253917E+01 -0.11239378443E+02  0.16417745946E+02  0.00000000000E+00 0.  1.
</event>
<event>
 7    1  0.2318319E-009  0.4778727E+02  0.7816164E-02  0.1312668E+00
        -11   -1    0    0    0    0  0.00000000000E+00  0.00000000000E+00  0.45593999997E+02  0.45594000000E+02  0.51100000000E-03 0.  1.
         11   -1    0    0    0    0 -0.00000000000E+00 -0.00000000000E+00 -0.45593999997E+02  0.45594000000E+02  0.51100000000E-03 0. -1.
    9900012    2    1    2    0    0 -0.34749430574E+02 -0.10561871394E+01  0.25980470493E+02  0.47787270703E+02  0.19999998443E+02 0.  0.
         12    1    1    2    0    0  0.34749430574E+02  0.10561871394E+01 -0.25980470493E+02  0.43400729297E+02  0.00000000000E+00 0. -1.
         11    1    3    3    0    0 -0.15976227740E+02 -0.73403637832E+01  0.99367502565E+01  0.20195539091E+02  0.51100000000E-03 0. -1.
        -11    1    3    3    0    0 -0.74204013612E+01  0.14907501982E+01  0.26810381478E+00  0.75734122053E+01  0.51100000000E-03 0.  1.
        -12    1    3    3    0    0 -0.11352801473E+02  0.47934264457E+01  0.15775616421E+02  0.20018319406E+02  0.00000000000E+00 0.  1.
</event>
<event>
 7    1  0.2318319E-009  0.4778727E+02  0.7816164E-02  0.1312668E+00
        -11   -1    0    0    0    0  0.00000000000E+00  0.00000000000E+00  0.45593999997E+02  0.45594000000E+02  0.51100000000E-03 0.  1.
         11   -1    0    0    0    0 -0.00000000000E+00 -0.00000000000E+00 -0.45593999997E+02  0.45594000000E+02  0.51100000000E-03 0. -1.
    9900012    2    1    2    0    0  0.75457907689E+01 -0.24336375464E+02  0.35134383438E+02  0.47787273870E+02  0.20000012885E+02 0.  0.
         12    1    1    2    0    0 -0.75457907689E+01  0.24336375464E+02 -0.35134383438E+02  0.43400726130E+02  0.00000000000E+00 0. -1.
         11    1    3    3    0    0 -0.12567301213E+01 -0.34996931239E+01 -0.14911234204E+01  0.40063289774E+01  0.51100000000E-03 0. -1.
        -11    1    3    3    0    0  0.42948145056E+01 -0.40348198511E+01  0.51872616234E+01  0.78506615185E+01  0.51100000000E-03 0.  1.
        -12    1    3    3    0    0  0.45077063846E+01 -0.16801862489E+02  0.31438245235E+02  0.35930283374E+02  0.00000000000E+00 0.  1.
</event>
<event>
 7    1  0.2318319E-009  0.4778727E+02  0.7816164E-02  0.1312668E+00
        -11   -1    0    0    0    0  0.00000000000E+00  0.00000000000E+00  0.45593999997E+02  0.45594000000E+02  0.51100000000E-03 0. -1.
         11   -1    0    0    0    0 -0.00000000000E+00 -0.00000000000E+00 -0.45593999997E+02  0.45594000000E+02  0.51100000000E-03 0.  1.
    9900012    2    1    2    0    0  0.29685472405E+02 -0.16387990859E+02 -0.27089289631E+02  0.47787272713E+02  0.20000007608E+02 0.  0.
         12    1    1    2    0    0 -0.29685472405E+02  0.16387990859E+02  0.27089289631E+02  0.43400727287E+02  0.00000000000E+00 0. -1.
         11    1    3    3    0    0  0.52549004145E+01 -0.75630141307E+01 -0.49203622271E+01  0.10441413976E+02  0.51100000000E-03 0. -1.
        -11    1    3    3    0    0  0.22439799520E+02 -0.55596209173E+01 -0.11119678181E+02  0.25653483786E+02  0.51100000000E-03 0.  1.
         12    1    3    3    0    0  0.19907724704E+01 -0.32653558107E+01 -0.11049249223E+02  0.11692374951E+02  0.00000000000E+00 0. -1.
</event>
<event>
 7    1  0.2318319E-009  0.4778726E+02  0.7816164E-02  0.1312668E+00
        -11   -1    0    0    0    0  0.00000000000E+00  0.00000000000E+00  0.45593999997E+02  0.45594000000E+02  0.51100000000E-03 0.  1.
         11   -1    0    0    0    0 -0.00000000000E+00 -0.00000000000E+00 -0.45593999997E+02  0.45594000000E+02  0.51100000000E-03 0. -1.
    9900012    2    1    2    0    0  0.33038136462E+02 -0.63402667797E+01  0.27420913807E+02  0.47787263166E+02  0.19999964080E+02 0.  0.
         12    1    1    2    0    0 -0.33038136462E+02  0.63402667797E+01 -0.27420913807E+02  0.43400736834E+02  0.00000000000E+00 0. -1.
         11    1    3    3    0    0  0.12657104955E+02 -0.48412652850E+01  0.20304577787E+02  0.24411391496E+02  0.51100000000E-03 0.  1.
        -11    1    3    3    0    0  0.63171833193E+01 -0.35812043582E+01 -0.44075553418E+00  0.72750323330E+01  0.51100000000E-03 0. -1.
        -12    1    3    3    0    0  0.14063848188E+02  0.20822028635E+01  0.75570915542E+01  0.16100839337E+02  0.00000000000E+00 0.  1.
</event>
<event>
 7    1  0.2318319E-009  0.4778727E+02  0.7816164E-02  0.1312668E+00
        -11   -1    0    0    0    0  0.00000000000E+00  0.00000000000E+00  0.45593999997E+02  0.45594000000E+02  0.51100000000E-03 0. -1.
         11   -1    0    0    0    0 -0.00000000000E+00 -0.00000000000E+00 -0.45593999997E+02  0.45594000000E+02  0.51100000000E-03 0.  1.
    9900012    2    1    2    0    0 -0.13722899373E+02  0.39102195418E+02 -0.12896667110E+02  0.47787266409E+02  0.19999978864E+02 0.  0.
         12    1    1    2    0    0  0.13722899373E+02 -0.39102195418E+02  0.12896667110E+02  0.43400733591E+02  0.00000000000E+00 0. -1.
         11    1    3    3    0    0 -0.26449086039E+01  0.81393841807E+01  0.18237755564E+01  0.87505013517E+01  0.51100000000E-03 0. -1.
        -11    1    3    3    0    0  0.37416192517E+01  0.78494442434E+01 -0.37564986102E+01  0.94723160645E+01  0.51100000000E-03 0.  1.
         12    1    3    3    0    0 -0.14819610021E+02  0.23113366994E+02 -0.10963944056E+02  0.29564448993E+02  0.00000000000E+00 0. -1.
</event>
<event>
 7    1  0.2318319E-009  0.4778726E+02  0.7816164E-02  0.1312668E+00
        -11   -1    0    0    0    0  0.00000000000E+00  0.00000000000E+00  0.45593999997E+02  0.45594000000E+02  0.51100000000E-03 0. -1.
         11   -1    0    0    0    0 -0.00000000000E+00 -0.00000000000E+00 -0.45593999997E+02  0.45594000000E+02  0.51100000000E-03 0.  1.
    9900012    2    1    2    0    0 -0.34927210139E+02  0.13242793637E+02 -0.22098472487E+02  0.47787261784E+02  0.19999957779E+02 0.  0.
         12    1    1    2    0    0  0.34927210139E+02 -0.13242793637E+02  0.22098472487E+02  0.43400738216E+02  0.00000000000E+00 0. -1.
         11    1    3    3    0    0 -0.50857083057E+01  0.30187151576E+01  0.95003718334E+00  0.59899616931E+01  0.51100000000E-03 0. -1.
        -11    1    3    3    0    0 -0.24998885439E+01 -0.34386063090E+01 -0.35852829086E+01  0.55612687290E+01  0.51100000000E-03 0.  1.
        -12    1    3    3    0    0 -0.27341613290E+02  0.13662684788E+02 -0.19463226762E+02  0.36236031362E+02  0.00000000000E+00 0.  1.
</event>
<event>
 7    1  0.2318319E-009  0.4778727E+02  0.7816164E-02  0.1312668E+00
        -11   -1    0    0    0    0  0.00000000000E+00  0.00000000000E+00  0.45593999997E+02  0.45594000000E+02  0.51100000000E-03 0.  1.
         11   -1    0    0    0    0 -0.00000000000E+00 -0.00000000000E+00 -0.45593999997E+02  0.45594000000E+02  0.51100000000E-03 0. -1.
    9900012    2    1    2    0    0 -0.36426736400E+02  0.12380448825E+02  0.20085832340E+02  0.47787270760E+02  0.19999998701E+02 0.  0.
         12    1    1    2    0    0  0.36426736400E+02 -0.12380448825E+02 -0.20085832340E+02  0.43400729240E+02  0.00000000000E+00 0. -1.
         11    1    3    3    0    0  0.67881125159E+00  0.45958346567E+01  0.44527450202E+01  0.64350151036E+01  0.51100000000E-03 0. -1.
        -11    1    3    3    0    0 -0.66109765778E+01  0.27968436497E+01  0.46776549273E+01  0.85678352922E+01  0.51100000000E-03 0.  1.
         12    1    3    3    0    0 -0.30494571073E+02  0.49877705184E+01  0.10955432392E+02  0.32784420364E+02  0.00000000000E+00 0. -1.
</event>
<event>
 7    1  0.2318319E-009  0.4778727E+02  0.7816164E-02  0.1312668E+00
        -11   -1    0    0    0    0  0.00000000000E+00  0.00000000000E+00  0.45593999997E+02  0.45594000000E+02  0.51100000000E-03 0. -1.
         11   -1    0    0    0    0 -0.00000000000E+00 -0.00000000000E+00 -0.45593999997E+02  0.45594000000E+02  0.51100000000E-03 0.  1.
    9900012    2    1    2    0    0  0.36768239949E+02 -0.72997950633E+01 -0.21873110514E+02  0.47787269125E+02  0.19999991248E+02 0.  0.
         12    1    1    2    0    0 -0.36768239949E+02  0.72997950633E+01  0.21873110514E+02  0.43400730875E+02  0.00000000000E+00 0. -1.
         11    1    3    3    0    0  0.57553221213E+01  0.60124043339E+01 -0.67373518866E+01  0.10708158072E+02  0.51100000000E-03 0. -1.
        -11    1    3    3    0    0  0.10168141363E+02 -0.55297825992E+01 -0.58521206538E+01  0.12969846213E+02  0.51100000000E-03 0.  1.
         12    1    3    3    0    0  0.20844776465E+02 -0.77824167980E+01 -0.92836379738E+01  0.24109264840E+02  0.00000000000E+00 0. -1.
</event>
<event>
 7    1  0.2318319E-009  0.4778726E+02  0.7816164E-02  0.1312668E+00
        -11   -1    0    0    0    0  0.00000000000E+00  0.00000000000E+00  0.45593999997E+02  0.45594000000E+02  0.51100000000E-03 0.  1.
         11   -1    0    0    0    0 -0.00000000000E+00 -0.00000000000E+00 -0.45593999997E+02  0.45594000000E+02  0.51100000000E-03 0. -1.
    9900012    2    1    2    0    0  0.16867989940E+02 -0.39984355899E+02  0.58825558414E+00  0.47787264454E+02  0.19999969952E+02 0.  0.
         12    1    1    2    0    0 -0.16867989940E+02  0.39984355899E+02 -0.58825558414E+00  0.43400735546E+02  0.00000000000E+00 0. -1.
         11    1    3    3    0    0 -0.23017971419E+01 -0.57683257819E+01  0.53979040852E+00  0.62340377248E+01  0.51100000000E-03 0. -1.
        -11    1    3    3    0    0  0.14966241901E+01  0.60231871001E+00  0.18627286880E+01  0.24642301477E+01  0.51100000000E-03 0.  1.
        -12    1    3    3    0    0  0.17673162891E+02 -0.34818348828E+02 -0.18142635123E+01  0.39088996582E+02  0.00000000000E+00 0.  1.
</event>
<event>
 7    1  0.2318319E-009  0.4778727E+02  0.7816164E-02  0.1312668E+00
        -11   -1    0    0    0    0  0.00000000000E+00  0.00000000000E+00  0.45593999997E+02  0.45594000000E+02  0.51100000000E-03 0. -1.
         11   -1    0    0    0    0 -0.00000000000E+00 -0.00000000000E+00 -0.45593999997E+02  0.45594000000E+02  0.51100000000E-03 0.  1.
    9900012    2    1    2    0    0 -0.29161052902E+02 -0.29868201514E+02  0.11880522903E+02  0.47787270830E+02  0.19999999024E+02 0.  0.
         12    1    1    2    0    0  0.29161052902E+02  0.29868201514E+02 -0.11880522903E+02  0.43400729170E+02  0.00000000000E+00 0. -1.
         11    1    3    3    0    0 -0.58137980146E+01 -0.49203751701E+01  0.20958695826E+01  0.78995575026E+01  0.51100000000E-03 0. -1.
        -11    1    3    3    0    0 -0.15288789915E+02 -0.34077044801E+01  0.35957901801E+01  0.16071379971E+02  0.51100000000E-03 0.  1.
         12    1    3    3    0    0 -0.80584649726E+01 -0.21540121863E+02  0.61888631407E+01  0.23816333357E+02  0.00000000000E+00 0. -1.
</event>
<event>
 7    1  0.2318319E-009  0.4778728E+02  0.7816164E-02  0.1312668E+00
        -11   -1    0    0    0    0  0.00000000000E+00  0.00000000000E+00  0.45593999997E+02  0.45594000000E+02  0.51100000000E-03 0. -1.
         11   -1    0    0    0    0 -0.00000000000E+00 -0.00000000000E+00 -0.45593999997E+02  0.45594000000E+02  0.51100000000E-03 0.  1.
    9900012    2    1    2    0    0  0.40059676630E+02 -0.12212769193E+01 -0.16653932323E+02  0.47787277991E+02  0.20000031674E+02 0.  0.
         12    1    1    2    0    0 -0.40059676630E+02  0.12212769193E+01  0.16653932323E+02  0.43400722009E+02  0.00000000000E+00 0. -1.
         11    1    3    3    0    0 -0.18777033012E+01 -0.58776152170E+00 -0.19713550546E+01  0.27852242829E+01  0.51100000000E-03 0. -1.
        -11    1    3    3    0    0  0.12720309468E+02  0.12112488386E+01 -0.76540787912E+01  0.14894909167E+02  0.51100000000E-03 0.  1.
         12    1    3    3    0    0  0.29217070464E+02 -0.18447642362E+01 -0.70284984776E+01  0.30107144541E+02  0.00000000000E+00 0. -1.
</event>
<event>
 7    1  0.2318319E-009  0.4778727E+02  0.7816164E-02  0.1312668E+00
        -11   -1    0    0    0    0  0.00000000000E+00  0.00000000000E+00  0.45593999997E+02  0.45594000000E+02  0.51100000000E-03 0. -1.
         11   -1    0    0    0    0 -0.00000000000E+00 -0.00000000000E+00 -0.45593999997E+02  0.45594000000E+02  0.51100000000E-03 0.  1.
    9900012    2    1    2    0    0  0.15275349071E+02  0.39780493696E+02 -0.82340624727E+01  0.47787265528E+02  0.19999974847E+02 0.  0.
         12    1    1    2    0    0 -0.15275349071E+02 -0.39780493696E+02  0.82340624727E+01  0.43400734472E+02  0.00000000000E+00 0. -1.
         11    1    3    3    0    0  0.14693214055E+01  0.38489373428E+01 -0.78785757185E+01  0.88907356093E+01  0.51100000000E-03 0. -1.
        -11    1    3    3    0    0  0.16075002280E+01  0.59574306356E+01  0.19009676534E+01  0.64566798776E+01  0.51100000000E-03 0.  1.
         12    1    3    3    0    0  0.12198527438E+02  0.29974125717E+02 -0.22564544077E+01  0.32439850041E+02  0.00000000000E+00 0. -1.
</event>
<event>
 7    1  0.2318319E-009  0.4778727E+02  0.7816164E-02  0.1312668E+00
        -11   -1    0    0    0    0  0.00000000000E+00  0.00000000000E+00  0.45593999997E+02  0.45594000000E+02  0.51100000000E-03 0.  1.
         11   -1    0    0    0    0 -0.00000000000E+00 -0.00000000000E+00 -0.45593999997E+02  0.45594000000E+02  0.51100000000E-03 0. -1.
    9900012    2    1    2    0    0  0.86485369582E+01  0.26002752119E+02  0.33655356923E+02  0.47787270065E+02  0.19999995535E+02 0.  0.
         12    1    1    2    0    0 -0.86485369582E+01 -0.26002752119E+02 -0.33655356923E+02  0.43400729935E+02  0.00000000000E+00 0. -1.
         11    1    3    3    0    0 -0.16311486440E+01  0.28670181859E+01  0.89076682151E+01  0.94987890001E+01  0.51100000000E-03 0.  1.
        -11    1    3    3    0    0  0.17322801045E+01  0.45550701382E+01  0.14728606985E+02  0.15513907384E+02  0.51100000000E-03 0. -1.
        -12    1    3    3    0    0  0.85474054976E+01  0.18580663795E+02  0.10019081722E+02  0.22774573681E+02  0.00000000000E+00 0.  1.
</event>
<event>
 7    1  0.2318319E-009  0.4778727E+02  0.7816164E-02  0.1312668E+00
        -11   -1    0    0    0    0  0.00000000000E+00  0.00000000000E+00  0.45593999997E+02  0.45594000000E+02  0.51100000000E-03 0.  1.
         11   -1    0    0    0    0 -0.00000000000E+00 -0.00000000000E+00 -0.45593999997E+02  0.45594000000E+02  0.51100000000E-03 0. -1.
    9900012    2    1    2    0    0  0.32364887044E+02 -0.16707289759E+02 -0.23600934495E+02  0.47787267823E+02  0.19999985313E+02 0.  0.
         12    1    1    2    0    0 -0.32364887044E+02  0.16707289759E+02  0.23600934495E+02  0.43400732177E+02  0.00000000000E+00 0. -1.
         11    1    3    3    0    0  0.94006146433E+00 -0.58406883262E+00  0.18854924196E+01  0.21863059904E+01  0.51100000000E-03 0. -1.
        -11    1    3    3    0    0  0.17759139303E+02 -0.56471616989E+01 -0.59566346610E+01  0.19564226557E+02  0.51100000000E-03 0.  1.
        -12    1    3    3    0    0  0.13665686277E+02 -0.10476059228E+02 -0.19529792253E+02  0.26036735276E+02  0.00000000000E+00 0.  1.
</event>
<event>
 7    1  0.2318319E-009  0.4778727E+02  0.7816164E-02  0.1312668E+00
        -11   -1    0    0    0    0  0.00000000000E+00  0.00000000000E+00  0.45593999997E+02  0.45594000000E+02  0.51100000000E-03 0. -1.
         11   -1    0    0    0    0 -0.00000000000E+00 -0.00000000000E+00 -0.45593999997E+02  0.45594000000E+02  0.51100000000E-03 0.  1.
    9900012    2    1    2    0    0  0.21164228510E+02 -0.32295219600E+02 -0.19817102461E+02  0.47787270428E+02  0.19999997189E+02 0.  0.
         12    1    1    2    0    0 -0.21164228510E+02  0.32295219600E+02  0.19817102461E+02  0.43400729572E+02  0.00000000000E+00 0. -1.
         11    1    3    3    0    0 -0.12144056435E+01 -0.42320799314E+01 -0.47753830301E+00  0.44286933405E+01  0.51100000000E-03 0. -1.
        -11    1    3    3    0    0  0.50933752730E+01 -0.17512868636E+02 -0.11935834766E+02  0.21796953717E+02  0.51100000000E-03 0.  1.
         12    1    3    3    0    0  0.17285258881E+02 -0.10550271032E+02 -0.74037293925E+01  0.21561623370E+02  0.00000000000E+00 0. -1.
</event>
<event>
 7    1  0.2318319E-009  0.4778727E+02  0.7816164E-02  0.1312668E+00
        -11   -1    0    0    0    0  0.00000000000E+00  0.00000000000E+00  0.45593999997E+02  0.45594000000E+02  0.51100000000E-03 0.  1.
         11   -1    0    0    0    0 -0.00000000000E+00 -0.00000000000E+00 -0.45593999997E+02  0.45594000000E+02  0.51100000000E-03 0. -1.
    9900012    2    1    2    0    0 -0.41807291908E+02  0.97916578045E+01 -0.63164132522E+01  0.47787270794E+02  0.19999998859E+02 0.  0.
         12    1    1    2    0    0  0.41807291908E+02 -0.97916578045E+01  0.63164132522E+01  0.43400729206E+02  0.00000000000E+00 0. -1.
         11    1    3    3    0    0 -0.27500754301E+02  0.10165453844E+02  0.56105064638E+00  0.29324779915E+02  0.51100000000E-03 0.  1.
        -11    1    3    3    0    0 -0.10794146723E+01  0.30683004915E+01 -0.22113631849E+00  0.32601388734E+01  0.51100000000E-03 0. -1.
         12    1    3    3    0    0 -0.13227122935E+02 -0.34420965308E+01 -0.66563275801E+01  0.15202352006E+02  0.00000000000E+00 0. -1.
</event>
<event>
 7    1  0.2318319E-009  0.4778727E+02  0.7816164E-02  0.1312668E+00
        -11   -1    0    0    0    0  0.00000000000E+00  0.00000000000E+00  0.45593999997E+02  0.45594000000E+02  0.51100000000E-03 0.  1.
         11   -1    0    0    0    0 -0.00000000000E+00 -0.00000000000E+00 -0.45593999997E+02  0.45594000000E+02  0.51100000000E-03 0. -1.
    9900012    2    1    2    0    0  0.28795427144E+02  0.29456784619E+02  0.13665452777E+02  0.47787269775E+02  0.19999994211E+02 0.  0.
         12    1    1    2    0    0 -0.28795427144E+02 -0.29456784619E+02 -0.13665452777E+02  0.43400730225E+02  0.00000000000E+00 0. -1.
         11    1    3    3    0    0  0.51130002214E+01 -0.16088667384E+01  0.13230516101E+01  0.55210224841E+01  0.51100000000E-03 0.  1.
        -11    1    3    3    0    0  0.22901202728E+01  0.20543178171E+01  0.43785733416E+01  0.53513341632E+01  0.51100000000E-03 0. -1.
        -12    1    3    3    0    0  0.21392306650E+02  0.29011333540E+02  0.79638278251E+01  0.36914913127E+02  0.00000000000E+00 0.  1.
</event>
<event>
 7    1  0.2318319E-009  0.4778727E+02  0.7816164E-02  0.1312668E+00
        -11   -1    0    0    0    0  0.00000000000E+00  0.00000000000E+00  0.45593999997E+02  0.45594000000E+02  0.51100000000E-03 0.  1.
         11   -1    0    0    0    0 -0.00000000000E+00 -0.00000000000E+00 -0.45593999997E+02  0.45594000000E+02  0.51100000000E-03 0. -1.
    9900012    2    1    2    0    0 -0.25767726351E+02 -0.76071617449E+01  0.34084874584E+02  0.47787270669E+02  0.19999998286E+02 0.  0.
         12    1    1    2    0    0  0.25767726351E+02  0.76071617449E+01 -0.34084874584E+02  0.43400729331E+02  0.00000000000E+00 0. -1.
         11    1    3    3    0    0 -0.63058649866E+01  0.24955909685E+01  0.11078359374E+02  0.12989301528E+02  0.51100000000E-03 0. -1.
        -11    1    3    3    0    0 -0.16373331455E+01  0.31686360309E+01  0.14889234190E+01  0.38649718413E+01  0.51100000000E-03 0.  1.
         12    1    3    3    0    0 -0.17824528219E+02 -0.13271388744E+02  0.21517591791E+02  0.30932997299E+02  0.00000000000E+00 0. -1.
</event>
<event>
 7    1  0.2318319E-009  0.4778728E+02  0.7816164E-02  0.1312668E+00
        -11   -1    0    0    0    0  0.00000000000E+00  0.00000000000E+00  0.45593999997E+02  0.45594000000E+02  0.51100000000E-03 0. -1.
         11   -1    0    0    0    0 -0.00000000000E+00 -0.00000000000E+00 -0.45593999997E+02  0.45594000000E+02  0.51100000000E-03 0.  1.
    9900012    2    1    2    0    0  0.17400363049E+02 -0.33572876609E+02 -0.21300519929E+02  0.47787276189E+02  0.20000023457E+02 0.  0.
         12    1    1    2    0    0 -0.17400363049E+02  0.33572876609E+02  0.21300519929E+02  0.43400723811E+02  0.00000000000E+00 0. -1.
         11    1    3    3    0    0  0.59852231979E-01  0.47711002439E+00 -0.13310614014E+00  0.49893263144E+00  0.51100000000E-03 0. -1.
        -11    1    3    3    0    0  0.14853483720E+02 -0.13542794719E+02 -0.41508679286E+01  0.20524691770E+02  0.51100000000E-03 0.  1.
        -12    1    3    3    0    0  0.24870270969E+01 -0.20507191915E+02 -0.17016545860E+02  0.26763651788E+02  0.00000000000E+00 0.  1.
</event>
<event>
 7    1  0.2318319E-009  0.4778727E+02  0.7816164E-02  0.1312668E+00
        -11   -1    0    0    0    0  0.00000000000E+00  0.00000000000E+00  0.45593999997E+02  0.45594000000E+02  0.51100000000E-03 0.  1.
         11   -1    0    0    0    0 -0.00000000000E+00 -0.00000000000E+00 -0.45593999997E+02  0.45594000000E+02  0.51100000000E-03 0. -1.
    9900012    2    1    2    0    0  0.23964881981E+01  0.42508261486E+02 -0.84218552959E+01  0.47787273084E+02  0.20000009298E+02 0.  0.
         12    1    1    2    0    0 -0.23964881981E+01 -0.42508261486E+02  0.84218552959E+01  0.43400726916E+02  0.00000000000E+00 0. -1.
         11    1    3    3    0    0  0.40440714391E+01  0.18790558325E+02 -0.50891046867E+01  0.19883123063E+02  0.51100000000E-03 0. -1.
        -11    1    3    3    0    0 -0.14126292495E+00  0.16726731723E+02  0.44756766723E+01  0.17315749804E+02  0.51100000000E-03 0.  1.
         12    1    3    3    0    0 -0.15063203160E+01  0.69909714384E+01 -0.78084272814E+01  0.10588400217E+02  0.00000000000E+00 0. -1.
</event>
<event>
 7    1  0.2318319E-009  0.4778727E+02  0.7816164E-02  0.1312668E+00
        -11   -1    0    0    0    0  0.00000000000E+00  0.00000000000E+00  0.45593999997E+02  0.45594000000E+02  0.51100000000E-03 0.  1.
         11   -1    0    0    0    0 -0.00000000000E+00 -0.00000000000E+00 -0.45593999997E+02  0.45594000000E+02  0.51100000000E-03 0. -1.
    9900012    2    1    2    0    0 -0.33740952014E+01 -0.65462777651E+01  0.42771308438E+02  0.47787273088E+02  0.20000009318E+02 0.  0.
         12    1    1    2    0    0  0.33740952014E+01  0.65462777651E+01 -0.42771308438E+02  0.43400726912E+02  0.00000000000E+00 0. -1.
         11    1    3    3    0    0  0.45844577001E+01 -0.16202999931E+01  0.12718671529E+02  0.13616432359E+02  0.51100000000E-03 0. -1.
        -11    1    3    3    0    0 -0.13803560298E+01 -0.14699295301E+01 -0.99343001548E+00  0.22478832375E+01  0.51100000000E-03 0.  1.
        -12    1    3    3    0    0 -0.65781968718E+01 -0.34560482419E+01  0.31046066924E+02  0.31922957491E+02  0.00000000000E+00 0.  1.
</event>
<event>
 7    1  0.2318319E-009  0.4778727E+02  0.7816164E-02  0.1312668E+00
        -11   -1    0    0    0    0  0.00000000000E+00  0.00000000000E+00  0.45593999997E+02  0.45594000000E+02  0.51100000000E-03 0.  1.
         11   -1    0    0    0    0 -0.00000000000E+00 -0.00000000000E+00 -0.45593999997E+02  0.45594000000E+02  0.51100000000E-03 0. -1.
    9900012    2    1    2    0    0  0.16644043577E+02  0.12685623569E+02  0.38022023926E+02  0.47787268032E+02  0.19999986266E+02 0.  0.
         12    1    1    2    0    0 -0.16644043577E+02 -0.12685623569E+02 -0.38022023926E+02  0.43400731968E+02  0.00000000000E+00 0. -1.
         11    1    3    3    0    0  0.84397175491E+01  0.33410006355E+01  0.49957610433E+01  0.10360924004E+02  0.51100000000E-03 0. -1.
        -11    1    3    3    0    0  0.11553837875E+01  0.43208234271E+01  0.14754941107E+01  0.47097250362E+01  0.51100000000E-03 0.  1.
        -12    1    3    3    0    0  0.70489422407E+01  0.50237995066E+01  0.31550768772E+02  0.32716618992E+02  0.00000000000E+00 0.  1.
</event>
<event>
 7    1  0.2318319E-009  0.4778727E+02  0.7816164E-02  0.1312668E+00
        -11   -1    0    0    0    0  0.00000000000E+00  0.00000000000E+00  0.45593999997E+02  0.45594000000E+02  0.51100000000E-03 0. -1.
         11   -1    0    0    0    0 -0.00000000000E+00 -0.00000000000E+00 -0.45593999997E+02  0.45594000000E+02  0.51100000000E-03 0.  1.
    9900012    2    1    2    0    0 -0.35940980348E+02 -0.18613743515E+02  0.15665174734E+02  0.47787271718E+02  0.20000003069E+02 0.  0.
         12    1    1    2    0    0  0.35940980348E+02  0.18613743515E+02 -0.15665174734E+02  0.43400728282E+02  0.00000000000E+00 0. -1.
         11    1    3    3    0    0 -0.19181055232E+02 -0.83736999639E+00  0.82769884979E+01  0.20907477303E+02  0.51100000000E-03 0. -1.
        -11    1    3    3    0    0 -0.17100524036E+01  0.76950987330E+00 -0.13053201342E-01  0.18752587329E+01  0.51100000000E-03 0.  1.
        -12    1    3    3    0    0 -0.15049872712E+02 -0.18545883392E+02  0.74012394374E+01  0.25004535681E+02  0.00000000000E+00 0.  1.
</event>
<event>
 7    1  0.2318319E-009  0.4778726E+02  0.7816164E-02  0.1312668E+00
        -11   -1    0    0    0    0  0.00000000000E+00  0.00000000000E+00  0.45593999997E+02  0.45594000000E+02  0.51100000000E-03 0. -1.
         11   -1    0    0    0    0 -0.00000000000E+00 -0.00000000000E+00 -0.45593999997E+02  0.45594000000E+02  0.51100000000E-03 0.  1.
    9900012    2    1    2    0    0 -0.14630619036E+02  0.39762046169E+02 -0.94100378114E+01  0.47787261060E+02  0.19999954478E+02 0.  0.
         12    1    1    2    0    0  0.14630619036E+02 -0.39762046169E+02  0.94100378114E+01  0.43400738940E+02  0.00000000000E+00 0. -1.
         11    1    3    3    0    0 -0.53495396029E+01  0.16524389336E+02  0.53776579123E+01  0.18182195186E+02  0.51100000000E-03 0. -1.
        -11    1    3    3    0    0 -0.41105485777E+01  0.11357643778E+02 -0.39336213139E+01  0.12702994084E+02  0.51100000000E-03 0.  1.
        -12    1    3    3    0    0 -0.51705308554E+01  0.11880013054E+02 -0.10854074410E+02  0.16902071790E+02  0.00000000000E+00 0.  1.
</event>
<event>
 7    1  0.2318319E-009  0.4778726E+02  0.7816164E-02  0.1312668E+00
        -11   -1    0    0    0    0  0.00000000000E+00  0.00000000000E+00  0.45593999997E+02  0.45594000000E+02  0.51100000000E-03 0.  1.
         11   -1    0    0    0    0 -0.00000000000E+00 -0.00000000000E+00 -0.45593999997E+02  0.45594000000E+02  0.51100000000E-03 0. -1.
    9900012    2    1    2    0    0 -0.30215987924E+02  0.10227544042E+02  0.29428136954E+02  0.47787264662E+02  0.19999970898E+02 0.  0.
         12    1    1    2    0    0  0.30215987924E+02 -0.10227544042E+02 -0.29428136954E+02  0.43400735338E+02  0.00000000000E+00 0. -1.
         11    1    3    3    0    0 -0.79299896153E+00  0.79656777983E+00  0.88619542808E+01  0.89329503254E+01  0.51100000000E-03 0. -1.
        -11    1    3    3    0    0 -0.31149979570E+01  0.34704290743E+01  0.76199739849E+01  0.89337055035E+01  0.51100000000E-03 0.  1.
         12    1    3    3    0    0 -0.26307991005E+02  0.59605471876E+01  0.12946208688E+02  0.29920608833E+02  0.00000000000E+00 0. -1.
</event>
<event>
 7    1  0.2318319E-009  0.4778727E+02  0.7816164E-02  0.1312668E+00
        -11   -1    0    0    0    0  0.00000000000E+00  0.00000000000E+00  0.45593999997E+02  0.45594000000E+02  0.51100000000E-03 0.  1.
         11   -1    0    0    0    0 -0.00000000000E+00 -0.00000000000E+00 -0.45593999997E+02  0.45594000000E+02  0.51100000000E-03 0. -1.
    9900012    2    1    2    0    0 -0.85592532861E+01  0.42154039392E+02  0.57792020295E+01  0.47787273854E+02  0.20000012811E+02 0.  0.
         12    1    1    2    0    0  0.85592532861E+01 -0.42154039392E+02 -0.57792020295E+01  0.43400726146E+02  0.00000000000E+00 0. -1.
         11    1    3    3    0    0 -0.38745958895E+01  0.78737371349E+01  0.71342139469E+01  0.11309519825E+02  0.51100000000E-03 0. -1.
        -11    1    3    3    0    0  0.21565989480E+00 -0.75344210349E+00 -0.76918843145E+00  0.10981053218E+01  0.51100000000E-03 0.  1.
        -12    1    3    3    0    0 -0.49003172914E+01  0.35033744361E+02 -0.58582348602E+00  0.35379648707E+02  0.00000000000E+00 0.  1.
</event>
<event>
 7    1  0.2318319E-009  0.4778727E+02  0.7816164E-02  0.1312668E+00
        -11   -1    0    0    0    0  0.00000000000E+00  0.00000000000E+00  0.45593999997E+02  0.45594000000E+02  0.51100000000E-03 0. -1.
         11   -1    0    0    0    0 -0.00000000000E+00 -0.00000000000E+00 -0.45593999997E+02  0.45594000000E+02  0.51100000000E-03 0.  1.
    9900012    2    1    2    0    0  0.25552134652E+02  0.72783804343E+01 -0.34318172804E+02  0.47787269688E+02  0.19999993816E+02 0.  0.
         12    1    1    2    0    0 -0.25552134652E+02 -0.72783804343E+01  0.34318172804E+02  0.43400730312E+02  0.00000000000E+00 0. -1.
         11    1    3    3    0    0  0.64795966888E+01 -0.60854648944E+00 -0.12262089727E+02  0.13882159299E+02  0.51100000000E-03 0. -1.
        -11    1    3    3    0    0  0.21609170664E+02  0.82020359520E+01 -0.20613051143E+02  0.30969784117E+02  0.51100000000E-03 0.  1.
         12    1    3    3    0    0 -0.25366327014E+01 -0.31510902825E+00 -0.14430319337E+01  0.29353262720E+01  0.00000000000E+00 0. -1.
</event>
<event>
 7    1  0.2318319E-009  0.4778727E+02  0.7816164E-02  0.1312668E+00
        -11   -1    0    0    0    0  0.00000000000E+00  0.00000000000E+00  0.45593999997E+02  0.45594000000E+02  0.51100000000E-03 0.  1.
         11   -1    0    0    0    0 -0.00000000000E+00 -0.00000000000E+00 -0.45593999997E+02  0.45594000000E+02  0.51100000000E-03 0. -1.
    9900012    2    1    2    0    0  0.30278274349E+00  0.24619174989E+02  0.35741123718E+02  0.47787269832E+02  0.19999994470E+02 0.  0.
         12    1    1    2    0    0 -0.30278274349E+00 -0.24619174989E+02 -0.35741123718E+02  0.43400730168E+02  0.00000000000E+00 0. -1.
         11    1    3    3    0    0 -0.38977592726E+01  0.11800082159E+02  0.67844204206E+01  0.14158489573E+02  0.51100000000E-03 0. -1.
        -11    1    3    3    0    0 -0.15006343740E+01  0.97701026539E+01  0.12421318578E+02  0.15874380771E+02  0.51100000000E-03 0.  1.
        -12    1    3    3    0    0  0.57011763900E+01  0.30489901771E+01  0.16535384720E+02  0.17754399487E+02  0.00000000000E+00 0.  1.
</event>
<event>
 7    1  0.2318319E-009  0.4778727E+02  0.7816164E-02  0.1312668E+00
        -11   -1    0    0    0    0  0.00000000000E+00  0.00000000000E+00  0.45593999997E+02  0.45594000000E+02  0.51100000000E-03 0.  1.
         11   -1    0    0    0    0 -0.00000000000E+00 -0.00000000000E+00 -0.45593999997E+02  0.45594000000E+02  0.51100000000E-03 0. -1.
    9900012    2    1    2    0    0 -0.13184807107E+02 -0.18714440060E+02  0.36872129593E+02  0.47787270214E+02  0.19999996215E+02 0.  0.
         12    1    1    2    0    0  0.13184807107E+02  0.18714440060E+02 -0.36872129593E+02  0.43400729786E+02  0.00000000000E+00 0. -1.
         11    1    3    3    0    0 -0.53928242870E+01 -0.15372070242E+02  0.16302862777E+02  0.23047048234E+02  0.51100000000E-03 0. -1.
        -11    1    3    3    0    0  0.14815141040E+01 -0.40242452078E+01  0.83341409426E+01  0.93726911314E+01  0.51100000000E-03 0.  1.
         12    1    3    3    0    0 -0.92734969238E+01  0.68187539016E+00  0.12235125873E+02  0.15367530849E+02  0.00000000000E+00 0. -1.
</event>
<event>
 7    1  0.2318319E-009  0.4778727E+02  0.7816164E-02  0.1312668E+00
        -11   -1    0    0    0    0  0.00000000000E+00  0.00000000000E+00  0.45593999997E+02  0.45594000000E+02  0.51100000000E-03 0.  1.
         11   -1    0    0    0    0 -0.00000000000E+00 -0.00000000000E+00 -0.45593999997E+02  0.45594000000E+02  0.51100000000E-03 0. -1.
    9900012    2    1    2    0    0  0.38117047922E+02  0.30733102913E+01  0.20524831700E+02  0.47787270803E+02  0.19999998901E+02 0.  0.
         12    1    1    2    0    0 -0.38117047922E+02 -0.30733102913E+01 -0.20524831700E+02  0.43400729197E+02  0.00000000000E+00 0. -1.
         11    1    3    3    0    0  0.23061013978E+02 -0.47995445362E+01  0.17161074821E+02  0.29143583903E+02  0.51100000000E-03 0. -1.
        -11    1    3    3    0    0  0.41987342666E+01 -0.98994526595E+00  0.55147611706E+00  0.43489639272E+01  0.51100000000E-03 0.  1.
         12    1    3    3    0    0  0.10857299678E+02  0.88628000935E+01  0.28122807624E+01  0.14294722973E+02  0.00000000000E+00 0. -1.
</event>
<event>
 7    1  0.2318319E-009  0.4778727E+02  0.7816164E-02  0.1312668E+00
        -11   -1    0    0    0    0  0.00000000000E+00  0.00000000000E+00  0.45593999997E+02  0.45594000000E+02  0.51100000000E-03 0. -1.
         11   -1    0    0    0    0 -0.00000000000E+00 -0.00000000000E+00 -0.45593999997E+02  0.45594000000E+02  0.51100000000E-03 0.  1.
    9900012    2    1    2    0    0  0.30038201823E+02 -0.31049265034E+02 -0.41560379031E+01  0.47787273290E+02  0.20000010239E+02 0.  0.
         12    1    1    2    0    0 -0.30038201823E+02  0.31049265034E+02  0.41560379031E+01  0.43400726710E+02  0.00000000000E+00 0. -1.
         11    1    3    3    0    0 -0.72379288316E+00 -0.95699478094E+00 -0.26933196619E+01  0.29485057590E+01  0.51100000000E-03 0. -1.
        -11    1    3    3    0    0  0.14044993324E+02 -0.74630366873E+01 -0.45313405163E+01  0.16537587527E+02  0.51100000000E-03 0.  1.
        -12    1    3    3    0    0  0.16717001382E+02 -0.22629233566E+02  0.30686222751E+01  0.28301180005E+02  0.00000000000E+00 0.  1.
</event>
<event>
 7    1  0.2318319E-009  0.4778729E+02  0.7816164E-02  0.1312668E+00
        -11   -1    0    0    0    0  0.00000000000E+00  0.00000000000E+00  0.45593999997E+02  0.45594000000E+02  0.51100000000E-03 0.  1.
         11   -1    0    0    0    0 -0.00000000000E+00 -0.00000000000E+00 -0.45593999997E+02  0.45594000000E+02  0.51100000000E-03 0. -1.
    9900012    2    1    2    0    0 -0.22427358416E+02 -0.26626782941E+02  0.25916200708E+02  0.47787292236E+02  0.20000096620E+02 0.  0.
         12    1    1    2    0    0  0.22427358416E+02  0.26626782941E+02 -0.25916200708E+02  0.43400707764E+02  0.00000000000E+00 0. -1.
         11    1    3    3    0    0 -0.23657933690E+01  0.38975608574E+00 -0.67272814556E-01  0.23986275167E+01  0.51100000000E-03 0. -1.
        -11    1    3    3    0    0 -0.22678169227E+02 -0.22881182831E+02  0.23665552638E+02  0.39973819797E+02  0.51100000000E-03 0.  1.
        -12    1    3    3    0    0  0.26166041806E+01 -0.41353561962E+01  0.23179208843E+01  0.54148449224E+01  0.00000000000E+00 0.  1.
</event>
<event>
 7    1  0.2318319E-009  0.4778727E+02  0.7816164E-02  0.1312668E+00
        -11   -1    0    0    0    0  0.00000000000E+00  0.00000000000E+00  0.45593999997E+02  0.45594000000E+02  0.51100000000E-03 0.  1.
         11   -1    0    0    0    0 -0.00000000000E+00 -0.00000000000E+00 -0.45593999997E+02  0.45594000000E+02  0.51100000000E-03 0. -1.
    9900012    2    1    2    0    0 -0.39743717365E+02  0.88297118536E+01 -0.15036511765E+02  0.47787267662E+02  0.19999984579E+02 0.  0.
         12    1    1    2    0    0  0.39743717365E+02 -0.88297118536E+01  0.15036511765E+02  0.43400732338E+02  0.00000000000E+00 0. -1.
         11    1    3    3    0    0 -0.19158201546E+02  0.80049651280E+00 -0.11527455977E+02  0.22373192055E+02  0.51100000000E-03 0. -1.
        -11    1    3    3    0    0 -0.18122299140E+02  0.22306015253E+01 -0.11827511990E+00  0.18259444092E+02  0.51100000000E-03 0.  1.
         12    1    3    3    0    0 -0.24632166791E+01  0.57986138156E+01 -0.33907806681E+01  0.71546315160E+01  0.00000000000E+00 0. -1.
</event>
<event>
 7    1  0.2318319E-009  0.4778727E+02  0.7816164E-02  0.1312668E+00
        -11   -1    0    0    0    0  0.00000000000E+00  0.00000000000E+00  0.45593999997E+02  0.45594000000E+02  0.51100000000E-03 0.  1.
         11   -1    0    0    0    0 -0.00000000000E+00 -0.00000000000E+00 -0.45593999997E+02  0.45594000000E+02  0.51100000000E-03 0. -1.
    9900012    2    1    2    0    0  0.10779525468E+02  0.34598446273E+02  0.23882483732E+02  0.47787266331E+02  0.19999978507E+02 0.  0.
         12    1    1    2    0    0 -0.10779525468E+02 -0.34598446273E+02 -0.23882483732E+02  0.43400733669E+02  0.00000000000E+00 0. -1.
         11    1    3    3    0    0 -0.14746465367E+01  0.79872857276E+01  0.31293896653E+01  0.87042745615E+01  0.51100000000E-03 0. -1.
        -11    1    3    3    0    0  0.37797007221E+01  0.23490275322E+02  0.17288298503E+02  0.29410277755E+02  0.51100000000E-03 0.  1.
         12    1    3    3    0    0  0.84744712827E+01  0.31208852238E+01  0.34647955645E+01  0.96727140145E+01  0.00000000000E+00 0. -1.
</event>
<event>
 7    1  0.2318319E-009  0.4778727E+02  0.7816164E-02  0.1312668E+00
        -11   -1    0    0    0    0  0.00000000000E+00  0.00000000000E+00  0.45593999997E+02  0.45594000000E+02  0.51100000000E-03 0. -1.
         11   -1    0    0    0    0 -0.00000000000E+00 -0.00000000000E+00 -0.45593999997E+02  0.45594000000E+02  0.51100000000E-03 0.  1.
    9900012    2    1    2    0    0 -0.14953882716E+02  0.39477924653E+02 -0.10074618369E+02  0.47787273295E+02  0.20000010261E+02 0.  0.
         12    1    1    2    0    0  0.14953882716E+02 -0.39477924653E+02  0.10074618369E+02  0.43400726705E+02  0.00000000000E+00 0. -1.
         11    1    3    3    0    0 -0.85370694851E+01  0.16174937816E+02 -0.17002094649E+01  0.18368475202E+02  0.51100000000E-03 0. -1.
        -11    1    3    3    0    0 -0.80741918672E+01  0.24620189938E+02 -0.68215247135E+01  0.26793273905E+02  0.51100000000E-03 0.  1.
         12    1    3    3    0    0  0.16573786359E+01 -0.13172031007E+01 -0.15528841909E+01  0.26255241880E+01  0.00000000000E+00 0. -1.
</event>
<event>
 7    1  0.2318319E-009  0.4778727E+02  0.7816164E-02  0.1312668E+00
        -11   -1    0    0    0    0  0.00000000000E+00  0.00000000000E+00  0.45593999997E+02  0.45594000000E+02  0.51100000000E-03 0. -1.
         11   -1    0    0    0    0 -0.00000000000E+00 -0.00000000000E+00 -0.45593999997E+02  0.45594000000E+02  0.51100000000E-03 0.  1.
    9900012    2    1    2    0    0  0.13693625980E+02  0.40642897387E+02  0.66530321409E+01  0.47787270315E+02  0.19999996676E+02 0.  0.
         12    1    1    2    0    0 -0.13693625980E+02 -0.40642897387E+02 -0.66530321409E+01  0.43400729685E+02  0.00000000000E+00 0. -1.
         11    1    3    3    0    0  0.94530032940E+01  0.91903941115E+01  0.14715953597E+01  0.13266054740E+02  0.51100000000E-03 0. -1.
        -11    1    3    3    0    0  0.31345367025E+01  0.11221062333E+02  0.79021700140E+01  0.14077707605E+02  0.51100000000E-03 0.  1.
        -12    1    3    3    0    0  0.11060859834E+01  0.20231440943E+02 -0.27207332328E+01  0.20443507971E+02  0.00000000000E+00 0.  1.
</event>
<event>
 7    1  0.2318319E-009  0.4778727E+02  0.7816164E-02  0.1312668E+00
        -11   -1    0    0    0    0  0.00000000000E+00  0.00000000000E+00  0.45593999997E+02  0.45594000000E+02  0.51100000000E-03 0.  1.
         11   -1    0    0    0    0 -0.00000000000E+00 -0.00000000000E+00 -0.45593999997E+02  0.45594000000E+02  0.51100000000E-03 0. -1.
    9900012    2    1    2    0    0 -0.57963979430E+00  0.13239166161E+01  0.43376656367E+02  0.47787273565E+02  0.20000011492E+02 0.  0.
         12    1    1    2    0    0  0.57963979430E+00 -0.13239166161E+01 -0.43376656367E+02  0.43400726435E+02  0.00000000000E+00 0. -1.
         11    1    3    3    0    0 -0.12916566751E+01 -0.40581598238E+01  0.29022286062E+02  0.29333089279E+02  0.51100000000E-03 0.  1.
        -11    1    3    3    0    0  0.36764828861E+01 -0.15834874488E+01  0.44021570565E+01  0.59500374724E+01  0.51100000000E-03 0. -1.
         12    1    3    3    0    0 -0.29644660052E+01  0.69655638887E+01  0.99522132484E+01  0.12504146813E+02  0.00000000000E+00 0. -1.
</event>
<event>
 7    1  0.2318319E-009  0.4778727E+02  0.7816164E-02  0.1312668E+00
        -11   -1    0    0    0    0  0.00000000000E+00  0.00000000000E+00  0.45593999997E+02  0.45594000000E+02  0.51100000000E-03 0.  1.
         11   -1    0    0    0    0 -0.00000000000E+00 -0.00000000000E+00 -0.45593999997E+02  0.45594000000E+02  0.51100000000E-03 0. -1.
    9900012    2    1    2    0    0 -0.20846966919E+02  0.73980202069E+01  0.37340284589E+02  0.47787267450E+02  0.19999983611E+02 0.  0.
         12    1    1    2    0    0  0.20846966919E+02 -0.73980202069E+01 -0.37340284589E+02  0.43400732550E+02  0.00000000000E+00 0. -1.
         11    1    3    3    0    0 -0.17021530943E+01 -0.16895421616E+01 -0.72894385578E+00  0.25066386414E+01  0.51100000000E-03 0. -1.
        -11    1    3    3    0    0  0.11384484342E+01  0.10709806443E+01  0.79021465838E+01  0.80552458231E+01  0.51100000000E-03 0.  1.
        -12    1    3    3    0    0 -0.20283262259E+02  0.80165817243E+01  0.30167081861E+02  0.37225382985E+02  0.00000000000E+00 0.  1.
</event>
<event>
 7    1  0.2318319E-009  0.4778726E+02  0.7816164E-02  0.1312668E+00
        -11   -1    0    0    0    0  0.00000000000E+00  0.00000000000E+00  0.45593999997E+02  0.45594000000E+02  0.51100000000E-03 0.  1.
         11   -1    0    0    0    0 -0.00000000000E+00 -0.00000000000E+00 -0.45593999997E+02  0.45594000000E+02  0.51100000000E-03 0. -1.
    9900012    2    1    2    0    0 -0.38896126319E+02  0.44791151204E+01  0.18725738027E+02  0.47787258307E+02  0.19999941923E+02 0.  0.
         12    1    1    2    0    0  0.38896126319E+02 -0.44791151204E+01 -0.18725738027E+02  0.43400741693E+02  0.00000000000E+00 0. -1.
         11    1    3    3    0    0 -0.34586826156E+02  0.16122550163E+01  0.13593151629E+02  0.37197065493E+02  0.51100000000E-03 0.  1.
        -11    1    3    3    0    0 -0.38723715457E+01 -0.61874685106E+00 -0.49866666381E+00  0.39530719392E+01  0.51100000000E-03 0. -1.
        -12    1    3    3    0    0 -0.43692861689E+00  0.34856069552E+01  0.56312530613E+01  0.66371208745E+01  0.00000000000E+00 0.  1.
</event>
<event>
 7    1  0.2318319E-009  0.4778727E+02  0.7816164E-02  0.1312668E+00
        -11   -1    0    0    0    0  0.00000000000E+00  0.00000000000E+00  0.45593999997E+02  0.45594000000E+02  0.51100000000E-03 0.  1.
         11   -1    0    0    0    0 -0.00000000000E+00 -0.00000000000E+00 -0.45593999997E+02  0.45594000000E+02  0.51100000000E-03 0. -1.
    9900012    2    1    2    0    0  0.40681872268E+01 -0.19365972846E+02  0.38626834056E+02  0.47787270043E+02  0.19999995435E+02 0.  0.
         12    1    1    2    0    0 -0.40681872268E+01  0.19365972846E+02 -0.38626834056E+02  0.43400729957E+02  0.00000000000E+00 0. -1.
         11    1    3    3    0    0  0.42830755985E-01 -0.14261976794E+02  0.14341321360E+02  0.20225709262E+02  0.51100000000E-03 0.  1.
        -11    1    3    3    0    0 -0.86752960701E+00 -0.18392728521E+00 -0.10027296957E+01  0.13386201736E+01  0.51100000000E-03 0. -1.
        -12    1    3    3    0    0  0.48928860779E+01 -0.49200687667E+01  0.25288242392E+02  0.26222940607E+02  0.00000000000E+00 0.  1.
</event>
<event>
 7    1  0.2318319E-009  0.4778727E+02  0.7816164E-02  0.1312668E+00
        -11   -1    0    0    0    0  0.00000000000E+00  0.00000000000E+00  0.45593999997E+02  0.45594000000E+02  0.51100000000E-03 0.  1.
         11   -1    0    0    0    0 -0.00000000000E+00 -0.00000000000E+00 -0.45593999997E+02  0.45594000000E+02  0.51100000000E-03 0. -1.
    9900012    2    1    2    0    0  0.73823937226E+01  0.10997612984E+02  0.41330086191E+02  0.47787271285E+02  0.20000001099E+02 0.  0.
         12    1    1    2    0    0 -0.73823937226E+01 -0.10997612984E+02 -0.41330086191E+02  0.43400728715E+02  0.00000000000E+00 0. -1.
         11    1    3    3    0    0  0.55075740959E+01  0.24031272640E+01  0.45819902576E+01  0.75566545542E+01  0.51100000000E-03 0. -1.
        -11    1    3    3    0    0 -0.34705536490E+01 -0.85919164331E+00  0.26655482124E+01  0.44596076559E+01  0.51100000000E-03 0.  1.
        -12    1    3    3    0    0  0.53453732756E+01  0.94536773635E+01  0.34082547721E+02  0.35771009075E+02  0.00000000000E+00 0.  1.
</event>
<event>
 7    1  0.2318319E-009  0.4778727E+02  0.7816164E-02  0.1312668E+00
        -11   -1    0    0    0    0  0.00000000000E+00  0.00000000000E+00  0.45593999997E+02  0.45594000000E+02  0.51100000000E-03 0.  1.
         11   -1    0    0    0    0 -0.00000000000E+00 -0.00000000000E+00 -0.45593999997E+02  0.45594000000E+02  0.51100000000E-03 0. -1.
    9900012    2    1    2    0    0 -0.56093261078E+00  0.41779267230E+02  0.11738887407E+02  0.47787270821E+02  0.19999998983E+02 0.  0.
         12    1    1    2    0    0  0.56093261078E+00 -0.41779267230E+02 -0.11738887407E+02  0.43400729179E+02  0.00000000000E+00 0. -1.
         11    1    3    3    0    0  0.23988152695E+01 -0.71662014401E+00  0.12706202334E+01  0.28075496731E+01  0.51100000000E-03 0. -1.
        -11    1    3    3    0    0 -0.11208534914E+00  0.47792050906E+01  0.47261022278E+01  0.67223066690E+01  0.51100000000E-03 0.  1.
        -12    1    3    3    0    0 -0.28476625311E+01  0.37716682284E+02  0.57421649456E+01  0.38257414479E+02  0.00000000000E+00 0.  1.
</event>
<event>
 7    1  0.2318319E-009  0.4778727E+02  0.7816164E-02  0.1312668E+00
        -11   -1    0    0    0    0  0.00000000000E+00  0.00000000000E+00  0.45593999997E+02  0.45594000000E+02  0.51100000000E-03 0.  1.
         11   -1    0    0    0    0 -0.00000000000E+00 -0.00000000000E+00 -0.45593999997E+02  0.45594000000E+02  0.51100000000E-03 0. -1.
    9900012    2    1    2    0    0  0.21599687975E+02  0.19366418094E+02  0.32280319260E+02  0.47787266343E+02  0.19999978565E+02 0.  0.
         12    1    1    2    0    0 -0.21599687975E+02 -0.19366418094E+02 -0.32280319260E+02  0.43400733657E+02  0.00000000000E+00 0. -1.
         11    1    3    3    0    0 -0.32911864989E+01  0.11300269480E+01  0.60044631704E+01  0.69399169807E+01  0.51100000000E-03 0. -1.
        -11    1    3    3    0    0  0.61527155916E+01  0.24688057262E+01  0.40036532415E+01  0.77446853005E+01  0.51100000000E-03 0.  1.
         12    1    3    3    0    0  0.18738158882E+02  0.15767585420E+02  0.22272202848E+02  0.33102664062E+02  0.00000000000E+00 0. -1.
</event>
<event>
 7    1  0.2318319E-009  0.4778726E+02  0.7816164E-02  0.1312668E+00
        -11   -1    0    0    0    0  0.00000000000E+00  0.00000000000E+00  0.45593999997E+02  0.45594000000E+02  0.51100000000E-03 0.  1.
         11   -1    0    0    0    0 -0.00000000000E+00 -0.00000000000E+00 -0.45593999997E+02  0.45594000000E+02  0.51100000000E-03 0. -1.
    9900012    2    1    2    0    0  0.22019850903E+02  0.31753730689E+02  0.19759821855E+02  0.47787264912E+02  0.19999972040E+02 0.  0.
         12    1    1    2    0    0 -0.22019850903E+02 -0.31753730689E+02 -0.19759821855E+02  0.43400735088E+02  0.00000000000E+00 0. -1.
         11    1    3    3    0    0  0.79822914932E+01  0.58630585317E+01 -0.55354378491E+00  0.99196191364E+01  0.51100000000E-03 0. -1.
        -11    1    3    3    0    0  0.93363772871E+01  0.80830625530E+01  0.32718782349E+01  0.12775328901E+02  0.51100000000E-03 0.  1.
        -12    1    3    3    0    0  0.47011821222E+01  0.17807609605E+02  0.17041487405E+02  0.25092316875E+02  0.00000000000E+00 0.  1.
</event>
<event>
 7    1  0.2318319E-009  0.4778730E+02  0.7816164E-02  0.1312668E+00
        -11   -1    0    0    0    0  0.00000000000E+00  0.00000000000E+00  0.45593999997E+02  0.45594000000E+02  0.51100000000E-03 0.  1.
         11   -1    0    0    0    0 -0.00000000000E+00 -0.00000000000E+00 -0.45593999997E+02  0.45594000000E+02  0.51100000000E-03 0. -1.
    9900012    2    1    2    0    0  0.27486946363E+02 -0.29686392505E+02  0.15710085891E+02  0.47787298173E+02  0.20000123691E+02 0.  0.
         12    1    1    2    0    0 -0.27486946363E+02  0.29686392505E+02 -0.15710085891E+02  0.43400701827E+02  0.00000000000E+00 0. -1.
         11    1    3    3    0    0 -0.16662649934E+01  0.10170511355E+01  0.11771034359E+01  0.22795624142E+01  0.51100000000E-03 0. -1.
        -11    1    3    3    0    0  0.89780562506E+01 -0.11921494442E+02  0.88912114514E+01  0.17371849789E+02  0.51100000000E-03 0.  1.
        -12    1    3    3    0    0  0.20175155106E+02 -0.18781949198E+02  0.56417710037E+01  0.28135885970E+02  0.00000000000E+00 0.  1.
</event>
<event>
 7    1  0.2318319E-009  0.4778727E+02  0.7816164E-02  0.1312668E+00
        -11   -1    0    0    0    0  0.00000000000E+00  0.00000000000E+00  0.45593999997E+02  0.45594000000E+02  0.51100000000E-03 0.  1.
         11   -1    0    0    0    0 -0.00000000000E+00 -0.00000000000E+00 -0.45593999997E+02  0.45594000000E+02  0.51100000000E-03 0. -1.
    9900012    2    1    2    0    0 -0.32814384814E+02 -0.97593123092E+01  0.26675742080E+02  0.47787271400E+02  0.20000001622E+02 0.  0.
         12    1    1    2    0    0  0.32814384814E+02  0.97593123092E+01 -0.26675742080E+02  0.43400728600E+02  0.00000000000E+00 0. -1.
         11    1    3    3    0    0 -0.21859323734E+01  0.28047835835E+01  0.14290922146E+01  0.38324164845E+01  0.51100000000E-03 0. -1.
        -11    1    3    3    0    0 -0.13074933668E+02 -0.15440621567E+01  0.29097672796E+01  0.13483499703E+02  0.51100000000E-03 0.  1.
         12    1    3    3    0    0 -0.17553518773E+02 -0.11020033736E+02  0.22336882585E+02  0.30471355213E+02  0.00000000000E+00 0. -1.
</event>
<event>
 7    1  0.2318319E-009  0.4778727E+02  0.7816164E-02  0.1312668E+00
        -11   -1    0    0    0    0  0.00000000000E+00  0.00000000000E+00  0.45593999997E+02  0.45594000000E+02  0.51100000000E-03 0.  1.
         11   -1    0    0    0    0 -0.00000000000E+00 -0.00000000000E+00 -0.45593999997E+02  0.45594000000E+02  0.51100000000E-03 0. -1.
    9900012    2    1    2    0    0 -0.10121174128E+02  0.20316955189E+02  0.36991985032E+02  0.47787265093E+02  0.19999972865E+02 0.  0.
         12    1    1    2    0    0  0.10121174128E+02 -0.20316955189E+02 -0.36991985032E+02  0.43400734907E+02  0.00000000000E+00 0. -1.
         11    1    3    3    0    0  0.25920296726E+01  0.10690801257E+02  0.22937606878E+02  0.25439057744E+02  0.51100000000E-03 0. -1.
        -11    1    3    3    0    0 -0.38265424835E+00  0.19954500855E+01 -0.16574115724E+00  0.20385572619E+01  0.51100000000E-03 0.  1.
        -12    1    3    3    0    0 -0.12330549552E+02  0.76307038465E+01  0.14220119311E+02  0.20309650087E+02  0.00000000000E+00 0.  1.
</event>
<event>
 7    1  0.2318319E-009  0.4778727E+02  0.7816164E-02  0.1312668E+00
        -11   -1    0    0    0    0  0.00000000000E+00  0.00000000000E+00  0.45593999997E+02  0.45594000000E+02  0.51100000000E-03 0.  1.
         11   -1    0    0    0    0 -0.00000000000E+00 -0.00000000000E+00 -0.45593999997E+02  0.45594000000E+02  0.51100000000E-03 0. -1.
    9900012    2    1    2    0    0 -0.47775842004E+01  0.41408749263E+02  0.12087738939E+02  0.47787271216E+02  0.20000000784E+02 0.  0.
         12    1    1    2    0    0  0.47775842004E+01 -0.41408749263E+02 -0.12087738939E+02  0.43400728784E+02  0.00000000000E+00 0. -1.
         11    1    3    3    0    0 -0.30892140507E+01  0.74731477037E+01 -0.10093214353E+01  0.81492275753E+01  0.51100000000E-03 0. -1.
        -11    1    3    3    0    0  0.63917732578E+01  0.88084678497E+01  0.23167291197E+01  0.11127043871E+02  0.51100000000E-03 0.  1.
        -12    1    3    3    0    0 -0.80801434075E+01  0.25127133709E+02  0.10780331254E+02  0.28510999770E+02  0.00000000000E+00 0.  1.
</event>
<event>
 7    1  0.2318319E-009  0.4778727E+02  0.7816164E-02  0.1312668E+00
        -11   -1    0    0    0    0  0.00000000000E+00  0.00000000000E+00  0.45593999997E+02  0.45594000000E+02  0.51100000000E-03 0. -1.
         11   -1    0    0    0    0 -0.00000000000E+00 -0.00000000000E+00 -0.45593999997E+02  0.45594000000E+02  0.51100000000E-03 0.  1.
    9900012    2    1    2    0    0 -0.41238378625E+02  0.64447159724E+01  0.11894758745E+02  0.47787268196E+02  0.19999987012E+02 0.  0.
         12    1    1    2    0    0  0.41238378625E+02 -0.64447159724E+01 -0.11894758745E+02  0.43400731804E+02  0.00000000000E+00 0. -1.
         11    1    3    3    0    0 -0.37356469369E+01  0.55460227386E+01  0.51006101054E+00  0.67062350652E+01  0.51100000000E-03 0. -1.
        -11    1    3    3    0    0 -0.13914347559E+02  0.54152933794E+01  0.76460581513E+01  0.16774882291E+02  0.51100000000E-03 0.  1.
         12    1    3    3    0    0 -0.23588384129E+02 -0.45166001456E+01  0.37386395828E+01  0.24306150839E+02  0.00000000000E+00 0. -1.
</event>
<event>
 7    1  0.2318319E-009  0.4778727E+02  0.7816164E-02  0.1312668E+00
        -11   -1    0    0    0    0  0.00000000000E+00  0.00000000000E+00  0.45593999997E+02  0.45594000000E+02  0.51100000000E-03 0.  1.
         11   -1    0    0    0    0 -0.00000000000E+00 -0.00000000000E+00 -0.45593999997E+02  0.45594000000E+02  0.51100000000E-03 0. -1.
    9900012    2    1    2    0    0  0.32591413876E+02  0.53898032401E+01  0.28149118363E+02  0.47787273024E+02  0.20000009027E+02 0.  0.
         12    1    1    2    0    0 -0.32591413876E+02 -0.53898032401E+01 -0.28149118363E+02  0.43400726976E+02  0.00000000000E+00 0. -1.
         11    1    3    3    0    0  0.11620362582E+02  0.44760887799E+01  0.11873041429E+02  0.17205734810E+02  0.51100000000E-03 0. -1.
        -11    1    3    3    0    0  0.86494135350E+01  0.75776594688E+01  0.47529866909E+01  0.12442835700E+02  0.51100000000E-03 0.  1.
         12    1    3    3    0    0  0.12321637760E+02 -0.66639450086E+01  0.11523090242E+02  0.18138702514E+02  0.00000000000E+00 0. -1.
</event>
<event>
 7    1  0.2318319E-009  0.4778727E+02  0.7816164E-02  0.1312668E+00
        -11   -1    0    0    0    0  0.00000000000E+00  0.00000000000E+00  0.45593999997E+02  0.45594000000E+02  0.51100000000E-03 0.  1.
         11   -1    0    0    0    0 -0.00000000000E+00 -0.00000000000E+00 -0.45593999997E+02  0.45594000000E+02  0.51100000000E-03 0. -1.
    9900012    2    1    2    0    0 -0.40479900220E+02  0.15649332159E+02 -0.31486504450E+00  0.47787273522E+02  0.20000011295E+02 0.  0.
         12    1    1    2    0    0  0.40479900220E+02 -0.15649332159E+02  0.31486504450E+00  0.43400726478E+02  0.00000000000E+00 0. -1.
         11    1    3    3    0    0 -0.37830601007E+00  0.64666880551E+00  0.13298695575E+01  0.15263843822E+01  0.51100000000E-03 0. -1.
        -11    1    3    3    0    0 -0.14256487415E+02  0.34967927726E+01 -0.87534841440E+01  0.17090888743E+02  0.51100000000E-03 0.  1.
         12    1    3    3    0    0 -0.25845106795E+02  0.11505870581E+02  0.71087495420E+01  0.29170000396E+02  0.00000000000E+00 0. -1.
</event>
<event>
 7    1  0.2318319E-009  0.4778727E+02  0.7816164E-02  0.1312668E+00
        -11   -1    0    0    0    0  0.00000000000E+00  0.00000000000E+00  0.45593999997E+02  0.45594000000E+02  0.51100000000E-03 0.  1.
         11   -1    0    0    0    0 -0.00000000000E+00 -0.00000000000E+00 -0.45593999997E+02  0.45594000000E+02  0.51100000000E-03 0. -1.
    9900012    2    1    2    0    0 -0.12974879231E+02  0.25217279360E+02  0.32853690115E+02  0.47787267016E+02  0.19999981631E+02 0.  0.
         12    1    1    2    0    0  0.12974879231E+02 -0.25217279360E+02 -0.32853690115E+02  0.43400732984E+02  0.00000000000E+00 0. -1.
         11    1    3    3    0    0 -0.50859163441E+01  0.90106368372E+01  0.40022925936E+01  0.11093983394E+02  0.51100000000E-03 0. -1.
        -11    1    3    3    0    0  0.12199193040E+01  0.66513339576E+01  0.24809736446E+01  0.72030324871E+01  0.51100000000E-03 0.  1.
        -12    1    3    3    0    0 -0.91088821914E+01  0.95553085654E+01  0.26370423877E+02  0.29490251135E+02  0.00000000000E+00 0.  1.
</event>
<event>
 7    1  0.2318319E-009  0.4778727E+02  0.7816164E-02  0.1312668E+00
        -11   -1    0    0    0    0  0.00000000000E+00  0.00000000000E+00  0.45593999997E+02  0.45594000000E+02  0.51100000000E-03 0.  1.
         11   -1    0    0    0    0 -0.00000000000E+00 -0.00000000000E+00 -0.45593999997E+02  0.45594000000E+02  0.51100000000E-03 0. -1.
    9900012    2    1    2    0    0  0.12203097140E+02 -0.41316452515E+02  0.52591263282E+01  0.47787271459E+02  0.20000001888E+02 0.  0.
         12    1    1    2    0    0 -0.12203097140E+02  0.41316452515E+02 -0.52591263282E+01  0.43400728541E+02  0.00000000000E+00 0. -1.
         11    1    3    3    0    0  0.27370321549E+01 -0.14079800716E+02 -0.41027734029E+01  0.14918608617E+02  0.51100000000E-03 0. -1.
        -11    1    3    3    0    0 -0.29031188744E+01 -0.84445584056E+01  0.16139538294E+01  0.90743326525E+01  0.51100000000E-03 0.  1.
         12    1    3    3    0    0  0.12369183859E+02 -0.18792093393E+02  0.77479459017E+01  0.23794330189E+02  0.00000000000E+00 0. -1.
</event>
<event>
 7    1  0.2318319E-009  0.4778727E+02  0.7816164E-02  0.1312668E+00
        -11   -1    0    0    0    0  0.00000000000E+00  0.00000000000E+00  0.45593999997E+02  0.45594000000E+02  0.51100000000E-03 0.  1.
         11   -1    0    0    0    0 -0.00000000000E+00 -0.00000000000E+00 -0.45593999997E+02  0.45594000000E+02  0.51100000000E-03 0. -1.
    9900012    2    1    2    0    0  0.78980598499E-01 -0.18563363688E+02  0.39230332331E+02  0.47787266318E+02  0.19999978449E+02 0.  0.
         12    1    1    2    0    0 -0.78980598499E-01  0.18563363688E+02 -0.39230332331E+02  0.43400733682E+02  0.00000000000E+00 0. -1.
         11    1    3    3    0    0  0.40515159600E+00 -0.17008604108E+02  0.22831370691E+02  0.28473290105E+02  0.51100000000E-03 0.  1.
        -11    1    3    3    0    0  0.28357789911E+01 -0.30080426208E+01  0.21764620639E+01  0.46719321775E+01  0.51100000000E-03 0. -1.
        -12    1    3    3    0    0 -0.31619499886E+01  0.14532830410E+01  0.14222499576E+02  0.14642044035E+02  0.00000000000E+00 0.  1.
</event>
<event>
 7    1  0.2318319E-009  0.4778727E+02  0.7816164E-02  0.1312668E+00
        -11   -1    0    0    0    0  0.00000000000E+00  0.00000000000E+00  0.45593999997E+02  0.45594000000E+02  0.51100000000E-03 0.  1.
         11   -1    0    0    0    0 -0.00000000000E+00 -0.00000000000E+00 -0.45593999997E+02  0.45594000000E+02  0.51100000000E-03 0. -1.
    9900012    2    1    2    0    0 -0.38556837815E+01  0.37566247893E+02  0.21390043996E+02  0.47787271201E+02  0.20000000712E+02 0.  0.
         12    1    1    2    0    0  0.38556837815E+01 -0.37566247893E+02 -0.21390043996E+02  0.43400728799E+02  0.00000000000E+00 0. -1.
         11    1    3    3    0    0  0.26296553535E+01  0.37565574923E+00  0.25330171017E+01  0.36704741409E+01  0.51100000000E-03 0. -1.
        -11    1    3    3    0    0 -0.28108069688E+01  0.32897051342E+00  0.15872495702E+01  0.32447216944E+01  0.51100000000E-03 0.  1.
        -12    1    3    3    0    0 -0.36745321662E+01  0.36861621630E+02  0.17269777324E+02  0.40872075365E+02  0.00000000000E+00 0.  1.
</event>
<event>
 7    1  0.2318319E-009  0.4778724E+02  0.7816164E-02  0.1312668E+00
        -11   -1    0    0    0    0  0.00000000000E+00  0.00000000000E+00  0.45593999997E+02  0.45594000000E+02  0.51100000000E-03 0.  1.
         11   -1    0    0    0    0 -0.00000000000E+00 -0.00000000000E+00 -0.45593999997E+02  0.45594000000E+02  0.51100000000E-03 0. -1.
    9900012    2    1    2    0    0 -0.55882654262E+01 -0.24603134636E+02  0.35314058732E+02  0.47787243226E+02  0.19999873165E+02 0.  0.
         12    1    1    2    0    0  0.55882654262E+01  0.24603134636E+02 -0.35314058732E+02  0.43400756774E+02  0.00000000000E+00 0. -1.
         11    1    3    3    0    0 -0.38152344916E+01 -0.93240946545E+01  0.34583632524E+01  0.10651527214E+02  0.51100000000E-03 0. -1.
        -11    1    3    3    0    0 -0.38204276165E+01 -0.14212513384E+01  0.13143139219E+02  0.13760731497E+02  0.51100000000E-03 0.  1.
        -12    1    3    3    0    0  0.20473966819E+01 -0.13857788643E+02  0.18712556261E+02  0.23374984515E+02  0.00000000000E+00 0.  1.
</event>
<event>
 7    1  0.2318319E-009  0.4778727E+02  0.7816164E-02  0.1312668E+00
        -11   -1    0    0    0    0  0.00000000000E+00  0.00000000000E+00  0.45593999997E+02  0.45594000000E+02  0.51100000000E-03 0.  1.
         11   -1    0    0    0    0 -0.00000000000E+00 -0.00000000000E+00 -0.45593999997E+02  0.45594000000E+02  0.51100000000E-03 0. -1.
    9900012    2    1    2    0    0  0.22274804424E+02 -0.37206788122E+02  0.17639353371E+01  0.47787268873E+02  0.19999990101E+02 0.  0.
         12    1    1    2    0    0 -0.22274804424E+02  0.37206788122E+02 -0.17639353371E+01  0.43400731127E+02  0.00000000000E+00 0. -1.
         11    1    3    3    0    0 -0.93941486644E+00 -0.87293691964E+01  0.18904093540E+01  0.89809818308E+01  0.51100000000E-03 0. -1.
        -11    1    3    3    0    0  0.70700144303E+01 -0.18152210991E+02  0.17072164890E+01  0.19555113303E+02  0.51100000000E-03 0.  1.
         12    1    3    3    0    0  0.16144204860E+02 -0.10325207934E+02 -0.18336905059E+01  0.19251173739E+02  0.00000000000E+00 0. -1.
</event>
<event>
 7    1  0.2318319E-009  0.4778727E+02  0.7816164E-02  0.1312668E+00
        -11   -1    0    0    0    0  0.00000000000E+00  0.00000000000E+00  0.45593999997E+02  0.45594000000E+02  0.51100000000E-03 0. -1.
         11   -1    0    0    0    0 -0.00000000000E+00 -0.00000000000E+00 -0.45593999997E+02  0.45594000000E+02  0.51100000000E-03 0.  1.
    9900012    2    1    2    0    0 -0.68284995872E+01  0.39328854177E+02 -0.17036323248E+02  0.47787268586E+02  0.19999988790E+02 0.  0.
         12    1    1    2    0    0  0.68284995872E+01 -0.39328854177E+02  0.17036323248E+02  0.43400731414E+02  0.00000000000E+00 0. -1.
         11    1    3    3    0    0 -0.35136722842E+00  0.10450503891E+01 -0.16377255861E+01  0.19742681180E+01  0.51100000000E-03 0. -1.
        -11    1    3    3    0    0 -0.31951836216E+01  0.36330931627E+02 -0.18498475682E+02  0.40894246466E+02  0.51100000000E-03 0.  1.
        -12    1    3    3    0    0 -0.32819487372E+01  0.19528721610E+01  0.30998780197E+01  0.49187540015E+01  0.00000000000E+00 0.  1.
</event>
<event>
 7    1  0.2318319E-009  0.4778727E+02  0.7816164E-02  0.1312668E+00
        -11   -1    0    0    0    0  0.00000000000E+00  0.00000000000E+00  0.45593999997E+02  0.45594000000E+02  0.51100000000E-03 0.  1.
         11   -1    0    0    0    0 -0.00000000000E+00 -0.00000000000E+00 -0.45593999997E+02  0.45594000000E+02  0.51100000000E-03 0. -1.
    9900012    2    1    2    0    0  0.33508413396E+02 -0.10724108088E+02  0.25412656093E+02  0.47787270141E+02  0.19999995882E+02 0.  0.
         12    1    1    2    0    0 -0.33508413396E+02  0.10724108088E+02 -0.25412656093E+02  0.43400729859E+02  0.00000000000E+00 0. -1.
         11    1    3    3    0    0  0.56785046856E+01 -0.96252422880E+01  0.78721762579E+01  0.13669742641E+02  0.51100000000E-03 0. -1.
        -11    1    3    3    0    0  0.41652028330E+01 -0.11559357205E+01 -0.51252946642E+00  0.43529057818E+01  0.51100000000E-03 0.  1.
        -12    1    3    3    0    0  0.23664705877E+02  0.57069920498E-01  0.18053009301E+02  0.29764621719E+02  0.00000000000E+00 0.  1.
</event>
<event>
 7    1  0.2318319E-009  0.4778727E+02  0.7816164E-02  0.1312668E+00
        -11   -1    0    0    0    0  0.00000000000E+00  0.00000000000E+00  0.45593999997E+02  0.45594000000E+02  0.51100000000E-03 0.  1.
         11   -1    0    0    0    0 -0.00000000000E+00 -0.00000000000E+00 -0.45593999997E+02  0.45594000000E+02  0.51100000000E-03 0. -1.
    9900012    2    1    2    0    0  0.27992748304E+02 -0.30918174703E+02  0.12004000929E+02  0.47787268176E+02  0.19999986921E+02 0.  0.
         12    1    1    2    0    0 -0.27992748304E+02  0.30918174703E+02 -0.12004000929E+02  0.43400731824E+02  0.00000000000E+00 0. -1.
         11    1    3    3    0    0 -0.93626524964E+00 -0.15504870437E+01 -0.26374208473E+01  0.31994674053E+01  0.51100000000E-03 0. -1.
        -11    1    3    3    0    0  0.36552276196E+01 -0.17628814774E+01 -0.73682756349E+00  0.41244824128E+01  0.51100000000E-03 0.  1.
        -12    1    3    3    0    0  0.25273785934E+02 -0.27604806181E+02  0.15378249340E+02  0.40463318358E+02  0.00000000000E+00 0.  1.
</event>
<event>
 7    1  0.2318319E-009  0.4778727E+02  0.7816164E-02  0.1312668E+00
        -11   -1    0    0    0    0  0.00000000000E+00  0.00000000000E+00  0.45593999997E+02  0.45594000000E+02  0.51100000000E-03 0.  1.
         11   -1    0    0    0    0 -0.00000000000E+00 -0.00000000000E+00 -0.45593999997E+02  0.45594000000E+02  0.51100000000E-03 0. -1.
    9900012    2    1    2    0    0 -0.22775310478E+02 -0.22130184029E+02  0.29583157755E+02  0.47787273793E+02  0.20000012532E+02 0.  0.
         12    1    1    2    0    0  0.22775310478E+02  0.22130184029E+02 -0.29583157755E+02  0.43400726207E+02  0.00000000000E+00 0. -1.
         11    1    3    3    0    0 -0.18781505429E+02 -0.19289979380E+02  0.12638626303E+02  0.29741942199E+02  0.51100000000E-03 0. -1.
        -11    1    3    3    0    0 -0.19047215117E+00  0.80156752832E-01 -0.17258285630E+00  0.26923938940E+00  0.51100000000E-03 0.  1.
        -12    1    3    3    0    0 -0.38033328981E+01 -0.29203614017E+01  0.17117114308E+02  0.17776092205E+02  0.00000000000E+00 0.  1.
</event>
<event>
 7    1  0.2318319E-009  0.4778729E+02  0.7816164E-02  0.1312668E+00
        -11   -1    0    0    0    0  0.00000000000E+00  0.00000000000E+00  0.45593999997E+02  0.45594000000E+02  0.51100000000E-03 0.  1.
         11   -1    0    0    0    0 -0.00000000000E+00 -0.00000000000E+00 -0.45593999997E+02  0.45594000000E+02  0.51100000000E-03 0. -1.
    9900012    2    1    2    0    0  0.60081504979E+01 -0.22064413996E+02  0.36887474981E+02  0.47787285169E+02  0.20000064397E+02 0.  0.
         12    1    1    2    0    0 -0.60081504979E+01  0.22064413996E+02 -0.36887474981E+02  0.43400714831E+02  0.00000000000E+00 0. -1.
         11    1    3    3    0    0  0.43409939789E+01  0.11809288650E+00  0.19756322555E+01  0.47708801834E+01  0.51100000000E-03 0. -1.
        -11    1    3    3    0    0  0.57421926937E+01 -0.83021171726E+01  0.10000972281E+02  0.14209763309E+02  0.51100000000E-03 0.  1.
         12    1    3    3    0    0 -0.40750361748E+01 -0.13880389710E+02  0.24910870445E+02  0.28806641676E+02  0.00000000000E+00 0. -1.
</event>
<event>
 7    1  0.2318319E-009  0.4778728E+02  0.7816164E-02  0.1312668E+00
        -11   -1    0    0    0    0  0.00000000000E+00  0.00000000000E+00  0.45593999997E+02  0.45594000000E+02  0.51100000000E-03 0. -1.
         11   -1    0    0    0    0 -0.00000000000E+00 -0.00000000000E+00 -0.45593999997E+02  0.45594000000E+02  0.51100000000E-03 0.  1.
    9900012    2    1    2    0    0  0.95623625173E+01  0.36196903697E+02 -0.21953774879E+02  0.47787275978E+02  0.20000022496E+02 0.  0.
         12    1    1    2    0    0 -0.95623625173E+01 -0.36196903697E+02  0.21953774879E+02  0.43400724022E+02  0.00000000000E+00 0. -1.
         11    1    3    3    0    0 -0.27500236664E+01  0.32422181414E+01 -0.15979035976E+01  0.45417953290E+01  0.51100000000E-03 0.  1.
        -11    1    3    3    0    0  0.36881677030E+01  0.15372001510E+02 -0.12049124039E+01  0.15854110684E+02  0.51100000000E-03 0. -1.
        -12    1    3    3    0    0  0.86242184807E+01  0.17582684046E+02 -0.19150958877E+02  0.27391369965E+02  0.00000000000E+00 0.  1.
</event>
<event>
 7    1  0.2318319E-009  0.4778727E+02  0.7816164E-02  0.1312668E+00
        -11   -1    0    0    0    0  0.00000000000E+00  0.00000000000E+00  0.45593999997E+02  0.45594000000E+02  0.51100000000E-03 0.  1.
         11   -1    0    0    0    0 -0.00000000000E+00 -0.00000000000E+00 -0.45593999997E+02  0.45594000000E+02  0.51100000000E-03 0. -1.
    9900012    2    1    2    0    0  0.39007367917E+01  0.36516937768E+02  0.23128359415E+02  0.47787268432E+02  0.19999988088E+02 0.  0.
         12    1    1    2    0    0 -0.39007367917E+01 -0.36516937768E+02 -0.23128359415E+02  0.43400731568E+02  0.00000000000E+00 0. -1.
         11    1    3    3    0    0  0.31890427906E+01  0.14502701645E+02  0.15036581302E+02  0.21132844731E+02  0.51100000000E-03 0. -1.
        -11    1    3    3    0    0  0.60774580312E+01  0.12534397209E+02  0.73144799625E+01  0.15733665399E+02  0.51100000000E-03 0.  1.
        -12    1    3    3    0    0 -0.53657640302E+01  0.94798389139E+01  0.77729815013E+00  0.10920758301E+02  0.00000000000E+00 0.  1.
</event>
<event>
 7    1  0.2318319E-009  0.4778724E+02  0.7816164E-02  0.1312668E+00
        -11   -1    0    0    0    0  0.00000000000E+00  0.00000000000E+00  0.45593999997E+02  0.45594000000E+02  0.51100000000E-03 0. -1.
         11   -1    0    0    0    0 -0.00000000000E+00 -0.00000000000E+00 -0.45593999997E+02  0.45594000000E+02  0.51100000000E-03 0.  1.
    9900012    2    1    2    0    0  0.35162686059E+02 -0.21443555902E+02  0.13688884688E+02  0.47787237972E+02  0.19999849208E+02 0.  0.
         12    1    1    2    0    0 -0.35162686059E+02  0.21443555902E+02 -0.13688884688E+02  0.43400762028E+02  0.00000000000E+00 0. -1.
         11    1    3    3    0    0  0.15574420317E+01 -0.34166655618E+01  0.24095195303E+01  0.44615035438E+01  0.51100000000E-03 0. -1.
        -11    1    3    3    0    0  0.22376806061E+02 -0.55163554743E+01  0.12944260916E+02  0.26433038382E+02  0.51100000000E-03 0.  1.
         12    1    3    3    0    0  0.11228437967E+02 -0.12510534866E+02 -0.16648957580E+01  0.16892696046E+02  0.00000000000E+00 0. -1.
</event>
<event>
 7    1  0.2318319E-009  0.4778727E+02  0.7816164E-02  0.1312668E+00
        -11   -1    0    0    0    0  0.00000000000E+00  0.00000000000E+00  0.45593999997E+02  0.45594000000E+02  0.51100000000E-03 0. -1.
         11   -1    0    0    0    0 -0.00000000000E+00 -0.00000000000E+00 -0.45593999997E+02  0.45594000000E+02  0.51100000000E-03 0.  1.
    9900012    2    1    2    0    0 -0.26174475804E+02 -0.23856921363E+02 -0.25087200623E+02  0.47787268259E+02  0.19999987302E+02 0.  0.
         12    1    1    2    0    0  0.26174475804E+02  0.23856921363E+02  0.25087200623E+02  0.43400731741E+02  0.00000000000E+00 0. -1.
         11    1    3    3    0    0 -0.33489612970E+01 -0.68642198673E+01  0.15103363692E+01  0.77855104113E+01  0.51100000000E-03 0. -1.
        -11    1    3    3    0    0 -0.70690365010E-02 -0.82981435369E+00 -0.38976805294E+01  0.39850414808E+01  0.51100000000E-03 0.  1.
        -12    1    3    3    0    0 -0.22818445470E+02 -0.16162887142E+02 -0.22699856463E+02  0.36016716367E+02  0.00000000000E+00 0.  1.
</event>
<event>
 7    1  0.2318319E-009  0.4778727E+02  0.7816164E-02  0.1312668E+00
        -11   -1    0    0    0    0  0.00000000000E+00  0.00000000000E+00  0.45593999997E+02  0.45594000000E+02  0.51100000000E-03 0. -1.
         11   -1    0    0    0    0 -0.00000000000E+00 -0.00000000000E+00 -0.45593999997E+02  0.45594000000E+02  0.51100000000E-03 0.  1.
    9900012    2    1    2    0    0 -0.25180808808E+02  0.35274161931E+02 -0.22986058550E+01  0.47787271653E+02  0.20000002774E+02 0.  0.
         12    1    1    2    0    0  0.25180808808E+02 -0.35274161931E+02  0.22986058550E+01  0.43400728347E+02  0.00000000000E+00 0. -1.
         11    1    3    3    0    0 -0.40956873493E+01  0.19030320364E+02 -0.49328514032E+01  0.20081353820E+02  0.51100000000E-03 0. -1.
        -11    1    3    3    0    0 -0.53728911684E+01  0.57227076549E+01 -0.22690799857E+01  0.81710505233E+01  0.51100000000E-03 0.  1.
        -12    1    3    3    0    0 -0.15712230291E+02  0.10521133912E+02  0.49033255338E+01  0.19534867310E+02  0.00000000000E+00 0.  1.
</event>
<event>
 7    1  0.2318319E-009  0.4778729E+02  0.7816164E-02  0.1312668E+00
        -11   -1    0    0    0    0  0.00000000000E+00  0.00000000000E+00  0.45593999997E+02  0.45594000000E+02  0.51100000000E-03 0. -1.
         11   -1    0    0    0    0 -0.00000000000E+00 -0.00000000000E+00 -0.45593999997E+02  0.45594000000E+02  0.51100000000E-03 0.  1.
    9900012    2    1    2    0    0 -0.41096248098E+02  0.87964248615E+01  0.10832511920E+02  0.47787285575E+02  0.20000066251E+02 0.  0.
         12    1    1    2    0    0  0.41096248098E+02 -0.87964248615E+01 -0.10832511920E+02  0.43400714425E+02  0.00000000000E+00 0. -1.
         11    1    3    3    0    0  0.38933091305E+00  0.28046605735E+01 -0.17503003185E+01  0.33288512972E+01  0.51100000000E-03 0. -1.
        -11    1    3    3    0    0 -0.14699975701E+02  0.55486287901E+01  0.29300638683E+01  0.15983173702E+02  0.51100000000E-03 0.  1.
        -12    1    3    3    0    0 -0.26785603310E+02  0.44313549788E+00  0.96527483706E+01  0.28475260576E+02  0.00000000000E+00 0.  1.
</event>
<event>
 7    1  0.2318319E-009  0.4778727E+02  0.7816164E-02  0.1312668E+00
        -11   -1    0    0    0    0  0.00000000000E+00  0.00000000000E+00  0.45593999997E+02  0.45594000000E+02  0.51100000000E-03 0.  1.
         11   -1    0    0    0    0 -0.00000000000E+00 -0.00000000000E+00 -0.45593999997E+02  0.45594000000E+02  0.51100000000E-03 0. -1.
    9900012    2    1    2    0    0  0.11046538596E+02 -0.28200571586E+02  0.31085769688E+02  0.47787270399E+02  0.19999997059E+02 0.  0.
         12    1    1    2    0    0 -0.11046538596E+02  0.28200571586E+02 -0.31085769688E+02  0.43400729601E+02  0.00000000000E+00 0. -1.
         11    1    3    3    0    0  0.68712900322E+01 -0.17543612770E+00  0.63378773382E+01  0.93495504682E+01  0.51100000000E-03 0. -1.
        -11    1    3    3    0    0  0.56508916965E+01 -0.12450997442E+02  0.13076691127E+02  0.18919824665E+02  0.51100000000E-03 0.  1.
         12    1    3    3    0    0 -0.14756431330E+01 -0.15574138017E+02  0.11671201223E+02  0.19517895266E+02  0.00000000000E+00 0. -1.
</event>
<event>
 7    1  0.2318319E-009  0.4778727E+02  0.7816164E-02  0.1312668E+00
        -11   -1    0    0    0    0  0.00000000000E+00  0.00000000000E+00  0.45593999997E+02  0.45594000000E+02  0.51100000000E-03 0.  1.
         11   -1    0    0    0    0 -0.00000000000E+00 -0.00000000000E+00 -0.45593999997E+02  0.45594000000E+02  0.51100000000E-03 0. -1.
    9900012    2    1    2    0    0 -0.24204111565E+02 -0.91368416658E+00  0.36013183796E+02  0.47787271405E+02  0.20000001646E+02 0.  0.
         12    1    1    2    0    0  0.24204111565E+02  0.91368416658E+00 -0.36013183796E+02  0.43400728595E+02  0.00000000000E+00 0. -1.
         11    1    3    3    0    0 -0.17523269171E+01 -0.93453402058E+00 -0.10534783699E+01  0.22480703719E+01  0.51100000000E-03 0. -1.
        -11    1    3    3    0    0  0.55736558995E+00 -0.23961104242E+01  0.92812992659E+00  0.26293396485E+01  0.51100000000E-03 0.  1.
        -12    1    3    3    0    0 -0.23009150238E+02  0.24169602782E+01  0.36138532239E+02  0.42909861385E+02  0.00000000000E+00 0.  1.
</event>
<event>
 7    1  0.2318319E-009  0.4778727E+02  0.7816164E-02  0.1312668E+00
        -11   -1    0    0    0    0  0.00000000000E+00  0.00000000000E+00  0.45593999997E+02  0.45594000000E+02  0.51100000000E-03 0.  1.
         11   -1    0    0    0    0 -0.00000000000E+00 -0.00000000000E+00 -0.45593999997E+02  0.45594000000E+02  0.51100000000E-03 0. -1.
    9900012    2    1    2    0    0  0.18923806748E+02  0.30989581247E+02  0.23773062350E+02  0.47787273034E+02  0.20000009072E+02 0.  0.
         12    1    1    2    0    0 -0.18923806748E+02 -0.30989581247E+02 -0.23773062350E+02  0.43400726966E+02  0.00000000000E+00 0. -1.
         11    1    3    3    0    0  0.33954315708E+00  0.76169261572E+00  0.36283390391E+01  0.37229436795E+01  0.51100000000E-03 0. -1.
        -11    1    3    3    0    0  0.16449243928E+02  0.11542253524E+02  0.77363078296E+01  0.21532573030E+02  0.51100000000E-03 0.  1.
        -12    1    3    3    0    0  0.21350196627E+01  0.18685635107E+02  0.12408415481E+02  0.22531756324E+02  0.00000000000E+00 0.  1.
</event>
<event>
 7    1  0.2318319E-009  0.4778727E+02  0.7816164E-02  0.1312668E+00
        -11   -1    0    0    0    0  0.00000000000E+00  0.00000000000E+00  0.45593999997E+02  0.45594000000E+02  0.51100000000E-03 0.  1.
         11   -1    0    0    0    0 -0.00000000000E+00 -0.00000000000E+00 -0.45593999997E+02  0.45594000000E+02  0.51100000000E-03 0. -1.
    9900012    2    1    2    0    0  0.25795883010E+02 -0.18623097136E+02  0.29519073882E+02  0.47787273623E+02  0.20000011758E+02 0.  0.
         12    1    1    2    0    0 -0.25795883010E+02  0.18623097136E+02 -0.29519073882E+02  0.43400726377E+02  0.00000000000E+00 0. -1.
         11    1    3    3    0    0  0.10944955815E+01  0.24735122271E+01 -0.59024472147E+00  0.27684964164E+01  0.51100000000E-03 0. -1.
        -11    1    3    3    0    0  0.18381374407E+01 -0.63210492310E+00  0.50192390608E+01  0.53824777654E+01  0.51100000000E-03 0.  1.
        -12    1    3    3    0    0  0.22863249987E+02 -0.20464504440E+02  0.25090079543E+02  0.39636299441E+02  0.00000000000E+00 0.  1.
</event>
<event>
 7    1  0.2318319E-009  0.4778727E+02  0.7816164E-02  0.1312668E+00
        -11   -1    0    0    0    0  0.00000000000E+00  0.00000000000E+00  0.45593999997E+02  0.45594000000E+02  0.51100000000E-03 0.  1.
         11   -1    0    0    0    0 -0.00000000000E+00 -0.00000000000E+00 -0.45593999997E+02  0.45594000000E+02  0.51100000000E-03 0. -1.
    9900012    2    1    2    0    0 -0.36640083558E+02  0.22483964176E+02  0.59664823796E+01  0.47787270972E+02  0.19999999669E+02 0.  0.
         12    1    1    2    0    0  0.36640083558E+02 -0.22483964176E+02 -0.59664823796E+01  0.43400729028E+02  0.00000000000E+00 0. -1.
         11    1    3    3    0    0 -0.26023991446E+02  0.16571550367E+02  0.74172336738E+00  0.30861214593E+02  0.51100000000E-03 0. -1.
        -11    1    3    3    0    0 -0.97367835526E+01  0.54561947136E+00  0.57173959078E+00  0.97688044805E+01  0.51100000000E-03 0.  1.
         12    1    3    3    0    0 -0.87930855974E+00  0.53667943373E+01  0.46530194215E+01  0.71572518985E+01  0.00000000000E+00 0. -1.
</event>
<event>
 7    1  0.2318319E-009  0.4778727E+02  0.7816164E-02  0.1312668E+00
        -11   -1    0    0    0    0  0.00000000000E+00  0.00000000000E+00  0.45593999997E+02  0.45594000000E+02  0.51100000000E-03 0.  1.
         11   -1    0    0    0    0 -0.00000000000E+00 -0.00000000000E+00 -0.45593999997E+02  0.45594000000E+02  0.51100000000E-03 0. -1.
    9900012    2    1    2    0    0  0.31523044646E+02 -0.29785491680E+02  0.16569765001E+01  0.47787269252E+02  0.19999991825E+02 0.  0.
         12    1    1    2    0    0 -0.31523044646E+02  0.29785491680E+02 -0.16569765001E+01  0.43400730748E+02  0.00000000000E+00 0. -1.
         11    1    3    3    0    0  0.39629520718E+01  0.24499229299E+00  0.20021691049E+01  0.44467619379E+01  0.51100000000E-03 0. -1.
        -11    1    3    3    0    0  0.24148751142E+02 -0.20791713008E+02  0.48053778339E+01  0.32226528946E+02  0.51100000000E-03 0.  1.
        -12    1    3    3    0    0  0.34113414325E+01 -0.92387709649E+01 -0.51505704387E+01  0.11113978368E+02  0.00000000000E+00 0.  1.
</event>
<event>
 7    1  0.2318319E-009  0.4778727E+02  0.7816164E-02  0.1312668E+00
        -11   -1    0    0    0    0  0.00000000000E+00  0.00000000000E+00  0.45593999997E+02  0.45594000000E+02  0.51100000000E-03 0.  1.
         11   -1    0    0    0    0 -0.00000000000E+00 -0.00000000000E+00 -0.45593999997E+02  0.45594000000E+02  0.51100000000E-03 0. -1.
    9900012    2    1    2    0    0  0.88831384144E+01 -0.36916010219E+02  0.21021920954E+02  0.47787272827E+02  0.20000008128E+02 0.  0.
         12    1    1    2    0    0 -0.88831384144E+01  0.36916010219E+02 -0.21021920954E+02  0.43400727173E+02  0.00000000000E+00 0. -1.
         11    1    3    3    0    0  0.44222909736E+00 -0.13374533637E+02  0.11554971494E+01  0.13431637670E+02  0.51100000000E-03 0. -1.
        -11    1    3    3    0    0  0.65342957014E+01 -0.20822644615E+02  0.10114343598E+02  0.24053679464E+02  0.51100000000E-03 0.  1.
        -12    1    3    3    0    0  0.19066136156E+01 -0.27188319663E+01  0.97520802067E+01  0.10301955693E+02  0.00000000000E+00 0.  1.
</event>
<event>
 7    1  0.2318319E-009  0.4778727E+02  0.7816164E-02  0.1312668E+00
        -11   -1    0    0    0    0  0.00000000000E+00  0.00000000000E+00  0.45593999997E+02  0.45594000000E+02  0.51100000000E-03 0. -1.
         11   -1    0    0    0    0 -0.00000000000E+00 -0.00000000000E+00 -0.45593999997E+02  0.45594000000E+02  0.51100000000E-03 0.  1.
    9900012    2    1    2    0    0  0.36425134617E+02  0.23591935847E+02 -0.50391298894E+00  0.47787265016E+02  0.19999972513E+02 0.  0.
         12    1    1    2    0    0 -0.36425134617E+02 -0.23591935847E+02  0.50391298894E+00  0.43400734984E+02  0.00000000000E+00 0. -1.
         11    1    3    3    0    0  0.72871089869E+01  0.90279478493E+01  0.33140813064E+01  0.12066023990E+02  0.51100000000E-03 0. -1.
        -11    1    3    3    0    0  0.13229562482E+02  0.13773690896E+02  0.86917470694E+00  0.19117828049E+02  0.51100000000E-03 0.  1.
        -12    1    3    3    0    0  0.15908463148E+02  0.79029710159E+00 -0.46871690023E+01  0.16603412977E+02  0.00000000000E+00 0.  1.
</event>
<event>
 7    1  0.2318319E-009  0.4778728E+02  0.7816164E-02  0.1312668E+00
        -11   -1    0    0    0    0  0.00000000000E+00  0.00000000000E+00  0.45593999997E+02  0.45594000000E+02  0.51100000000E-03 0.  1.
         11   -1    0    0    0    0 -0.00000000000E+00 -0.00000000000E+00 -0.45593999997E+02  0.45594000000E+02  0.51100000000E-03 0. -1.
    9900012    2    1    2    0    0  0.12815143977E+02 -0.33901894747E+01  0.41326759317E+02  0.47787281855E+02  0.20000049291E+02 0.  0.
         12    1    1    2    0    0 -0.12815143977E+02  0.33901894747E+01 -0.41326759317E+02  0.43400718145E+02  0.00000000000E+00 0. -1.
         11    1    3    3    0    0  0.10120510650E+02 -0.43287367633E+01  0.13639670634E+02  0.17527216352E+02  0.51100000000E-03 0. -1.
        -11    1    3    3    0    0  0.28326569898E+00 -0.53824042244E+01  0.10861098228E+02  0.12124931738E+02  0.51100000000E-03 0.  1.
        -12    1    3    3    0    0  0.24113676277E+01  0.63209515129E+01  0.16825990455E+02  0.18135133765E+02  0.00000000000E+00 0.  1.
</event>
<event>
 7    1  0.2318319E-009  0.4778726E+02  0.7816164E-02  0.1312668E+00
        -11   -1    0    0    0    0  0.00000000000E+00  0.00000000000E+00  0.45593999997E+02  0.45594000000E+02  0.51100000000E-03 0.  1.
         11   -1    0    0    0    0 -0.00000000000E+00 -0.00000000000E+00 -0.45593999997E+02  0.45594000000E+02  0.51100000000E-03 0. -1.
    9900012    2    1    2    0    0 -0.99184616637E+01 -0.37781143352E+02  0.18916478135E+02  0.47787264755E+02  0.19999971325E+02 0.  0.
         12    1    1    2    0    0  0.99184616637E+01  0.37781143352E+02 -0.18916478135E+02  0.43400735245E+02  0.00000000000E+00 0. -1.
         11    1    3    3    0    0 -0.57475053961E+01 -0.18185073507E+02  0.71762894306E+01  0.20377189379E+02  0.51100000000E-03 0.  1.
        -11    1    3    3    0    0 -0.25669691210E+01 -0.43792587247E+01 -0.32195561716E+01  0.60110547867E+01  0.51100000000E-03 0. -1.
        -12    1    3    3    0    0 -0.16039871466E+01 -0.15216811121E+02  0.14959744876E+02  0.21399020590E+02  0.00000000000E+00 0.  1.
</event>
<event>
 7    1  0.2318319E-009  0.4778727E+02  0.7816164E-02  0.1312668E+00
        -11   -1    0    0    0    0  0.00000000000E+00  0.00000000000E+00  0.45593999997E+02  0.45594000000E+02  0.51100000000E-03 0.  1.
         11   -1    0    0    0    0 -0.00000000000E+00 -0.00000000000E+00 -0.45593999997E+02  0.45594000000E+02  0.51100000000E-03 0. -1.
    9900012    2    1    2    0    0  0.38416874266E+01  0.15532497217E+02  0.40343601612E+02  0.47787271630E+02  0.20000002669E+02 0.  0.
         12    1    1    2    0    0 -0.38416874266E+01 -0.15532497217E+02 -0.40343601612E+02  0.43400728370E+02  0.00000000000E+00 0. -1.
         11    1    3    3    0    0  0.28691333165E+00  0.11914662936E+02  0.39604853598E+02  0.41359230419E+02  0.51100000000E-03 0. -1.
        -11    1    3    3    0    0  0.79644926062E-01  0.11245861684E+01  0.17042530383E+01  0.20434079485E+01  0.51100000000E-03 0.  1.
         12    1    3    3    0    0  0.34751291689E+01  0.24932481121E+01 -0.96550502417E+00  0.43846332618E+01  0.00000000000E+00 0. -1.
</event>
<event>
 7    1  0.2318319E-009  0.4778727E+02  0.7816164E-02  0.1312668E+00
        -11   -1    0    0    0    0  0.00000000000E+00  0.00000000000E+00  0.45593999997E+02  0.45594000000E+02  0.51100000000E-03 0.  1.
         11   -1    0    0    0    0 -0.00000000000E+00 -0.00000000000E+00 -0.45593999997E+02  0.45594000000E+02  0.51100000000E-03 0. -1.
    9900012    2    1    2    0    0  0.26031066343E+02 -0.69118786773E+01  0.34032820973E+02  0.47787269762E+02  0.19999994153E+02 0.  0.
         12    1    1    2    0    0 -0.26031066343E+02  0.69118786773E+01 -0.34032820973E+02  0.43400730238E+02  0.00000000000E+00 0. -1.
         11    1    3    3    0    0  0.18829631542E+02 -0.71960205853E+01  0.17450372983E+02  0.26661831403E+02  0.51100000000E-03 0. -1.
        -11    1    3    3    0    0  0.81203906176E+01  0.25278353782E+01  0.63611180253E+01  0.10620476368E+02  0.51100000000E-03 0.  1.
         12    1    3    3    0    0 -0.91895581687E+00 -0.22436934701E+01  0.10221329965E+02  0.10504961991E+02  0.00000000000E+00 0. -1.
</event>
<event>
 7    1  0.2318319E-009  0.4778727E+02  0.7816164E-02  0.1312668E+00
        -11   -1    0    0    0    0  0.00000000000E+00  0.00000000000E+00  0.45593999997E+02  0.45594000000E+02  0.51100000000E-03 0.  1.
         11   -1    0    0    0    0 -0.00000000000E+00 -0.00000000000E+00 -0.45593999997E+02  0.45594000000E+02  0.51100000000E-03 0. -1.
    9900012    2    1    2    0    0 -0.32665084433E+02 -0.28464736190E+02  0.25247773218E+01  0.47787269039E+02  0.19999990858E+02 0.  0.
         12    1    1    2    0    0  0.32665084433E+02  0.28464736190E+02 -0.25247773218E+01  0.43400730961E+02  0.00000000000E+00 0. -1.
         11    1    3    3    0    0 -0.73564159440E+01 -0.45936574792E+01  0.55074971050E+01  0.10273805001E+02  0.51100000000E-03 0. -1.
        -11    1    3    3    0    0 -0.22497262286E+02 -0.18762349970E+02  0.26400064332E+01  0.29412960086E+02  0.51100000000E-03 0.  1.
         12    1    3    3    0    0 -0.28114062028E+01 -0.51087287407E+01 -0.56227262163E+01  0.81005039527E+01  0.00000000000E+00 0. -1.
</event>
<event>
 7    1  0.2318319E-009  0.4778727E+02  0.7816164E-02  0.1312668E+00
        -11   -1    0    0    0    0  0.00000000000E+00  0.00000000000E+00  0.45593999997E+02  0.45594000000E+02  0.51100000000E-03 0.  1.
         11   -1    0    0    0    0 -0.00000000000E+00 -0.00000000000E+00 -0.45593999997E+02  0.45594000000E+02  0.51100000000E-03 0. -1.
    9900012    2    1    2    0    0  0.36016145042E+02 -0.17641815113E+02  0.16589971116E+02  0.47787268603E+02  0.19999988868E+02 0.  0.
         12    1    1    2    0    0 -0.36016145042E+02  0.17641815113E+02 -0.16589971116E+02  0.43400731397E+02  0.00000000000E+00 0. -1.
         11    1    3    3    0    0  0.10062919394E+02 -0.53968666482E+01  0.49887029916E+01  0.12460966020E+02  0.51100000000E-03 0.  1.
        -11    1    3    3    0    0  0.66339687011E+01 -0.11266600321E+02  0.63491655300E+00  0.13090032193E+02  0.51100000000E-03 0. -1.
         12    1    3    3    0    0  0.19319256947E+02 -0.97834814352E+00  0.10966351572E+02  0.22236270390E+02  0.00000000000E+00 0. -1.
</event>
<event>
 7    1  0.2318319E-009  0.4778727E+02  0.7816164E-02  0.1312668E+00
        -11   -1    0    0    0    0  0.00000000000E+00  0.00000000000E+00  0.45593999997E+02  0.45594000000E+02  0.51100000000E-03 0. -1.
         11   -1    0    0    0    0 -0.00000000000E+00 -0.00000000000E+00 -0.45593999997E+02  0.45594000000E+02  0.51100000000E-03 0.  1.
    9900012    2    1    2    0    0 -0.36277273702E+02  0.17743834983E+02 -0.15897757668E+02  0.47787274591E+02  0.20000016170E+02 0.  0.
         12    1    1    2    0    0  0.36277273702E+02 -0.17743834983E+02  0.15897757668E+02  0.43400725409E+02  0.00000000000E+00 0. -1.
         11    1    3    3    0    0 -0.32808495281E+01  0.35408936707E+01 -0.92564345457E+00  0.49151518470E+01  0.51100000000E-03 0. -1.
        -11    1    3    3    0    0 -0.40597101644E+01  0.41760834382E+01  0.37978315885E+01  0.69530169378E+01  0.51100000000E-03 0.  1.
         12    1    3    3    0    0 -0.28936714010E+02  0.10026857874E+02 -0.18769945802E+02  0.35919105806E+02  0.00000000000E+00 0. -1.
</event>
<event>
 7    1  0.2318319E-009  0.4778727E+02  0.7816164E-02  0.1312668E+00
        -11   -1    0    0    0    0  0.00000000000E+00  0.00000000000E+00  0.45593999997E+02  0.45594000000E+02  0.51100000000E-03 0.  1.
         11   -1    0    0    0    0 -0.00000000000E+00 -0.00000000000E+00 -0.45593999997E+02  0.45594000000E+02  0.51100000000E-03 0. -1.
    9900012    2    1    2    0    0  0.15078332407E+02 -0.10184124615E+02  0.39402418579E+02  0.47787273137E+02  0.20000009540E+02 0.  0.
         12    1    1    2    0    0 -0.15078332407E+02  0.10184124615E+02 -0.39402418579E+02  0.43400726863E+02  0.00000000000E+00 0. -1.
         11    1    3    3    0    0 -0.22707756862E+01  0.55846505081E+00  0.17319854486E+01  0.29099964408E+01  0.51100000000E-03 0. -1.
        -11    1    3    3    0    0  0.16077646190E+01 -0.73308818758E+01  0.17668405050E+02  0.19196334896E+02  0.51100000000E-03 0.  1.
        -12    1    3    3    0    0  0.15741343475E+02 -0.34117077896E+01  0.20002028080E+02  0.25680941800E+02  0.00000000000E+00 0.  1.
</event>
<event>
 7    1  0.2318319E-009  0.4778727E+02  0.7816164E-02  0.1312668E+00
        -11   -1    0    0    0    0  0.00000000000E+00  0.00000000000E+00  0.45593999997E+02  0.45594000000E+02  0.51100000000E-03 0.  1.
         11   -1    0    0    0    0 -0.00000000000E+00 -0.00000000000E+00 -0.45593999997E+02  0.45594000000E+02  0.51100000000E-03 0. -1.
    9900012    2    1    2    0    0  0.40721071965E+02  0.59496956367E+01  0.13784718444E+02  0.47787273707E+02  0.20000012141E+02 0.  0.
         12    1    1    2    0    0 -0.40721071965E+02 -0.59496956367E+01 -0.13784718444E+02  0.43400726293E+02  0.00000000000E+00 0. -1.
         11    1    3    3    0    0  0.13283178334E+02 -0.54372778886E+00  0.11916822329E+02  0.17853546461E+02  0.51100000000E-03 0.  1.
        -11    1    3    3    0    0  0.36928262600E+00 -0.15807868989E+01  0.22443772448E+00  0.16387890135E+01  0.51100000000E-03 0. -1.
        -12    1    3    3    0    0  0.27068611005E+02  0.80742103244E+01  0.16434583908E+01  0.28294938232E+02  0.00000000000E+00 0.  1.
</event>
<event>
 7    1  0.2318319E-009  0.4778727E+02  0.7816164E-02  0.1312668E+00
        -11   -1    0    0    0    0  0.00000000000E+00  0.00000000000E+00  0.45593999997E+02  0.45594000000E+02  0.51100000000E-03 0.  1.
         11   -1    0    0    0    0 -0.00000000000E+00 -0.00000000000E+00 -0.45593999997E+02  0.45594000000E+02  0.51100000000E-03 0. -1.
    9900012    2    1    2    0    0 -0.71961464690E+01 -0.11942648670E+02  0.41100025099E+02  0.47787269080E+02  0.19999991042E+02 0.  0.
         12    1    1    2    0    0  0.71961464690E+01  0.11942648670E+02 -0.41100025099E+02  0.43400730920E+02  0.00000000000E+00 0. -1.
         11    1    3    3    0    0 -0.30288096220E+01 -0.57651483005E+01  0.37858611283E+01  0.75328193524E+01  0.51100000000E-03 0. -1.
        -11    1    3    3    0    0 -0.56847913948E+01  0.84730579320E-01  0.59280733549E+01  0.82137741895E+01  0.51100000000E-03 0.  1.
        -12    1    3    3    0    0  0.15174545478E+01 -0.62622309488E+01  0.31386090616E+02  0.32040675538E+02  0.00000000000E+00 0.  1.
</event>
<event>
 7    1  0.2318319E-009  0.4778726E+02  0.7816164E-02  0.1312668E+00
        -11   -1    0    0    0    0  0.00000000000E+00  0.00000000000E+00  0.45593999997E+02  0.45594000000E+02  0.51100000000E-03 0.  1.
         11   -1    0    0    0    0 -0.00000000000E+00 -0.00000000000E+00 -0.45593999997E+02  0.45594000000E+02  0.51100000000E-03 0. -1.
    9900012    2    1    2    0    0  0.37041139632E+02  0.21074490774E+02  0.82124454226E+01  0.47787257536E+02  0.19999938409E+02 0.  0.
         12    1    1    2    0    0 -0.37041139632E+02 -0.21074490774E+02 -0.82124454226E+01  0.43400742464E+02  0.00000000000E+00 0. -1.
         11    1    3    3    0    0  0.68098342043E+01  0.48801356295E+01  0.76497774126E+01  0.11344983930E+02  0.51100000000E-03 0. -1.
        -11    1    3    3    0    0  0.31253867402E+02  0.16297312061E+02  0.11347431207E+01  0.35266049541E+02  0.51100000000E-03 0.  1.
         12    1    3    3    0    0 -0.10225619744E+01 -0.10295691691E+00 -0.57207511069E+00  0.11762240648E+01  0.00000000000E+00 0. -1.
</event>
<event>
 7    1  0.2318319E-009  0.4778727E+02  0.7816164E-02  0.1312668E+00
        -11   -1    0    0    0    0  0.00000000000E+00  0.00000000000E+00  0.45593999997E+02  0.45594000000E+02  0.51100000000E-03 0. -1.
         11   -1    0    0    0    0 -0.00000000000E+00 -0.00000000000E+00 -0.45593999997E+02  0.45594000000E+02  0.51100000000E-03 0.  1.
    9900012    2    1    2    0    0 -0.36810643644E+02  0.10652721392E+02 -0.20374474935E+02  0.47787272041E+02  0.20000004543E+02 0.  0.
         12    1    1    2    0    0  0.36810643644E+02 -0.10652721392E+02  0.20374474935E+02  0.43400727959E+02  0.00000000000E+00 0. -1.
         11    1    3    3    0    0 -0.78453265873E+01  0.76143748482E+01 -0.58042731613E+00  0.10948276107E+02  0.51100000000E-03 0. -1.
        -11    1    3    3    0    0 -0.89625579587E+01  0.30051526670E+01 -0.12001420653E+01  0.95288367052E+01  0.51100000000E-03 0.  1.
        -12    1    3    3    0    0 -0.20002759098E+02  0.33193876713E-01 -0.18593905553E+02  0.27310159228E+02  0.00000000000E+00 0.  1.
</event>
<event>
 7    1  0.2318319E-009  0.4778727E+02  0.7816164E-02  0.1312668E+00
        -11   -1    0    0    0    0  0.00000000000E+00  0.00000000000E+00  0.45593999997E+02  0.45594000000E+02  0.51100000000E-03 0. -1.
         11   -1    0    0    0    0 -0.00000000000E+00 -0.00000000000E+00 -0.45593999997E+02  0.45594000000E+02  0.51100000000E-03 0.  1.
    9900012    2    1    2    0    0 -0.23198866003E+02 -0.36103470733E+02 -0.64788266744E+01  0.47787272150E+02  0.20000005041E+02 0.  0.
         12    1    1    2    0    0  0.23198866003E+02  0.36103470733E+02  0.64788266744E+01  0.43400727850E+02  0.00000000000E+00 0. -1.
         11    1    3    3    0    0 -0.12732055442E+01 -0.18714684919E+01  0.37364396179E+01  0.43685727593E+01  0.51100000000E-03 0. -1.
        -11    1    3    3    0    0 -0.47117880766E+01 -0.52567553907E+01  0.23642383181E+01  0.74447328496E+01  0.51100000000E-03 0.  1.
        -12    1    3    3    0    0 -0.17213872382E+02 -0.28975246851E+02 -0.12579504610E+02  0.35973966541E+02  0.00000000000E+00 0.  1.
</event>
<event>
 7    1  0.2318319E-009  0.4778726E+02  0.7816164E-02  0.1312668E+00
        -11   -1    0    0    0    0  0.00000000000E+00  0.00000000000E+00  0.45593999997E+02  0.45594000000E+02  0.51100000000E-03 0. -1.
         11   -1    0    0    0    0 -0.00000000000E+00 -0.00000000000E+00 -0.45593999997E+02  0.45594000000E+02  0.51100000000E-03 0.  1.
    9900012    2    1    2    0    0 -0.28880634499E+02  0.24976732418E+02 -0.20632398487E+02  0.47787261773E+02  0.19999957726E+02 0.  0.
         12    1    1    2    0    0  0.28880634499E+02 -0.24976732418E+02  0.20632398487E+02  0.43400738227E+02  0.00000000000E+00 0. -1.
         11    1    3    3    0    0  0.24400677758E+01  0.12986364463E+01 -0.15476459223E+00  0.27684543902E+01  0.51100000000E-03 0.  1.
        -11    1    3    3    0    0 -0.29478573591E+01 -0.25750910298E+00 -0.18091066151E+01  0.34682907827E+01  0.51100000000E-03 0. -1.
        -12    1    3    3    0    0 -0.28372844916E+02  0.23935605075E+02 -0.18668527280E+02  0.41550516600E+02  0.00000000000E+00 0.  1.
</event>
<event>
 7    1  0.2318319E-009  0.4778727E+02  0.7816164E-02  0.1312668E+00
        -11   -1    0    0    0    0  0.00000000000E+00  0.00000000000E+00  0.45593999997E+02  0.45594000000E+02  0.51100000000E-03 0.  1.
         11   -1    0    0    0    0 -0.00000000000E+00 -0.00000000000E+00 -0.45593999997E+02  0.45594000000E+02  0.51100000000E-03 0. -1.
    9900012    2    1    2    0    0  0.12112781453E+01  0.41108316058E+02  0.13865871246E+02  0.47787271558E+02  0.20000002342E+02 0.  0.
         12    1    1    2    0    0 -0.12112781453E+01 -0.41108316058E+02 -0.13865871246E+02  0.43400728442E+02  0.00000000000E+00 0. -1.
         11    1    3    3    0    0  0.58685999711E+00  0.14674799267E+02 -0.31507349169E+00  0.14689908432E+02  0.51100000000E-03 0. -1.
        -11    1    3    3    0    0  0.23269929326E+01 -0.91050963712E+00  0.95577615168E+00  0.26753377770E+01  0.51100000000E-03 0.  1.
        -12    1    3    3    0    0 -0.17025747844E+01  0.27344026428E+02  0.13225168586E+02  0.30422025349E+02  0.00000000000E+00 0.  1.
</event>
<event>
 7    1  0.2318319E-009  0.4778726E+02  0.7816164E-02  0.1312668E+00
        -11   -1    0    0    0    0  0.00000000000E+00  0.00000000000E+00  0.45593999997E+02  0.45594000000E+02  0.51100000000E-03 0.  1.
         11   -1    0    0    0    0 -0.00000000000E+00 -0.00000000000E+00 -0.45593999997E+02  0.45594000000E+02  0.51100000000E-03 0. -1.
    9900012    2    1    2    0    0 -0.16780641789E+02 -0.31302474325E+01  0.39902832706E+02  0.47787257544E+02  0.19999938444E+02 0.  0.
         12    1    1    2    0    0  0.16780641789E+02  0.31302474325E+01 -0.39902832706E+02  0.43400742456E+02  0.00000000000E+00 0. -1.
         11    1    3    3    0    0 -0.15999992754E+01 -0.22912245148E+01  0.13101495749E+01  0.30864542161E+01  0.51100000000E-03 0.  1.
        -11    1    3    3    0    0 -0.14897218012E+02  0.17872197319E+01  0.15925366059E+02  0.21880094681E+02  0.51100000000E-03 0. -1.
         12    1    3    3    0    0 -0.28342450115E+00 -0.26262426497E+01  0.22667317071E+02  0.22820708646E+02  0.00000000000E+00 0. -1.
</event>
<event>
 7    1  0.2318319E-009  0.4778728E+02  0.7816164E-02  0.1312668E+00
        -11   -1    0    0    0    0  0.00000000000E+00  0.00000000000E+00  0.45593999997E+02  0.45594000000E+02  0.51100000000E-03 0.  1.
         11   -1    0    0    0    0 -0.00000000000E+00 -0.00000000000E+00 -0.45593999997E+02  0.45594000000E+02  0.51100000000E-03 0. -1.
    9900012    2    1    2    0    0  0.11895289894E+02  0.41669768370E+02  0.23990009121E+01  0.47787277390E+02  0.20000028934E+02 0.  0.
         12    1    1    2    0    0 -0.11895289894E+02 -0.41669768370E+02 -0.23990009121E+01  0.43400722610E+02  0.00000000000E+00 0. -1.
         11    1    3    3    0    0  0.76315975895E+01  0.47532993048E+01  0.36668373167E+01  0.97098317296E+01  0.51100000000E-03 0. -1.
        -11    1    3    3    0    0  0.16888257265E+01  0.10845023035E+02 -0.41218165089E+01  0.11724164301E+02  0.51100000000E-03 0.  1.
        -12    1    3    3    0    0  0.25748665784E+01  0.26071446030E+02  0.28539801042E+01  0.26353281360E+02  0.00000000000E+00 0.  1.
</event>
<event>
 7    1  0.2318319E-009  0.4778727E+02  0.7816164E-02  0.1312668E+00
        -11   -1    0    0    0    0  0.00000000000E+00  0.00000000000E+00  0.45593999997E+02  0.45594000000E+02  0.51100000000E-03 0.  1.
         11   -1    0    0    0    0 -0.00000000000E+00 -0.00000000000E+00 -0.45593999997E+02  0.45594000000E+02  0.51100000000E-03 0. -1.
    9900012    2    1    2    0    0 -0.17035407688E+00  0.38055069153E+01  0.43233232056E+02  0.47787271234E+02  0.20000000864E+02 0.  0.
         12    1    1    2    0    0  0.17035407688E+00 -0.38055069153E+01 -0.43233232056E+02  0.43400728766E+02  0.00000000000E+00 0. -1.
         11    1    3    3    0    0 -0.12488172293E+01  0.11777925450E+01 -0.15523500039E+01  0.23144179716E+01  0.51100000000E-03 0. -1.
        -11    1    3    3    0    0  0.23778359282E+01 -0.96745314582E+00  0.63742295275E+01  0.68717444380E+01  0.51100000000E-03 0.  1.
        -12    1    3    3    0    0 -0.12993727757E+01  0.35951675161E+01  0.38411352533E+02  0.38601108824E+02  0.00000000000E+00 0.  1.
</event>
<event>
 7    1  0.2318319E-009  0.4778727E+02  0.7816164E-02  0.1312668E+00
        -11   -1    0    0    0    0  0.00000000000E+00  0.00000000000E+00  0.45593999997E+02  0.45594000000E+02  0.51100000000E-03 0.  1.
         11   -1    0    0    0    0 -0.00000000000E+00 -0.00000000000E+00 -0.45593999997E+02  0.45594000000E+02  0.51100000000E-03 0. -1.
    9900012    2    1    2    0    0 -0.28799998305E+02  0.14843265254E+02  0.28876643243E+02  0.47787274767E+02  0.20000016974E+02 0.  0.
         12    1    1    2    0    0  0.28799998305E+02 -0.14843265254E+02 -0.28876643243E+02  0.43400725233E+02  0.00000000000E+00 0. -1.
         11    1    3    3    0    0 -0.35678413324E+01  0.11651912813E+01  0.29122766070E+01  0.47506334095E+01  0.51100000000E-03 0. -1.
        -11    1    3    3    0    0 -0.13697270927E+02  0.75075969613E+01  0.25552630414E+02  0.29948558636E+02  0.51100000000E-03 0.  1.
         12    1    3    3    0    0 -0.11534886045E+02  0.61704770113E+01  0.41173622116E+00  0.13088082722E+02  0.00000000000E+00 0. -1.
</event>
<event>
 7    1  0.2318319E-009  0.4778727E+02  0.7816164E-02  0.1312668E+00
        -11   -1    0    0    0    0  0.00000000000E+00  0.00000000000E+00  0.45593999997E+02  0.45594000000E+02  0.51100000000E-03 0.  1.
         11   -1    0    0    0    0 -0.00000000000E+00 -0.00000000000E+00 -0.45593999997E+02  0.45594000000E+02  0.51100000000E-03 0. -1.
    9900012    2    1    2    0    0 -0.18053439047E+01  0.35237148596E+02  0.25272656851E+02  0.47787273139E+02  0.20000009548E+02 0.  0.
         12    1    1    2    0    0  0.18053439047E+01 -0.35237148596E+02 -0.25272656851E+02  0.43400726861E+02  0.00000000000E+00 0. -1.
         11    1    3    3    0    0 -0.38968657829E+01  0.13443701991E+02  0.15195870387E+02  0.20659941027E+02  0.51100000000E-03 0.  1.
        -11    1    3    3    0    0  0.23869059861E+01  0.10032993584E+02  0.11301319177E+02  0.15299610971E+02  0.51100000000E-03 0. -1.
        -12    1    3    3    0    0 -0.29538410788E+00  0.11760453020E+02 -0.12245327133E+01  0.11827721140E+02  0.00000000000E+00 0.  1.
</event>
<event>
 7    1  0.2318319E-009  0.4778727E+02  0.7816164E-02  0.1312668E+00
        -11   -1    0    0    0    0  0.00000000000E+00  0.00000000000E+00  0.45593999997E+02  0.45594000000E+02  0.51100000000E-03 0.  1.
         11   -1    0    0    0    0 -0.00000000000E+00 -0.00000000000E+00 -0.45593999997E+02  0.45594000000E+02  0.51100000000E-03 0. -1.
    9900012    2    1    2    0    0 -0.42849303034E+02  0.44176354105E+01 -0.52957746184E+01  0.47787268417E+02  0.19999988019E+02 0.  0.
         12    1    1    2    0    0  0.42849303034E+02 -0.44176354105E+01  0.52957746184E+01  0.43400731583E+02  0.00000000000E+00 0. -1.
         11    1    3    3    0    0 -0.17267462801E+02 -0.27513924942E+00  0.37772399679E+01  0.17677910375E+02  0.51100000000E-03 0. -1.
        -11    1    3    3    0    0 -0.18748440716E+02  0.43322787960E+01 -0.64513957679E+00  0.19253282166E+02  0.51100000000E-03 0.  1.
        -12    1    3    3    0    0 -0.68333995175E+01  0.36049586394E+00 -0.84278750095E+01  0.10856075875E+02  0.00000000000E+00 0.  1.
</event>
<event>
 7    1  0.2318319E-009  0.4778727E+02  0.7816164E-02  0.1312668E+00
        -11   -1    0    0    0    0  0.00000000000E+00  0.00000000000E+00  0.45593999997E+02  0.45594000000E+02  0.51100000000E-03 0. -1.
         11   -1    0    0    0    0 -0.00000000000E+00 -0.00000000000E+00 -0.45593999997E+02  0.45594000000E+02  0.51100000000E-03 0.  1.
    9900012    2    1    2    0    0 -0.23741330906E+02  0.36320993595E+02 -0.87062460940E+00  0.47787270097E+02  0.19999995682E+02 0.  0.
         12    1    1    2    0    0  0.23741330906E+02 -0.36320993595E+02  0.87062460940E+00  0.43400729903E+02  0.00000000000E+00 0. -1.
         11    1    3    3    0    0 -0.12681910968E+01  0.41595381439E+01 -0.52386876127E+01  0.68083709059E+01  0.51100000000E-03 0. -1.
        -11    1    3    3    0    0 -0.35544142316E+01  0.90772024509E+01 -0.30689874840E+01  0.10219987735E+02  0.51100000000E-03 0.  1.
        -12    1    3    3    0    0 -0.18918725577E+02  0.23084253000E+02  0.74370504873E+01  0.30758911456E+02  0.00000000000E+00 0.  1.
</event>
<event>
 7    1  0.2318319E-009  0.4778727E+02  0.7816164E-02  0.1312668E+00
        -11   -1    0    0    0    0  0.00000000000E+00  0.00000000000E+00  0.45593999997E+02  0.45594000000E+02  0.51100000000E-03 0.  1.
         11   -1    0    0    0    0 -0.00000000000E+00 -0.00000000000E+00 -0.45593999997E+02  0.45594000000E+02  0.51100000000E-03 0. -1.
    9900012    2    1    2    0    0 -0.61295459194E+01 -0.42410650330E+02  0.68839471319E+01  0.47787270482E+02  0.19999997437E+02 0.  0.
         12    1    1    2    0    0  0.61295459194E+01  0.42410650330E+02 -0.68839471319E+01  0.43400729518E+02  0.00000000000E+00 0. -1.
         11    1    3    3    0    0  0.55664279466E+00 -0.13199445099E+02 -0.37014806434E+01  0.13719918415E+02  0.51100000000E-03 0. -1.
        -11    1    3    3    0    0  0.23805615993E+01 -0.16889989260E+02  0.48923701576E+01  0.17744692072E+02  0.51100000000E-03 0.  1.
         12    1    3    3    0    0 -0.90667503134E+01 -0.12321215971E+02  0.56930576177E+01  0.16322659995E+02  0.00000000000E+00 0. -1.
</event>
<event>
 7    1  0.2318319E-009  0.4778727E+02  0.7816164E-02  0.1312668E+00
        -11   -1    0    0    0    0  0.00000000000E+00  0.00000000000E+00  0.45593999997E+02  0.45594000000E+02  0.51100000000E-03 0.  1.
         11   -1    0    0    0    0 -0.00000000000E+00 -0.00000000000E+00 -0.45593999997E+02  0.45594000000E+02  0.51100000000E-03 0. -1.
    9900012    2    1    2    0    0  0.20911083287E+02  0.12193812683E+02  0.36023056678E+02  0.47787273227E+02  0.20000009950E+02 0.  0.
         12    1    1    2    0    0 -0.20911083287E+02 -0.12193812683E+02 -0.36023056678E+02  0.43400726773E+02  0.00000000000E+00 0. -1.
         11    1    3    3    0    0 -0.12502296141E+01  0.80701675652E-01 -0.75823723855E+00  0.14644148385E+01  0.51100000000E-03 0. -1.
        -11    1    3    3    0    0  0.17232199690E+00  0.54821503072E+00  0.91357406133E+01  0.91537965569E+01  0.51100000000E-03 0.  1.
        -12    1    3    3    0    0  0.21988990905E+02  0.11564895977E+02  0.27645553304E+02  0.37169061831E+02  0.00000000000E+00 0.  1.
</event>
<event>
 7    1  0.2318319E-009  0.4778727E+02  0.7816164E-02  0.1312668E+00
        -11   -1    0    0    0    0  0.00000000000E+00  0.00000000000E+00  0.45593999997E+02  0.45594000000E+02  0.51100000000E-03 0. -1.
         11   -1    0    0    0    0 -0.00000000000E+00 -0.00000000000E+00 -0.45593999997E+02  0.45594000000E+02  0.51100000000E-03 0.  1.
    9900012    2    1    2    0    0 -0.15666502730E+02  0.39587362220E+02 -0.84276442789E+01  0.47787265635E+02  0.19999975336E+02 0.  0.
         12    1    1    2    0    0  0.15666502730E+02 -0.39587362220E+02  0.84276442789E+01  0.43400734365E+02  0.00000000000E+00 0. -1.
         11    1    3    3    0    0 -0.49973951025E+01  0.16106215964E+01  0.27968033334E+01  0.59489636815E+01  0.51100000000E-03 0. -1.
        -11    1    3    3    0    0 -0.30591443777E+01  0.75149193645E+01 -0.58038715815E+01  0.99758359536E+01  0.51100000000E-03 0.  1.
         12    1    3    3    0    0 -0.76099632500E+01  0.30461821259E+02 -0.54205760308E+01  0.31862466000E+02  0.00000000000E+00 0. -1.
</event>
<event>
 7    1  0.2318319E-009  0.4778727E+02  0.7816164E-02  0.1312668E+00
        -11   -1    0    0    0    0  0.00000000000E+00  0.00000000000E+00  0.45593999997E+02  0.45594000000E+02  0.51100000000E-03 0. -1.
         11   -1    0    0    0    0 -0.00000000000E+00 -0.00000000000E+00 -0.45593999997E+02  0.45594000000E+02  0.51100000000E-03 0.  1.
    9900012    2    1    2    0    0 -0.15627485726E+02 -0.20448171572E+02 -0.34946776452E+02  0.47787271722E+02  0.20000003087E+02 0.  0.
         12    1    1    2    0    0  0.15627485726E+02  0.20448171572E+02  0.34946776452E+02  0.43400728278E+02  0.00000000000E+00 0. -1.
         11    1    3    3    0    0 -0.57222169987E+01 -0.75089798084E+01 -0.20227799225E+01  0.96550600215E+01  0.51100000000E-03 0. -1.
        -11    1    3    3    0    0 -0.78601994523E+01 -0.30318874666E+01 -0.10002662708E+02  0.13077780337E+02  0.51100000000E-03 0.  1.
         12    1    3    3    0    0 -0.20450692749E+01 -0.99073042968E+01 -0.22921333821E+02  0.25054431363E+02  0.00000000000E+00 0. -1.
</event>
<event>
 7    1  0.2318319E-009  0.4778727E+02  0.7816164E-02  0.1312668E+00
        -11   -1    0    0    0    0  0.00000000000E+00  0.00000000000E+00  0.45593999997E+02  0.45594000000E+02  0.51100000000E-03 0.  1.
         11   -1    0    0    0    0 -0.00000000000E+00 -0.00000000000E+00 -0.45593999997E+02  0.45594000000E+02  0.51100000000E-03 0. -1.
    9900012    2    1    2    0    0  0.53284223363E+00 -0.30586589139E+02  0.30786359091E+02  0.47787271180E+02  0.20000000617E+02 0.  0.
         12    1    1    2    0    0 -0.53284223363E+00  0.30586589139E+02 -0.30786359091E+02  0.43400728820E+02  0.00000000000E+00 0. -1.
         11    1    3    3    0    0  0.19956148595E+01 -0.11776708853E+02  0.49563210554E+01  0.12932071325E+02  0.51100000000E-03 0. -1.
        -11    1    3    3    0    0 -0.53289379144E+01 -0.18669677576E+02  0.20139820147E+02  0.27974395362E+02  0.51100000000E-03 0.  1.
         12    1    3    3    0    0  0.38661652885E+01 -0.14020271017E+00  0.56902178894E+01  0.68808044927E+01  0.00000000000E+00 0. -1.
</event>
<event>
 7    1  0.2318319E-009  0.4778727E+02  0.7816164E-02  0.1312668E+00
        -11   -1    0    0    0    0  0.00000000000E+00  0.00000000000E+00  0.45593999997E+02  0.45594000000E+02  0.51100000000E-03 0. -1.
         11   -1    0    0    0    0 -0.00000000000E+00 -0.00000000000E+00 -0.45593999997E+02  0.45594000000E+02  0.51100000000E-03 0.  1.
    9900012    2    1    2    0    0 -0.38371884300E+02 -0.21212120230E+01 -0.20167359836E+02  0.47787269039E+02  0.19999990857E+02 0.  0.
         12    1    1    2    0    0  0.38371884300E+02  0.21212120230E+01  0.20167359836E+02  0.43400730961E+02  0.00000000000E+00 0. -1.
         11    1    3    3    0    0 -0.22582826195E+01  0.73991827820E+00 -0.29429380001E+01  0.37826186408E+01  0.51100000000E-03 0. -1.
        -11    1    3    3    0    0 -0.29091770238E+02  0.53699306928E+01 -0.11287052476E+02  0.31663303762E+02  0.51100000000E-03 0.  1.
         12    1    3    3    0    0 -0.70218314423E+01 -0.82310609940E+01 -0.59373693597E+01  0.12341346637E+02  0.00000000000E+00 0. -1.
</event>
<event>
 7    1  0.2318319E-009  0.4778727E+02  0.7816164E-02  0.1312668E+00
        -11   -1    0    0    0    0  0.00000000000E+00  0.00000000000E+00  0.45593999997E+02  0.45594000000E+02  0.51100000000E-03 0. -1.
         11   -1    0    0    0    0 -0.00000000000E+00 -0.00000000000E+00 -0.45593999997E+02  0.45594000000E+02  0.51100000000E-03 0.  1.
    9900012    2    1    2    0    0 -0.18919446902E+02 -0.14009195143E+02 -0.36461215489E+02  0.47787271268E+02  0.20000001017E+02 0.  0.
         12    1    1    2    0    0  0.18919446902E+02  0.14009195143E+02  0.36461215489E+02  0.43400728732E+02  0.00000000000E+00 0. -1.
         11    1    3    3    0    0 -0.42671318770E+00  0.36441341613E+00 -0.50253751065E+01  0.50566072128E+01  0.51100000000E-03 0. -1.
        -11    1    3    3    0    0 -0.14907401973E+02 -0.15891667687E+02 -0.32084127244E+02  0.38783591333E+02  0.51100000000E-03 0.  1.
         12    1    3    3    0    0 -0.35853317413E+01  0.15180591282E+01  0.64828686197E+00  0.39470727213E+01  0.00000000000E+00 0. -1.
</event>
<event>
 7    1  0.2318319E-009  0.4778727E+02  0.7816164E-02  0.1312668E+00
        -11   -1    0    0    0    0  0.00000000000E+00  0.00000000000E+00  0.45593999997E+02  0.45594000000E+02  0.51100000000E-03 0.  1.
         11   -1    0    0    0    0 -0.00000000000E+00 -0.00000000000E+00 -0.45593999997E+02  0.45594000000E+02  0.51100000000E-03 0. -1.
    9900012    2    1    2    0    0  0.40864561743E+02 -0.86330083251E+01  0.11797559920E+02  0.47787266604E+02  0.19999979755E+02 0.  0.
         12    1    1    2    0    0 -0.40864561743E+02  0.86330083251E+01 -0.11797559920E+02  0.43400733396E+02  0.00000000000E+00 0. -1.
         11    1    3    3    0    0  0.14421409983E+00 -0.72754257252E+00  0.13925719204E+01  0.15777746087E+01  0.51100000000E-03 0. -1.
        -11    1    3    3    0    0  0.15936009281E+02 -0.99313587716E+01 -0.11009803278E+01  0.18809583642E+02  0.51100000000E-03 0.  1.
         12    1    3    3    0    0  0.24784338363E+02  0.20258930190E+01  0.11505968328E+02  0.27399908353E+02  0.00000000000E+00 0. -1.
</event>
<event>
 7    1  0.2318319E-009  0.4778727E+02  0.7816164E-02  0.1312668E+00
        -11   -1    0    0    0    0  0.00000000000E+00  0.00000000000E+00  0.45593999997E+02  0.45594000000E+02  0.51100000000E-03 0.  1.
         11   -1    0    0    0    0 -0.00000000000E+00 -0.00000000000E+00 -0.45593999997E+02  0.45594000000E+02  0.51100000000E-03 0. -1.
    9900012    2    1    2    0    0 -0.68895965345E+01 -0.52694783656E+00  0.42847159090E+02  0.47787271244E+02  0.20000000912E+02 0.  0.
         12    1    1    2    0    0  0.68895965345E+01  0.52694783656E+00 -0.42847159090E+02  0.43400728756E+02  0.00000000000E+00 0. -1.
         11    1    3    3    0    0 -0.35511120292E+01  0.25482249799E+01  0.75953419883E+01  0.87631653741E+01  0.51100000000E-03 0.  1.
        -11    1    3    3    0    0  0.32799719761E+01  0.12851566495E+01  0.28188457807E+02  0.28407727779E+02  0.51100000000E-03 0. -1.
         12    1    3    3    0    0 -0.66184564814E+01 -0.43603294660E+01  0.70633592945E+01  0.10616378091E+02  0.00000000000E+00 0. -1.
</event>
<event>
 7    1  0.2318319E-009  0.4778727E+02  0.7816164E-02  0.1312668E+00
        -11   -1    0    0    0    0  0.00000000000E+00  0.00000000000E+00  0.45593999997E+02  0.45594000000E+02  0.51100000000E-03 0.  1.
         11   -1    0    0    0    0 -0.00000000000E+00 -0.00000000000E+00 -0.45593999997E+02  0.45594000000E+02  0.51100000000E-03 0. -1.
    9900012    2    1    2    0    0  0.10664887161E+02 -0.33823538016E+02  0.25017030428E+02  0.47787270127E+02  0.19999995817E+02 0.  0.
         12    1    1    2    0    0 -0.10664887161E+02  0.33823538016E+02 -0.25017030428E+02  0.43400729873E+02  0.00000000000E+00 0. -1.
         11    1    3    3    0    0  0.82567450394E+01 -0.10750889463E+02  0.67944331650E+01  0.15163106054E+02  0.51100000000E-03 0. -1.
        -11    1    3    3    0    0  0.36428472780E+01 -0.22585661674E+02  0.11190339494E+02  0.25467747206E+02  0.51100000000E-03 0.  1.
         12    1    3    3    0    0 -0.12347051569E+01 -0.48698687932E+00  0.70322577690E+01  0.71564168670E+01  0.00000000000E+00 0. -1.
</event>
<event>
 7    1  0.2318319E-009  0.4778728E+02  0.7816164E-02  0.1312668E+00
        -11   -1    0    0    0    0  0.00000000000E+00  0.00000000000E+00  0.45593999997E+02  0.45594000000E+02  0.51100000000E-03 0. -1.
         11   -1    0    0    0    0 -0.00000000000E+00 -0.00000000000E+00 -0.45593999997E+02  0.45594000000E+02  0.51100000000E-03 0.  1.
    9900012    2    1    2    0    0 -0.17311623460E+02 -0.31114397942E+02 -0.24815816469E+02  0.47787276352E+02  0.20000024199E+02 0.  0.
         12    1    1    2    0    0  0.17311623460E+02  0.31114397942E+02  0.24815816469E+02  0.43400723648E+02  0.00000000000E+00 0. -1.
         11    1    3    3    0    0 -0.49265639966E+01 -0.11921938387E+01 -0.21780786614E+01  0.55169181504E+01  0.51100000000E-03 0. -1.
        -11    1    3    3    0    0 -0.12292078150E+02 -0.13628540593E+02 -0.68711014109E+01  0.19597049237E+02  0.51100000000E-03 0.  1.
        -12    1    3    3    0    0 -0.92981313025E-01 -0.16293663511E+02 -0.15766636397E+02  0.22673308965E+02  0.00000000000E+00 0.  1.
</event>
<event>
 7    1  0.2318319E-009  0.4778727E+02  0.7816164E-02  0.1312668E+00
        -11   -1    0    0    0    0  0.00000000000E+00  0.00000000000E+00  0.45593999997E+02  0.45594000000E+02  0.51100000000E-03 0.  1.
         11   -1    0    0    0    0 -0.00000000000E+00 -0.00000000000E+00 -0.45593999997E+02  0.45594000000E+02  0.51100000000E-03 0. -1.
    9900012    2    1    2    0    0  0.94804237737E+00  0.65405741879E+01  0.42894585094E+02  0.47787270451E+02  0.19999997293E+02 0.  0.
         12    1    1    2    0    0 -0.94804237737E+00 -0.65405741879E+01 -0.42894585094E+02  0.43400729549E+02  0.00000000000E+00 0. -1.
         11    1    3    3    0    0  0.52730293382E+01  0.13957769299E+01  0.11483558518E+02  0.12713187961E+02  0.51100000000E-03 0. -1.
        -11    1    3    3    0    0  0.39016855668E+01  0.61170817559E+01  0.13063238309E+02  0.14942892453E+02  0.51100000000E-03 0.  1.
        -12    1    3    3    0    0 -0.82266725276E+01 -0.97228449799E+00  0.18347788267E+02  0.20131190037E+02  0.00000000000E+00 0.  1.
</event>
<event>
 7    1  0.2318319E-009  0.4778727E+02  0.7816164E-02  0.1312668E+00
        -11   -1    0    0    0    0  0.00000000000E+00  0.00000000000E+00  0.45593999997E+02  0.45594000000E+02  0.51100000000E-03 0.  1.
         11   -1    0    0    0    0 -0.00000000000E+00 -0.00000000000E+00 -0.45593999997E+02  0.45594000000E+02  0.51100000000E-03 0. -1.
    9900012    2    1    2    0    0  0.17195321695E+02 -0.77412853179E+01  0.39089853326E+02  0.47787271670E+02  0.20000002851E+02 0.  0.
         12    1    1    2    0    0 -0.17195321695E+02  0.77412853179E+01 -0.39089853326E+02  0.43400728330E+02  0.00000000000E+00 0. -1.
         11    1    3    3    0    0  0.50194858256E+01  0.98249002232E+00  0.11447781457E+02  0.12538429932E+02  0.51100000000E-03 0. -1.
        -11    1    3    3    0    0  0.14403970425E+02 -0.53836777303E+01  0.27151960321E+02  0.31203962880E+02  0.51100000000E-03 0.  1.
         12    1    3    3    0    0 -0.22281345555E+01 -0.33400976100E+01  0.49011154726E+00  0.40448788573E+01  0.00000000000E+00 0. -1.
</event>
<event>
 7    1  0.2318319E-009  0.4778726E+02  0.7816164E-02  0.1312668E+00
        -11   -1    0    0    0    0  0.00000000000E+00  0.00000000000E+00  0.45593999997E+02  0.45594000000E+02  0.51100000000E-03 0.  1.
         11   -1    0    0    0    0 -0.00000000000E+00 -0.00000000000E+00 -0.45593999997E+02  0.45594000000E+02  0.51100000000E-03 0. -1.
    9900012    2    1    2    0    0  0.22701836986E+02 -0.28092147818E+02  0.24064115636E+02  0.47787264603E+02  0.19999970633E+02 0.  0.
         12    1    1    2    0    0 -0.22701836986E+02  0.28092147818E+02 -0.24064115636E+02  0.43400735397E+02  0.00000000000E+00 0. -1.
         11    1    3    3    0    0 -0.47220794972E+00 -0.11696759450E+02  0.10265117755E+02  0.15569515239E+02  0.51100000000E-03 0. -1.
        -11    1    3    3    0    0  0.83385095152E+01 -0.98208613461E+01  0.63245544438E+01  0.14352005006E+02  0.51100000000E-03 0.  1.
         12    1    3    3    0    0  0.14835535421E+02 -0.65745270217E+01  0.74744434373E+01  0.17865744358E+02  0.00000000000E+00 0. -1.
</event>
<event>
 7    1  0.2318319E-009  0.4778727E+02  0.7816164E-02  0.1312668E+00
        -11   -1    0    0    0    0  0.00000000000E+00  0.00000000000E+00  0.45593999997E+02  0.45594000000E+02  0.51100000000E-03 0.  1.
         11   -1    0    0    0    0 -0.00000000000E+00 -0.00000000000E+00 -0.45593999997E+02  0.45594000000E+02  0.51100000000E-03 0. -1.
    9900012    2    1    2    0    0  0.18289263925E+02  0.21057993831E+02  0.33251874250E+02  0.47787269358E+02  0.19999992312E+02 0.  0.
         12    1    1    2    0    0 -0.18289263925E+02 -0.21057993831E+02 -0.33251874250E+02  0.43400730642E+02  0.00000000000E+00 0. -1.
         11    1    3    3    0    0  0.49404397464E+01 -0.95028187005E+00  0.33696331566E+01  0.60551968087E+01  0.51100000000E-03 0. -1.
        -11    1    3    3    0    0  0.54410018829E+01  0.89274745785E+00  0.19806429731E+01  0.58587068847E+01  0.51100000000E-03 0.  1.
        -12    1    3    3    0    0  0.79078222952E+01  0.21115528243E+02  0.27901598121E+02  0.35873365665E+02  0.00000000000E+00 0.  1.
</event>
<event>
 7    1  0.2318319E-009  0.4778727E+02  0.7816164E-02  0.1312668E+00
        -11   -1    0    0    0    0  0.00000000000E+00  0.00000000000E+00  0.45593999997E+02  0.45594000000E+02  0.51100000000E-03 0.  1.
         11   -1    0    0    0    0 -0.00000000000E+00 -0.00000000000E+00 -0.45593999997E+02  0.45594000000E+02  0.51100000000E-03 0. -1.
    9900012    2    1    2    0    0  0.14258850868E+02  0.24007346793E+01  0.40921203127E+02  0.47787271660E+02  0.20000002807E+02 0.  0.
         12    1    1    2    0    0 -0.14258850868E+02 -0.24007346793E+01 -0.40921203127E+02  0.43400728340E+02  0.00000000000E+00 0. -1.
         11    1    3    3    0    0 -0.16715660914E+01  0.39695506922E+00  0.26915352547E+00  0.17390084549E+01  0.51100000000E-03 0. -1.
        -11    1    3    3    0    0  0.23538874598E+01 -0.27306916287E+01  0.23002414892E+02  0.23283224735E+02  0.51100000000E-03 0.  1.
         12    1    3    3    0    0  0.13576529499E+02  0.47344712388E+01  0.17649634710E+02  0.22765038470E+02  0.00000000000E+00 0. -1.
</event>
<event>
 7    1  0.2318319E-009  0.4778727E+02  0.7816164E-02  0.1312668E+00
        -11   -1    0    0    0    0  0.00000000000E+00  0.00000000000E+00  0.45593999997E+02  0.45594000000E+02  0.51100000000E-03 0.  1.
         11   -1    0    0    0    0 -0.00000000000E+00 -0.00000000000E+00 -0.45593999997E+02  0.45594000000E+02  0.51100000000E-03 0. -1.
    9900012    2    1    2    0    0 -0.24066475133E+02 -0.17454045439E+02  0.31619364584E+02  0.47787272538E+02  0.20000006809E+02 0.  0.
         12    1    1    2    0    0  0.24066475133E+02  0.17454045439E+02 -0.31619364584E+02  0.43400727462E+02  0.00000000000E+00 0. -1.
         11    1    3    3    0    0 -0.14347980333E+02 -0.16190147749E+02  0.21730040926E+02  0.30662356444E+02  0.51100000000E-03 0. -1.
        -11    1    3    3    0    0 -0.18672016420E+01 -0.44909556291E+01  0.12685054486E+01  0.50263536255E+01  0.51100000000E-03 0.  1.
        -12    1    3    3    0    0 -0.78512931583E+01  0.32270579390E+01  0.86208182098E+01  0.12098562469E+02  0.00000000000E+00 0.  1.
</event>
<event>
 7    1  0.2318319E-009  0.4778727E+02  0.7816164E-02  0.1312668E+00
        -11   -1    0    0    0    0  0.00000000000E+00  0.00000000000E+00  0.45593999997E+02  0.45594000000E+02  0.51100000000E-03 0.  1.
         11   -1    0    0    0    0 -0.00000000000E+00 -0.00000000000E+00 -0.45593999997E+02  0.45594000000E+02  0.51100000000E-03 0. -1.
    9900012    2    1    2    0    0  0.38735153209E+02 -0.40369936324E+01  0.19154988827E+02  0.47787274100E+02  0.20000013930E+02 0.  0.
         12    1    1    2    0    0 -0.38735153209E+02  0.40369936324E+01 -0.19154988827E+02  0.43400725900E+02  0.00000000000E+00 0. -1.
         11    1    3    3    0    0  0.16688746344E+02  0.61766893976E+01  0.12740969116E+02  0.21886023868E+02  0.51100000000E-03 0. -1.
        -11    1    3    3    0    0 -0.31899109812E+00 -0.71850049117E+00  0.33687791255E+00  0.85526911880E+00  0.51100000000E-03 0.  1.
         12    1    3    3    0    0  0.22365397963E+02 -0.94951825388E+01  0.60771417986E+01  0.25045981113E+02  0.00000000000E+00 0. -1.
</event>
<event>
 7    1  0.2318319E-009  0.4778732E+02  0.7816164E-02  0.1312668E+00
        -11   -1    0    0    0    0  0.00000000000E+00  0.00000000000E+00  0.45593999997E+02  0.45594000000E+02  0.51100000000E-03 0.  1.
         11   -1    0    0    0    0 -0.00000000000E+00 -0.00000000000E+00 -0.45593999997E+02  0.45594000000E+02  0.51100000000E-03 0. -1.
    9900012    2    1    2    0    0  0.63869928697E+01  0.21731133213E+02  0.37021391894E+02  0.47787316982E+02  0.20000209448E+02 0.  0.
         12    1    1    2    0    0 -0.63869928697E+01 -0.21731133213E+02 -0.37021391894E+02  0.43400683018E+02  0.00000000000E+00 0. -1.
         11    1    3    3    0    0 -0.19658578639E+01  0.28178861676E+01  0.93947471377E+00  0.35619787469E+01  0.51100000000E-03 0. -1.
        -11    1    3    3    0    0  0.46470789929E+01  0.17636203981E+02  0.17646167911E+02  0.25377515170E+02  0.51100000000E-03 0.  1.
         12    1    3    3    0    0  0.37057717406E+01  0.12770430649E+01  0.18435749269E+02  0.18847823065E+02  0.00000000000E+00 0. -1.
</event>
<event>
 7    1  0.2318319E-009  0.4778727E+02  0.7816164E-02  0.1312668E+00
        -11   -1    0    0    0    0  0.00000000000E+00  0.00000000000E+00  0.45593999997E+02  0.45594000000E+02  0.51100000000E-03 0.  1.
         11   -1    0    0    0    0 -0.00000000000E+00 -0.00000000000E+00 -0.45593999997E+02  0.45594000000E+02  0.51100000000E-03 0. -1.
    9900012    2    1    2    0    0 -0.40322533072E+02  0.11374868641E+02  0.11328254846E+02  0.47787266506E+02  0.19999979307E+02 0.  0.
         12    1    1    2    0    0  0.40322533072E+02 -0.11374868641E+02 -0.11328254846E+02  0.43400733494E+02  0.00000000000E+00 0. -1.
         11    1    3    3    0    0 -0.13232632710E+02  0.32806893975E+01  0.76146518654E+01  0.15615646470E+02  0.51100000000E-03 0. -1.
        -11    1    3    3    0    0 -0.12761722435E+02 -0.23634953752E+01  0.59774951406E+01  0.14289090884E+02  0.51100000000E-03 0.  1.
         12    1    3    3    0    0 -0.14328177927E+02  0.10457674619E+02 -0.22638921599E+01  0.17882529152E+02  0.00000000000E+00 0. -1.
</event>
<event>
 7    1  0.2318319E-009  0.4778727E+02  0.7816164E-02  0.1312668E+00
        -11   -1    0    0    0    0  0.00000000000E+00  0.00000000000E+00  0.45593999997E+02  0.45594000000E+02  0.51100000000E-03 0. -1.
         11   -1    0    0    0    0 -0.00000000000E+00 -0.00000000000E+00 -0.45593999997E+02  0.45594000000E+02  0.51100000000E-03 0.  1.
    9900012    2    1    2    0    0  0.30517228729E+02  0.28821791283E+02 -0.11028433300E+02  0.47787271399E+02  0.20000001618E+02 0.  0.
         12    1    1    2    0    0 -0.30517228729E+02 -0.28821791283E+02  0.11028433300E+02  0.43400728601E+02  0.00000000000E+00 0. -1.
         11    1    3    3    0    0 -0.11438093069E+01  0.20171533934E+01 -0.16333362830E-01  0.23189382448E+01  0.51100000000E-03 0. -1.
        -11    1    3    3    0    0  0.43635404398E+01  0.49128494449E+01  0.36644019103E+01  0.75235906627E+01  0.51100000000E-03 0.  1.
        -12    1    3    3    0    0  0.27297497596E+02  0.21891788444E+02 -0.14676501847E+02  0.37944742492E+02  0.00000000000E+00 0.  1.
</event>
<event>
 7    1  0.2318319E-009  0.4778727E+02  0.7816164E-02  0.1312668E+00
        -11   -1    0    0    0    0  0.00000000000E+00  0.00000000000E+00  0.45593999997E+02  0.45594000000E+02  0.51100000000E-03 0.  1.
         11   -1    0    0    0    0 -0.00000000000E+00 -0.00000000000E+00 -0.45593999997E+02  0.45594000000E+02  0.51100000000E-03 0. -1.
    9900012    2    1    2    0    0  0.40920588808E+01  0.17042195163E+02  0.39704438183E+02  0.47787265290E+02  0.19999973765E+02 0.  0.
         12    1    1    2    0    0 -0.40920588808E+01 -0.17042195163E+02 -0.39704438183E+02  0.43400734710E+02  0.00000000000E+00 0. -1.
         11    1    3    3    0    0  0.26263648182E+01 -0.10941141899E+01  0.41697105486E+01  0.50479069265E+01  0.51100000000E-03 0. -1.
        -11    1    3    3    0    0  0.26671420279E+01 -0.11518441771E+01  0.83808612439E+00  0.30237030638E+01  0.51100000000E-03 0.  1.
        -12    1    3    3    0    0 -0.12014479652E+01  0.19288153530E+02  0.34696641511E+02  0.39715655300E+02  0.00000000000E+00 0.  1.
</event>
<event>
 7    1  0.2318319E-009  0.4778728E+02  0.7816164E-02  0.1312668E+00
        -11   -1    0    0    0    0  0.00000000000E+00  0.00000000000E+00  0.45593999997E+02  0.45594000000E+02  0.51100000000E-03 0. -1.
         11   -1    0    0    0    0 -0.00000000000E+00 -0.00000000000E+00 -0.45593999997E+02  0.45594000000E+02  0.51100000000E-03 0.  1.
    9900012    2    1    2    0    0  0.35670281479E+02 -0.88295215359E+01 -0.23093147516E+02  0.47787275426E+02  0.20000019978E+02 0.  0.
         12    1    1    2    0    0 -0.35670281479E+02  0.88295215359E+01  0.23093147516E+02  0.43400724574E+02  0.00000000000E+00 0. -1.
         11    1    3    3    0    0  0.12202763527E+02  0.13937456339E+01 -0.37448254479E+01  0.12840314735E+02  0.51100000000E-03 0. -1.
        -11    1    3    3    0    0  0.19953936005E+02 -0.20635009183E+01 -0.11692140541E+02  0.23219038499E+02  0.51100000000E-03 0.  1.
         12    1    3    3    0    0  0.35135819468E+01 -0.81597662515E+01 -0.76561815269E+01  0.11727922192E+02  0.00000000000E+00 0. -1.
</event>
<event>
 7    1  0.2318319E-009  0.4778727E+02  0.7816164E-02  0.1312668E+00
        -11   -1    0    0    0    0  0.00000000000E+00  0.00000000000E+00  0.45593999997E+02  0.45594000000E+02  0.51100000000E-03 0.  1.
         11   -1    0    0    0    0 -0.00000000000E+00 -0.00000000000E+00 -0.45593999997E+02  0.45594000000E+02  0.51100000000E-03 0. -1.
    9900012    2    1    2    0    0  0.48536856676E+01 -0.24881231692E+02  0.35227679258E+02  0.47787270271E+02  0.19999996473E+02 0.  0.
         12    1    1    2    0    0 -0.48536856676E+01  0.24881231692E+02 -0.35227679258E+02  0.43400729729E+02  0.00000000000E+00 0. -1.
         11    1    3    3    0    0 -0.29533384651E+01 -0.14610806952E+01  0.48488696977E+01  0.58624655645E+01  0.51100000000E-03 0. -1.
        -11    1    3    3    0    0  0.35569625890E+00 -0.62321060102E+01  0.19016196634E+02  0.20014529718E+02  0.51100000000E-03 0.  1.
         12    1    3    3    0    0  0.74513278738E+01 -0.17188044987E+02  0.11362612927E+02  0.21910274989E+02  0.00000000000E+00 0. -1.
</event>
<event>
 7    1  0.2318319E-009  0.4778727E+02  0.7816164E-02  0.1312668E+00
        -11   -1    0    0    0    0  0.00000000000E+00  0.00000000000E+00  0.45593999997E+02  0.45594000000E+02  0.51100000000E-03 0. -1.
         11   -1    0    0    0    0 -0.00000000000E+00 -0.00000000000E+00 -0.45593999997E+02  0.45594000000E+02  0.51100000000E-03 0.  1.
    9900012    2    1    2    0    0  0.37469022636E+02  0.21762906185E+02  0.24640376250E+01  0.47787271615E+02  0.20000002602E+02 0.  0.
         12    1    1    2    0    0 -0.37469022636E+02 -0.21762906185E+02 -0.24640376250E+01  0.43400728385E+02  0.00000000000E+00 0. -1.
         11    1    3    3    0    0  0.26846402241E+02  0.20363189640E+02  0.48117573691E+01  0.34037359105E+02  0.51100000000E-03 0.  1.
        -11    1    3    3    0    0  0.11494902591E+02  0.28229028509E+01 -0.16931911685E+01  0.11956942028E+02  0.51100000000E-03 0. -1.
        -12    1    3    3    0    0 -0.87228219541E+00 -0.14231863066E+01 -0.65452857561E+00  0.17929704816E+01  0.00000000000E+00 0.  1.
</event>
<event>
 7    1  0.2318319E-009  0.4778727E+02  0.7816164E-02  0.1312668E+00
        -11   -1    0    0    0    0  0.00000000000E+00  0.00000000000E+00  0.45593999997E+02  0.45594000000E+02  0.51100000000E-03 0. -1.
         11   -1    0    0    0    0 -0.00000000000E+00 -0.00000000000E+00 -0.45593999997E+02  0.45594000000E+02  0.51100000000E-03 0.  1.
    9900012    2    1    2    0    0  0.28597959906E+02 -0.15085797045E+02 -0.28951662589E+02  0.47787270168E+02  0.19999996005E+02 0.  0.
         12    1    1    2    0    0 -0.28597959906E+02  0.15085797045E+02  0.28951662589E+02  0.43400729832E+02  0.00000000000E+00 0. -1.
         11    1    3    3    0    0  0.55704830983E+01 -0.60015406544E+01 -0.11558564414E+02  0.14165069140E+02  0.51100000000E-03 0. -1.
        -11    1    3    3    0    0  0.17416086459E+02 -0.12772735243E+02 -0.10557541246E+02  0.24040060535E+02  0.51100000000E-03 0.  1.
         12    1    3    3    0    0  0.56113903484E+01  0.36884788523E+01 -0.68355569296E+01  0.95821404928E+01  0.00000000000E+00 0. -1.
</event>
<event>
 7    1  0.2318319E-009  0.4778727E+02  0.7816164E-02  0.1312668E+00
        -11   -1    0    0    0    0  0.00000000000E+00  0.00000000000E+00  0.45593999997E+02  0.45594000000E+02  0.51100000000E-03 0.  1.
         11   -1    0    0    0    0 -0.00000000000E+00 -0.00000000000E+00 -0.45593999997E+02  0.45594000000E+02  0.51100000000E-03 0. -1.
    9900012    2    1    2    0    0  0.64585169903E+01 -0.36463250021E+02  0.22634979497E+02  0.47787270275E+02  0.19999996493E+02 0.  0.
         12    1    1    2    0    0 -0.64585169903E+01  0.36463250021E+02 -0.22634979497E+02  0.43400729725E+02  0.00000000000E+00 0. -1.
         11    1    3    3    0    0 -0.33369843081E+01 -0.11506768134E+02  0.46028134255E+01  0.12834604351E+02  0.51100000000E-03 0. -1.
        -11    1    3    3    0    0 -0.14662267091E+01 -0.14420350393E+02  0.94572636537E+01  0.17307113055E+02  0.51100000000E-03 0.  1.
         12    1    3    3    0    0  0.11261728007E+02 -0.10536131494E+02  0.85749024177E+01  0.17645552869E+02  0.00000000000E+00 0. -1.
</event>
<event>
 7    1  0.2318319E-009  0.4778727E+02  0.7816164E-02  0.1312668E+00
        -11   -1    0    0    0    0  0.00000000000E+00  0.00000000000E+00  0.45593999997E+02  0.45594000000E+02  0.51100000000E-03 0.  1.
         11   -1    0    0    0    0 -0.00000000000E+00 -0.00000000000E+00 -0.45593999997E+02  0.45594000000E+02  0.51100000000E-03 0. -1.
    9900012    2    1    2    0    0  0.32534339076E+02 -0.26846315280E+02  0.10218399225E+02  0.47787267910E+02  0.19999985711E+02 0.  0.
         12    1    1    2    0    0 -0.32534339076E+02  0.26846315280E+02 -0.10218399225E+02  0.43400732090E+02  0.00000000000E+00 0. -1.
         11    1    3    3    0    0  0.21183364809E+01 -0.33968588463E+01  0.80660680879E+01  0.90048572520E+01  0.51100000000E-03 0.  1.
        -11    1    3    3    0    0  0.51296453298E+01 -0.64084512617E+01  0.98514852216E+00  0.82675284490E+01  0.51100000000E-03 0. -1.
        -12    1    3    3    0    0  0.25286357265E+02 -0.17041005172E+02  0.11671826147E+01  0.30514882209E+02  0.00000000000E+00 0.  1.
</event>
<event>
 7    1  0.2318319E-009  0.4778727E+02  0.7816164E-02  0.1312668E+00
        -11   -1    0    0    0    0  0.00000000000E+00  0.00000000000E+00  0.45593999997E+02  0.45594000000E+02  0.51100000000E-03 0. -1.
         11   -1    0    0    0    0 -0.00000000000E+00 -0.00000000000E+00 -0.45593999997E+02  0.45594000000E+02  0.51100000000E-03 0.  1.
    9900012    2    1    2    0    0 -0.40719237835E+02 -0.59343425956E+01 -0.13796750954E+02  0.47787273177E+02  0.20000009721E+02 0.  0.
         12    1    1    2    0    0  0.40719237835E+02  0.59343425956E+01  0.13796750954E+02  0.43400726823E+02  0.00000000000E+00 0. -1.
         11    1    3    3    0    0 -0.16191507522E+02 -0.67701661658E+01 -0.89389354091E+01  0.19695294673E+02  0.51100000000E-03 0. -1.
        -11    1    3    3    0    0 -0.19497091751E+02 -0.28723848384E+00 -0.90032333952E+01  0.21477367262E+02  0.51100000000E-03 0.  1.
         12    1    3    3    0    0 -0.50306385629E+01  0.11230620541E+01  0.41454178503E+01  0.66146112419E+01  0.00000000000E+00 0. -1.
</event>
<event>
 7    1  0.2318319E-009  0.4778727E+02  0.7816164E-02  0.1312668E+00
        -11   -1    0    0    0    0  0.00000000000E+00  0.00000000000E+00  0.45593999997E+02  0.45594000000E+02  0.51100000000E-03 0. -1.
         11   -1    0    0    0    0 -0.00000000000E+00 -0.00000000000E+00 -0.45593999997E+02  0.45594000000E+02  0.51100000000E-03 0.  1.
    9900012    2    1    2    0    0  0.40737796313E+02  0.36802921002E+01 -0.14508976393E+02  0.47787274265E+02  0.20000014682E+02 0.  0.
         12    1    1    2    0    0 -0.40737796313E+02 -0.36802921002E+01  0.14508976393E+02  0.43400725735E+02  0.00000000000E+00 0. -1.
         11    1    3    3    0    0  0.23957751733E+02  0.51465222813E+01 -0.29598458918E+01  0.24682407655E+02  0.51100000000E-03 0.  1.
        -11    1    3    3    0    0  0.10197998216E+01  0.33291994247E+01 -0.13805627517E+01  0.37455993189E+01  0.51100000000E-03 0. -1.
        -12    1    3    3    0    0  0.15760244758E+02 -0.47954296058E+01 -0.10168567749E+02  0.19359267290E+02  0.00000000000E+00 0.  1.
</event>
<event>
 7    1  0.2318319E-009  0.4778727E+02  0.7816164E-02  0.1312668E+00
        -11   -1    0    0    0    0  0.00000000000E+00  0.00000000000E+00  0.45593999997E+02  0.45594000000E+02  0.51100000000E-03 0. -1.
         11   -1    0    0    0    0 -0.00000000000E+00 -0.00000000000E+00 -0.45593999997E+02  0.45594000000E+02  0.51100000000E-03 0.  1.
    9900012    2    1    2    0    0  0.63492695894E+01 -0.42782636382E+02 -0.35994669558E+01  0.47787270024E+02  0.19999995345E+02 0.  0.
         12    1    1    2    0    0 -0.63492695894E+01  0.42782636382E+02  0.35994669558E+01  0.43400729976E+02  0.00000000000E+00 0. -1.
         11    1    3    3    0    0 -0.35720511604E+01 -0.22472497562E+01  0.94320997533E+00  0.43242717627E+01  0.51100000000E-03 0. -1.
        -11    1    3    3    0    0 -0.22389947539E+01 -0.11929385594E+02 -0.15378195191E+01  0.12234714026E+02  0.51100000000E-03 0.  1.
        -12    1    3    3    0    0  0.12160315504E+02 -0.28606001032E+02 -0.30048574120E+01  0.31228284235E+02  0.00000000000E+00 0.  1.
</event>
<event>
 7    1  0.2318319E-009  0.4778727E+02  0.7816164E-02  0.1312668E+00
        -11   -1    0    0    0    0  0.00000000000E+00  0.00000000000E+00  0.45593999997E+02  0.45594000000E+02  0.51100000000E-03 0.  1.
         11   -1    0    0    0    0 -0.00000000000E+00 -0.00000000000E+00 -0.45593999997E+02  0.45594000000E+02  0.51100000000E-03 0. -1.
    9900012    2    1    2    0    0 -0.23031699472E+02  0.23835269600E+02  0.28018631374E+02  0.47787274643E+02  0.20000016406E+02 0.  0.
         12    1    1    2    0    0  0.23031699472E+02 -0.23835269600E+02 -0.28018631374E+02  0.43400725357E+02  0.00000000000E+00 0. -1.
         11    1    3    3    0    0 -0.16846625343E+01  0.53619340313E+01  0.42512896133E+00  0.56364136918E+01  0.51100000000E-03 0. -1.
        -11    1    3    3    0    0 -0.35655902501E+01 -0.21403863376E+01  0.64799008641E+01  0.76995975853E+01  0.51100000000E-03 0.  1.
         12    1    3    3    0    0 -0.17781446688E+02  0.20613721906E+02  0.21113601548E+02  0.34451263366E+02  0.00000000000E+00 0. -1.
</event>
<event>
 7    1  0.2318319E-009  0.4778727E+02  0.7816164E-02  0.1312668E+00
        -11   -1    0    0    0    0  0.00000000000E+00  0.00000000000E+00  0.45593999997E+02  0.45594000000E+02  0.51100000000E-03 0. -1.
         11   -1    0    0    0    0 -0.00000000000E+00 -0.00000000000E+00 -0.45593999997E+02  0.45594000000E+02  0.51100000000E-03 0.  1.
    9900012    2    1    2    0    0 -0.14758548516E+02  0.50262082092E+01 -0.40503651598E+02  0.47787270559E+02  0.19999997786E+02 0.  0.
         12    1    1    2    0    0  0.14758548516E+02 -0.50262082092E+01  0.40503651598E+02  0.43400729441E+02  0.00000000000E+00 0. -1.
         11    1    3    3    0    0 -0.32589067568E+01 -0.35975786989E+01 -0.92563210551E+01  0.10451914919E+02  0.51100000000E-03 0. -1.
        -11    1    3    3    0    0 -0.34571712245E+01  0.49563806543E+01 -0.26738024353E+02  0.27412400271E+02  0.51100000000E-03 0.  1.
        -12    1    3    3    0    0 -0.80424705344E+01  0.36674062539E+01 -0.45093061896E+01  0.99229553682E+01  0.00000000000E+00 0.  1.
</event>
<event>
 7    1  0.2318319E-009  0.4778726E+02  0.7816164E-02  0.1312668E+00
        -11   -1    0    0    0    0  0.00000000000E+00  0.00000000000E+00  0.45593999997E+02  0.45594000000E+02  0.51100000000E-03 0.  1.
         11   -1    0    0    0    0 -0.00000000000E+00 -0.00000000000E+00 -0.45593999997E+02  0.45594000000E+02  0.51100000000E-03 0. -1.
    9900012    2    1    2    0    0  0.27486117983E+02  0.57857280167E+01  0.33085686847E+02  0.47787262626E+02  0.19999961616E+02 0.  0.
         12    1    1    2    0    0 -0.27486117983E+02 -0.57857280167E+01 -0.33085686847E+02  0.43400737374E+02  0.00000000000E+00 0. -1.
         11    1    3    3    0    0  0.12927004916E+02 -0.22021338391E+01  0.16380518944E+02  0.20982808455E+02  0.51100000000E-03 0. -1.
        -11    1    3    3    0    0  0.44919058592E+01  0.14102573480E+01  0.13589362101E+02  0.14381822089E+02  0.51100000000E-03 0.  1.
         12    1    3    3    0    0  0.10067207208E+02  0.65776045078E+01  0.31158058030E+01  0.12422632082E+02  0.00000000000E+00 0. -1.
</event>
<event>
 7    1  0.2318319E-009  0.4778727E+02  0.7816164E-02  0.1312668E+00
        -11   -1    0    0    0    0  0.00000000000E+00  0.00000000000E+00  0.45593999997E+02  0.45594000000E+02  0.51100000000E-03 0.  1.
         11   -1    0    0    0    0 -0.00000000000E+00 -0.00000000000E+00 -0.45593999997E+02  0.45594000000E+02  0.51100000000E-03 0. -1.
    9900012    2    1    2    0    0  0.27381363619E+02 -0.19852837388E+02  0.27198332092E+02  0.47787268502E+02  0.19999988407E+02 0.  0.
         12    1    1    2    0    0 -0.27381363619E+02  0.19852837388E+02 -0.27198332092E+02  0.43400731498E+02  0.00000000000E+00 0. -1.
         11    1    3    3    0    0  0.31458406432E+01  0.17929329035E+01  0.75907576486E+01  0.84101440945E+01  0.51100000000E-03 0. -1.
        -11    1    3    3    0    0  0.29595196518E+01 -0.88037620583E+00  0.58574064569E+01  0.66214069121E+01  0.51100000000E-03 0.  1.
        -12    1    3    3    0    0  0.21276003324E+02 -0.20765394085E+02  0.13750167986E+02  0.32755717495E+02  0.00000000000E+00 0.  1.
</event>
<event>
 7    1  0.2318319E-009  0.4778727E+02  0.7816164E-02  0.1312668E+00
        -11   -1    0    0    0    0  0.00000000000E+00  0.00000000000E+00  0.45593999997E+02  0.45594000000E+02  0.51100000000E-03 0.  1.
         11   -1    0    0    0    0 -0.00000000000E+00 -0.00000000000E+00 -0.45593999997E+02  0.45594000000E+02  0.51100000000E-03 0. -1.
    9900012    2    1    2    0    0 -0.40309151433E+02  0.42893420349E+00  0.16081408177E+02  0.47787270021E+02  0.19999995333E+02 0.  0.
         12    1    1    2    0    0  0.40309151433E+02 -0.42893420349E+00 -0.16081408177E+02  0.43400729979E+02  0.00000000000E+00 0. -1.
         11    1    3    3    0    0  0.16634257215E+00  0.11300305967E+01  0.51303745603E+01  0.52559853872E+01  0.51100000000E-03 0. -1.
        -11    1    3    3    0    0 -0.12496803941E+02  0.26105959842E+01  0.51504659117E+01  0.13766358251E+02  0.51100000000E-03 0.  1.
         12    1    3    3    0    0 -0.27978690063E+02 -0.33116923774E+01  0.58005677051E+01  0.28764926382E+02  0.00000000000E+00 0. -1.
</event>
<event>
 7    1  0.2318319E-009  0.4778726E+02  0.7816164E-02  0.1312668E+00
        -11   -1    0    0    0    0  0.00000000000E+00  0.00000000000E+00  0.45593999997E+02  0.45594000000E+02  0.51100000000E-03 0.  1.
         11   -1    0    0    0    0 -0.00000000000E+00 -0.00000000000E+00 -0.45593999997E+02  0.45594000000E+02  0.51100000000E-03 0. -1.
    9900012    2    1    2    0    0  0.36747784965E+02  0.37227776682E+01  0.22789582302E+02  0.47787264581E+02  0.19999970532E+02 0.  0.
         12    1    1    2    0    0 -0.36747784965E+02 -0.37227776682E+01 -0.22789582302E+02  0.43400735419E+02  0.00000000000E+00 0. -1.
         11    1    3    3    0    0  0.33569404820E+01 -0.41190701203E+01  0.59062363204E+01  0.79447728595E+01  0.51100000000E-03 0. -1.
        -11    1    3    3    0    0  0.48031292005E+01  0.29236787743E+01 -0.10763834602E+01  0.57250807248E+01  0.51100000000E-03 0.  1.
        -12    1    3    3    0    0  0.28587715282E+02  0.49181690142E+01  0.17959729442E+02  0.34117410997E+02  0.00000000000E+00 0.  1.
</event>
<event>
 7    1  0.2318319E-009  0.4778727E+02  0.7816164E-02  0.1312668E+00
        -11   -1    0    0    0    0  0.00000000000E+00  0.00000000000E+00  0.45593999997E+02  0.45594000000E+02  0.51100000000E-03 0. -1.
         11   -1    0    0    0    0 -0.00000000000E+00 -0.00000000000E+00 -0.45593999997E+02  0.45594000000E+02  0.51100000000E-03 0.  1.
    9900012    2    1    2    0    0 -0.32278989372E+02  0.15179157781E+02 -0.24724148582E+02  0.47787268337E+02  0.19999987655E+02 0.  0.
         12    1    1    2    0    0  0.32278989372E+02 -0.15179157781E+02  0.24724148582E+02  0.43400731663E+02  0.00000000000E+00 0. -1.
         11    1    3    3    0    0 -0.28786690194E+01  0.38579576211E+00 -0.39916532310E+01  0.49364835127E+01  0.51100000000E-03 0. -1.
        -11    1    3    3    0    0  0.22970839027E+01  0.24903410893E+01 -0.28853568534E+01  0.44501323160E+01  0.51100000000E-03 0.  1.
         12    1    3    3    0    0 -0.31697404255E+02  0.12303020930E+02 -0.17847138497E+02  0.38400652508E+02  0.00000000000E+00 0. -1.
</event>
<event>
 7    1  0.2318319E-009  0.4778727E+02  0.7816164E-02  0.1312668E+00
        -11   -1    0    0    0    0  0.00000000000E+00  0.00000000000E+00  0.45593999997E+02  0.45594000000E+02  0.51100000000E-03 0. -1.
         11   -1    0    0    0    0 -0.00000000000E+00 -0.00000000000E+00 -0.45593999997E+02  0.45594000000E+02  0.51100000000E-03 0.  1.
    9900012    2    1    2    0    0  0.12567723932E+02  0.38892034913E+02 -0.14597434514E+02  0.47787272369E+02  0.20000006039E+02 0.  0.
         12    1    1    2    0    0 -0.12567723932E+02 -0.38892034913E+02  0.14597434514E+02  0.43400727631E+02  0.00000000000E+00 0. -1.
         11    1    3    3    0    0  0.44083785267E+01  0.11046012914E+02 -0.12326826445E+02  0.17128889426E+02  0.51100000000E-03 0. -1.
        -11    1    3    3    0    0  0.81396546114E+01  0.13703401275E+02 -0.39379156438E+01  0.16417806296E+02  0.51100000000E-03 0.  1.
        -12    1    3    3    0    0  0.19690794203E-01  0.14142620724E+02  0.16673075745E+01  0.14240576647E+02  0.00000000000E+00 0.  1.
</event>
<event>
 7    1  0.2318319E-009  0.4778727E+02  0.7816164E-02  0.1312668E+00
        -11   -1    0    0    0    0  0.00000000000E+00  0.00000000000E+00  0.45593999997E+02  0.45594000000E+02  0.51100000000E-03 0.  1.
         11   -1    0    0    0    0 -0.00000000000E+00 -0.00000000000E+00 -0.45593999997E+02  0.45594000000E+02  0.51100000000E-03 0. -1.
    9900012    2    1    2    0    0 -0.34204821558E+02  0.16369907178E+02  0.21111122188E+02  0.47787272369E+02  0.20000006041E+02 0.  0.
         12    1    1    2    0    0  0.34204821558E+02 -0.16369907178E+02 -0.21111122188E+02  0.43400727631E+02  0.00000000000E+00 0. -1.
         11    1    3    3    0    0 -0.21693214382E+02  0.12001552851E+02  0.17912764870E+02  0.30585943939E+02  0.51100000000E-03 0. -1.
        -11    1    3    3    0    0 -0.40641391894E+01 -0.12821423999E+01  0.53227974651E+01  0.68185988003E+01  0.51100000000E-03 0.  1.
         12    1    3    3    0    0 -0.84474679862E+01  0.56504967271E+01 -0.21244401472E+01  0.10382729631E+02  0.00000000000E+00 0. -1.
</event>
<event>
 7    1  0.2318319E-009  0.4778727E+02  0.7816164E-02  0.1312668E+00
        -11   -1    0    0    0    0  0.00000000000E+00  0.00000000000E+00  0.45593999997E+02  0.45594000000E+02  0.51100000000E-03 0.  1.
         11   -1    0    0    0    0 -0.00000000000E+00 -0.00000000000E+00 -0.45593999997E+02  0.45594000000E+02  0.51100000000E-03 0. -1.
    9900012    2    1    2    0    0  0.39327976241E+02 -0.17012886429E+02 -0.68916896399E+01  0.47787269523E+02  0.19999993061E+02 0.  0.
         12    1    1    2    0    0 -0.39327976241E+02  0.17012886429E+02  0.68916896399E+01  0.43400730477E+02  0.00000000000E+00 0. -1.
         11    1    3    3    0    0 -0.44481972229E+00  0.12227073975E+01  0.94940823387E+00  0.16106688738E+01  0.51100000000E-03 0. -1.
        -11    1    3    3    0    0  0.19574949386E+02 -0.87011810163E+01  0.24936254158E+01  0.21566347918E+02  0.51100000000E-03 0.  1.
         12    1    3    3    0    0  0.20197846577E+02 -0.95344128104E+01 -0.10334723290E+02  0.24610252731E+02  0.00000000000E+00 0. -1.
</event>
<event>
 7    1  0.2318319E-009  0.4778727E+02  0.7816164E-02  0.1312668E+00
        -11   -1    0    0    0    0  0.00000000000E+00  0.00000000000E+00  0.45593999997E+02  0.45594000000E+02  0.51100000000E-03 0.  1.
         11   -1    0    0    0    0 -0.00000000000E+00 -0.00000000000E+00 -0.45593999997E+02  0.45594000000E+02  0.51100000000E-03 0. -1.
    9900012    2    1    2    0    0 -0.30784360883E+02 -0.24604193874E+02  0.18181857680E+02  0.47787272128E+02  0.20000004940E+02 0.  0.
         12    1    1    2    0    0  0.30784360883E+02  0.24604193874E+02 -0.18181857680E+02  0.43400727872E+02  0.00000000000E+00 0. -1.
         11    1    3    3    0    0 -0.49273473203E+00 -0.32881031325E+01  0.26756703338E+01  0.42677419934E+01  0.51100000000E-03 0.  1.
        -11    1    3    3    0    0 -0.14092947764E+02 -0.87656723234E+01  0.15956335608E+02  0.23022876324E+02  0.51100000000E-03 0. -1.
         12    1    3    3    0    0 -0.16198678387E+02 -0.12550418418E+02 -0.45014826195E+00  0.20496653810E+02  0.00000000000E+00 0. -1.
</event>
<event>
 7    1  0.2318319E-009  0.4778727E+02  0.7816164E-02  0.1312668E+00
        -11   -1    0    0    0    0  0.00000000000E+00  0.00000000000E+00  0.45593999997E+02  0.45594000000E+02  0.51100000000E-03 0.  1.
         11   -1    0    0    0    0 -0.00000000000E+00 -0.00000000000E+00 -0.45593999997E+02  0.45594000000E+02  0.51100000000E-03 0. -1.
    9900012    2    1    2    0    0  0.21081587365E+02 -0.13292504561E+02  0.35531671887E+02  0.47787266015E+02  0.19999977070E+02 0.  0.
         12    1    1    2    0    0 -0.21081587365E+02  0.13292504561E+02 -0.35531671887E+02  0.43400733985E+02  0.00000000000E+00 0. -1.
         11    1    3    3    0    0  0.25647024559E+01 -0.10543165103E+01  0.66516190525E+00  0.28516175432E+01  0.51100000000E-03 0.  1.
        -11    1    3    3    0    0  0.43802279112E+01 -0.21115185272E+01  0.23871596356E+02  0.24361814791E+02  0.51100000000E-03 0. -1.
         12    1    3    3    0    0  0.14136656998E+02 -0.10126669523E+02  0.10994913625E+02  0.20573833681E+02  0.00000000000E+00 0. -1.
</event>
<event>
 7    1  0.2318319E-009  0.4778727E+02  0.7816164E-02  0.1312668E+00
        -11   -1    0    0    0    0  0.00000000000E+00  0.00000000000E+00  0.45593999997E+02  0.45594000000E+02  0.51100000000E-03 0.  1.
         11   -1    0    0    0    0 -0.00000000000E+00 -0.00000000000E+00 -0.45593999997E+02  0.45594000000E+02  0.51100000000E-03 0. -1.
    9900012    2    1    2    0    0 -0.10685059998E+02  0.15033621604E+02  0.39286675578E+02  0.47787272315E+02  0.20000005791E+02 0.  0.
         12    1    1    2    0    0  0.10685059998E+02 -0.15033621604E+02 -0.39286675578E+02  0.43400727685E+02  0.00000000000E+00 0. -1.
         11    1    3    3    0    0  0.40958630414E+01  0.16804531567E+01  0.28767962946E+01  0.52797702647E+01  0.51100000000E-03 0. -1.
        -11    1    3    3    0    0 -0.46776868594E+01  0.44174464298E+01  0.44635920017E+01  0.78305964737E+01  0.51100000000E-03 0.  1.
        -12    1    3    3    0    0 -0.10103236180E+02  0.89357220173E+01  0.31946287281E+02  0.34676905576E+02  0.00000000000E+00 0.  1.
</event>
<event>
 7    1  0.2318319E-009  0.4778727E+02  0.7816164E-02  0.1312668E+00
        -11   -1    0    0    0    0  0.00000000000E+00  0.00000000000E+00  0.45593999997E+02  0.45594000000E+02  0.51100000000E-03 0.  1.
         11   -1    0    0    0    0 -0.00000000000E+00 -0.00000000000E+00 -0.45593999997E+02  0.45594000000E+02  0.51100000000E-03 0. -1.
    9900012    2    1    2    0    0 -0.33421464661E+02 -0.21802848504E+02 -0.17066478496E+02  0.47787271997E+02  0.20000004343E+02 0.  0.
         12    1    1    2    0    0  0.33421464661E+02  0.21802848504E+02  0.17066478496E+02  0.43400728003E+02  0.00000000000E+00 0. -1.
         11    1    3    3    0    0 -0.93048936774E+01 -0.94529601201E+01 -0.12553571148E+02  0.18262848907E+02  0.51100000000E-03 0. -1.
        -11    1    3    3    0    0 -0.13609465646E+02 -0.12137782838E+02 -0.52869496661E+01  0.18986710206E+02  0.51100000000E-03 0.  1.
         12    1    3    3    0    0 -0.10507105337E+02 -0.21210554556E+00  0.77404231803E+00  0.10537712884E+02  0.00000000000E+00 0. -1.
</event>
<event>
 7    1  0.2318319E-009  0.4778727E+02  0.7816164E-02  0.1312668E+00
        -11   -1    0    0    0    0  0.00000000000E+00  0.00000000000E+00  0.45593999997E+02  0.45594000000E+02  0.51100000000E-03 0.  1.
         11   -1    0    0    0    0 -0.00000000000E+00 -0.00000000000E+00 -0.45593999997E+02  0.45594000000E+02  0.51100000000E-03 0. -1.
    9900012    2    1    2    0    0  0.22635166917E+02  0.29962401891E+02  0.21760674614E+02  0.47787271111E+02  0.20000000302E+02 0.  0.
         12    1    1    2    0    0 -0.22635166917E+02 -0.29962401891E+02 -0.21760674614E+02  0.43400728889E+02  0.00000000000E+00 0. -1.
         11    1    3    3    0    0 -0.25396513463E+01  0.36631731810E+01  0.15217957065E+01  0.47100455569E+01  0.51100000000E-03 0. -1.
        -11    1    3    3    0    0  0.48747533246E+00 -0.97860979748E+00  0.12985259714E+01  0.16974920604E+01  0.51100000000E-03 0.  1.
        -12    1    3    3    0    0  0.24687342931E+02  0.27277838508E+02  0.18940352936E+02  0.41379733494E+02  0.00000000000E+00 0.  1.
</event>
<event>
 7    1  0.2318319E-009  0.4778727E+02  0.7816164E-02  0.1312668E+00
        -11   -1    0    0    0    0  0.00000000000E+00  0.00000000000E+00  0.45593999997E+02  0.45594000000E+02  0.51100000000E-03 0.  1.
         11   -1    0    0    0    0 -0.00000000000E+00 -0.00000000000E+00 -0.45593999997E+02  0.45594000000E+02  0.51100000000E-03 0. -1.
    9900012    2    1    2    0    0  0.26075680740E+02  0.49172608416E+01  0.34343886168E+02  0.47787273078E+02  0.20000009272E+02 0.  0.
         12    1    1    2    0    0 -0.26075680740E+02 -0.49172608416E+01 -0.34343886168E+02  0.43400726922E+02  0.00000000000E+00 0. -1.
         11    1    3    3    0    0  0.10005021707E+01 -0.58227426898E+00  0.38444076267E+01  0.40149119765E+01  0.51100000000E-03 0. -1.
        -11    1    3    3    0    0  0.19803707611E+02  0.83434045396E+01  0.31045996277E+02  0.37757821965E+02  0.51100000000E-03 0.  1.
         12    1    3    3    0    0  0.52714709583E+01 -0.28438694290E+01 -0.54651773515E+00  0.60145391368E+01  0.00000000000E+00 0. -1.
</event>
<event>
 7    1  0.2318319E-009  0.4778727E+02  0.7816164E-02  0.1312668E+00
        -11   -1    0    0    0    0  0.00000000000E+00  0.00000000000E+00  0.45593999997E+02  0.45594000000E+02  0.51100000000E-03 0.  1.
         11   -1    0    0    0    0 -0.00000000000E+00 -0.00000000000E+00 -0.45593999997E+02  0.45594000000E+02  0.51100000000E-03 0. -1.
    9900012    2    1    2    0    0 -0.39621695707E+02 -0.97277855186E+01  0.14802528967E+02  0.47787269066E+02  0.19999990981E+02 0.  0.
         12    1    1    2    0    0  0.39621695707E+02  0.97277855186E+01 -0.14802528967E+02  0.43400730934E+02  0.00000000000E+00 0. -1.
         11    1    3    3    0    0 -0.24693320876E+01  0.29994275311E+01 -0.10013825418E+01  0.40120984197E+01  0.51100000000E-03 0. -1.
        -11    1    3    3    0    0 -0.15611759224E+02 -0.39242356824E+01  0.86083195722E+00  0.16120412020E+02  0.51100000000E-03 0.  1.
        -12    1    3    3    0    0 -0.21540604395E+02 -0.88029773673E+01  0.14943079552E+02  0.27654758627E+02  0.00000000000E+00 0.  1.
</event>
<event>
 7    1  0.2318319E-009  0.4778727E+02  0.7816164E-02  0.1312668E+00
        -11   -1    0    0    0    0  0.00000000000E+00  0.00000000000E+00  0.45593999997E+02  0.45594000000E+02  0.51100000000E-03 0.  1.
         11   -1    0    0    0    0 -0.00000000000E+00 -0.00000000000E+00 -0.45593999997E+02  0.45594000000E+02  0.51100000000E-03 0. -1.
    9900012    2    1    2    0    0 -0.41957054063E+01 -0.29439987968E+02  0.31611805971E+02  0.47787272907E+02  0.20000008494E+02 0.  0.
         12    1    1    2    0    0  0.41957054063E+01  0.29439987968E+02 -0.31611805971E+02  0.43400727093E+02  0.00000000000E+00 0. -1.
         11    1    3    3    0    0  0.10329299119E+01 -0.46686182701E+01  0.50334026382E+01  0.69424839312E+01  0.51100000000E-03 0.  1.
        -11    1    3    3    0    0 -0.49202060837E+01 -0.27500493500E+02  0.22233176063E+02  0.35704337114E+02  0.51100000000E-03 0. -1.
         12    1    3    3    0    0 -0.30842923448E+00  0.27291238020E+01  0.43452272699E+01  0.51404518621E+01  0.00000000000E+00 0. -1.
</event>
<event>
 7    1  0.2318319E-009  0.4778727E+02  0.7816164E-02  0.1312668E+00
        -11   -1    0    0    0    0  0.00000000000E+00  0.00000000000E+00  0.45593999997E+02  0.45594000000E+02  0.51100000000E-03 0.  1.
         11   -1    0    0    0    0 -0.00000000000E+00 -0.00000000000E+00 -0.45593999997E+02  0.45594000000E+02  0.51100000000E-03 0. -1.
    9900012    2    1    2    0    0 -0.82471060962E+01 -0.20751679920E+02  0.37215273740E+02  0.47787267541E+02  0.19999984025E+02 0.  0.
         12    1    1    2    0    0  0.82471060962E+01  0.20751679920E+02 -0.37215273740E+02  0.43400732459E+02  0.00000000000E+00 0. -1.
         11    1    3    3    0    0 -0.60933541189E+01 -0.20444575354E+01  0.20991151338E+01  0.67612909743E+01  0.51100000000E-03 0. -1.
        -11    1    3    3    0    0 -0.77165888847E+00 -0.90216113700E+01  0.75972281162E+01  0.11819594090E+02  0.51100000000E-03 0.  1.
        -12    1    3    3    0    0 -0.13820930888E+01 -0.96856110145E+01  0.27518930490E+02  0.29206382476E+02  0.00000000000E+00 0.  1.
</event>
<event>
 7    1  0.2318319E-009  0.4778727E+02  0.7816164E-02  0.1312668E+00
        -11   -1    0    0    0    0  0.00000000000E+00  0.00000000000E+00  0.45593999997E+02  0.45594000000E+02  0.51100000000E-03 0.  1.
         11   -1    0    0    0    0 -0.00000000000E+00 -0.00000000000E+00 -0.45593999997E+02  0.45594000000E+02  0.51100000000E-03 0. -1.
    9900012    2    1    2    0    0  0.16033166304E+02  0.32534821054E+02  0.23833722355E+02  0.47787270467E+02  0.19999997365E+02 0.  0.
         12    1    1    2    0    0 -0.16033166304E+02 -0.32534821054E+02 -0.23833722355E+02  0.43400729533E+02  0.00000000000E+00 0. -1.
         11    1    3    3    0    0  0.11268822837E+01 -0.92440518028E+00  0.44105664787E+00  0.15228000021E+01  0.51100000000E-03 0. -1.
        -11    1    3    3    0    0  0.16895541451E+02  0.19444121279E+02  0.15102300511E+02  0.29859883694E+02  0.51100000000E-03 0.  1.
         12    1    3    3    0    0 -0.19892574306E+01  0.14015104955E+02  0.82903651956E+01  0.16404586770E+02  0.00000000000E+00 0. -1.
</event>
<event>
 7    1  0.2318319E-009  0.4778727E+02  0.7816164E-02  0.1312668E+00
        -11   -1    0    0    0    0  0.00000000000E+00  0.00000000000E+00  0.45593999997E+02  0.45594000000E+02  0.51100000000E-03 0.  1.
         11   -1    0    0    0    0 -0.00000000000E+00 -0.00000000000E+00 -0.45593999997E+02  0.45594000000E+02  0.51100000000E-03 0. -1.
    9900012    2    1    2    0    0 -0.26830438696E+01  0.43260898028E+02  0.22179630520E+01  0.47787269791E+02  0.19999994283E+02 0.  0.
         12    1    1    2    0    0  0.26830438696E+01 -0.43260898028E+02 -0.22179630520E+01  0.43400730209E+02  0.00000000000E+00 0. -1.
         11    1    3    3    0    0 -0.14724424773E+01  0.26557662075E+01  0.29898065382E+01  0.42614697459E+01  0.51100000000E-03 0.  1.
        -11    1    3    3    0    0 -0.19562057239E+01 -0.51145276143E+00  0.12070948540E+01  0.23548679388E+01  0.51100000000E-03 0. -1.
         12    1    3    3    0    0  0.74560433161E+00  0.41116584582E+02 -0.19789383403E+01  0.41170932106E+02  0.00000000000E+00 0. -1.
</event>
<event>
 7    1  0.2318319E-009  0.4778727E+02  0.7816164E-02  0.1312668E+00
        -11   -1    0    0    0    0  0.00000000000E+00  0.00000000000E+00  0.45593999997E+02  0.45594000000E+02  0.51100000000E-03 0. -1.
         11   -1    0    0    0    0 -0.00000000000E+00 -0.00000000000E+00 -0.45593999997E+02  0.45594000000E+02  0.51100000000E-03 0.  1.
    9900012    2    1    2    0    0 -0.27491708197E+02 -0.31218900234E+02  0.12377790333E+02  0.47787269073E+02  0.19999991014E+02 0.  0.
         12    1    1    2    0    0  0.27491708197E+02  0.31218900234E+02 -0.12377790333E+02  0.43400730927E+02  0.00000000000E+00 0. -1.
         11    1    3    3    0    0 -0.68587143187E+01 -0.96745426625E+00  0.32276643599E+01  0.76417110220E+01  0.51100000000E-03 0. -1.
        -11    1    3    3    0    0 -0.16266110577E+02 -0.16314701661E+02  0.10807090800E+02  0.25446985193E+02  0.51100000000E-03 0.  1.
        -12    1    3    3    0    0 -0.43668833013E+01 -0.13936744307E+02 -0.16569648261E+01  0.14698572859E+02  0.00000000000E+00 0.  1.
</event>
<event>
 7    1  0.2318319E-009  0.4778727E+02  0.7816164E-02  0.1312668E+00
        -11   -1    0    0    0    0  0.00000000000E+00  0.00000000000E+00  0.45593999997E+02  0.45594000000E+02  0.51100000000E-03 0. -1.
         11   -1    0    0    0    0 -0.00000000000E+00 -0.00000000000E+00 -0.45593999997E+02  0.45594000000E+02  0.51100000000E-03 0.  1.
    9900012    2    1    2    0    0  0.29490756812E+02 -0.24611621603E+02 -0.20203628014E+02  0.47787271432E+02  0.20000001767E+02 0.  0.
         12    1    1    2    0    0 -0.29490756812E+02  0.24611621603E+02  0.20203628014E+02  0.43400728568E+02  0.00000000000E+00 0. -1.
         11    1    3    3    0    0  0.25950255374E+01  0.20868325452E+01 -0.23570808949E-01  0.33301026194E+01  0.51100000000E-03 0. -1.
        -11    1    3    3    0    0  0.15479408980E+01  0.11519003378E+01 -0.13383707695E+01  0.23482401900E+01  0.51100000000E-03 0.  1.
         12    1    3    3    0    0  0.25347790377E+02 -0.27850354486E+02 -0.18841686435E+02  0.42108928623E+02  0.00000000000E+00 0. -1.
</event>
<event>
 7    1  0.2318319E-009  0.4778727E+02  0.7816164E-02  0.1312668E+00
        -11   -1    0    0    0    0  0.00000000000E+00  0.00000000000E+00  0.45593999997E+02  0.45594000000E+02  0.51100000000E-03 0. -1.
         11   -1    0    0    0    0 -0.00000000000E+00 -0.00000000000E+00 -0.45593999997E+02  0.45594000000E+02  0.51100000000E-03 0.  1.
    9900012    2    1    2    0    0 -0.27324810253E+02 -0.82796818746E+00 -0.33708937658E+02  0.47787271150E+02  0.20000000482E+02 0.  0.
         12    1    1    2    0    0  0.27324810253E+02  0.82796818746E+00  0.33708937658E+02  0.43400728850E+02  0.00000000000E+00 0. -1.
         11    1    3    3    0    0 -0.18942124487E+01  0.45715191413E+00 -0.16156540334E+02  0.16273623582E+02  0.51100000000E-03 0. -1.
        -11    1    3    3    0    0 -0.67891811922E+01 -0.12053573003E+01 -0.80185040072E+01  0.10575550778E+02  0.51100000000E-03 0.  1.
         12    1    3    3    0    0 -0.18641416612E+02 -0.79762801328E-01 -0.95338933166E+01  0.20938096790E+02  0.00000000000E+00 0. -1.
</event>
<event>
 7    1  0.2318319E-009  0.4778728E+02  0.7816164E-02  0.1312668E+00
        -11   -1    0    0    0    0  0.00000000000E+00  0.00000000000E+00  0.45593999997E+02  0.45594000000E+02  0.51100000000E-03 0.  1.
         11   -1    0    0    0    0 -0.00000000000E+00 -0.00000000000E+00 -0.45593999997E+02  0.45594000000E+02  0.51100000000E-03 0. -1.
    9900012    2    1    2    0    0  0.35217658377E+02 -0.25159829631E+02  0.32128219308E+01  0.47787277502E+02  0.20000029441E+02 0.  0.
         12    1    1    2    0    0 -0.35217658377E+02  0.25159829631E+02 -0.32128219308E+01  0.43400722498E+02  0.00000000000E+00 0. -1.
         11    1    3    3    0    0  0.13024264297E+02 -0.48094366939E+01 -0.43614790711E-01  0.13883949161E+02  0.51100000000E-03 0. -1.
        -11    1    3    3    0    0  0.10703032827E+02 -0.15866081204E+02  0.79255469473E+01  0.20714771038E+02  0.51100000000E-03 0.  1.
        -12    1    3    3    0    0  0.11490361252E+02 -0.44843117332E+01 -0.46691102258E+01  0.13188557303E+02  0.00000000000E+00 0.  1.
</event>
<event>
 7    1  0.2318319E-009  0.4778727E+02  0.7816164E-02  0.1312668E+00
        -11   -1    0    0    0    0  0.00000000000E+00  0.00000000000E+00  0.45593999997E+02  0.45594000000E+02  0.51100000000E-03 0.  1.
         11   -1    0    0    0    0 -0.00000000000E+00 -0.00000000000E+00 -0.45593999997E+02  0.45594000000E+02  0.51100000000E-03 0. -1.
    9900012    2    1    2    0    0  0.13115012526E+02  0.15808307577E+02  0.38232408132E+02  0.47787272200E+02  0.20000005269E+02 0.  0.
         12    1    1    2    0    0 -0.13115012526E+02 -0.15808307577E+02 -0.38232408132E+02  0.43400727800E+02  0.00000000000E+00 0. -1.
         11    1    3    3    0    0  0.68558447347E+01  0.27282170656E+01  0.79138471221E+01  0.10820108683E+02  0.51100000000E-03 0. -1.
        -11    1    3    3    0    0  0.28851276176E+01 -0.21360125600E+01  0.94068591728E+00  0.37109838699E+01  0.51100000000E-03 0.  1.
        -12    1    3    3    0    0  0.33740401738E+01  0.15216103071E+02  0.29377875093E+02  0.33256179647E+02  0.00000000000E+00 0.  1.
</event>
<event>
 7    1  0.2318319E-009  0.4778727E+02  0.7816164E-02  0.1312668E+00
        -11   -1    0    0    0    0  0.00000000000E+00  0.00000000000E+00  0.45593999997E+02  0.45594000000E+02  0.51100000000E-03 0.  1.
         11   -1    0    0    0    0 -0.00000000000E+00 -0.00000000000E+00 -0.45593999997E+02  0.45594000000E+02  0.51100000000E-03 0. -1.
    9900012    2    1    2    0    0  0.27085607982E+02 -0.26398117338E+02  0.21286910570E+02  0.47787270509E+02  0.19999997558E+02 0.  0.
         12    1    1    2    0    0 -0.27085607982E+02  0.26398117338E+02 -0.21286910570E+02  0.43400729491E+02  0.00000000000E+00 0. -1.
         11    1    3    3    0    0  0.14359183919E+02 -0.56568751155E+01  0.61690638000E+01  0.16620582039E+02  0.51100000000E-03 0. -1.
        -11    1    3    3    0    0  0.13299610819E+02 -0.10981214185E+02  0.11558365870E+02  0.20762045534E+02  0.51100000000E-03 0.  1.
        -12    1    3    3    0    0 -0.57318675528E+00 -0.97600280374E+01  0.35594809008E+01  0.10404642936E+02  0.00000000000E+00 0.  1.
</event>
<event>
 7    1  0.2318319E-009  0.4778727E+02  0.7816164E-02  0.1312668E+00
        -11   -1    0    0    0    0  0.00000000000E+00  0.00000000000E+00  0.45593999997E+02  0.45594000000E+02  0.51100000000E-03 0.  1.
         11   -1    0    0    0    0 -0.00000000000E+00 -0.00000000000E+00 -0.45593999997E+02  0.45594000000E+02  0.51100000000E-03 0. -1.
    9900012    2    1    2    0    0 -0.42593052636E+02  0.10336482120E+01 -0.82696335451E+01  0.47787269586E+02  0.19999993353E+02 0.  0.
         12    1    1    2    0    0  0.42593052636E+02 -0.10336482120E+01  0.82696335451E+01  0.43400730414E+02  0.00000000000E+00 0. -1.
         11    1    3    3    0    0  0.24193685547E+00 -0.18640931272E+01  0.12172727051E+01  0.22394485322E+01  0.51100000000E-03 0. -1.
        -11    1    3    3    0    0 -0.34757188702E+02 -0.23889893278E+01 -0.83604237901E+01  0.35828286627E+02  0.51100000000E-03 0.  1.
         12    1    3    3    0    0 -0.80778007896E+01  0.52867306669E+01 -0.11264824601E+01  0.97195344268E+01  0.00000000000E+00 0. -1.
</event>
<event>
 7    1  0.2318319E-009  0.4778727E+02  0.7816164E-02  0.1312668E+00
        -11   -1    0    0    0    0  0.00000000000E+00  0.00000000000E+00  0.45593999997E+02  0.45594000000E+02  0.51100000000E-03 0.  1.
         11   -1    0    0    0    0 -0.00000000000E+00 -0.00000000000E+00 -0.45593999997E+02  0.45594000000E+02  0.51100000000E-03 0. -1.
    9900012    2    1    2    0    0 -0.33995207424E+01 -0.39361153720E+02  0.17965706929E+02  0.47787265111E+02  0.19999972947E+02 0.  0.
         12    1    1    2    0    0  0.33995207424E+01  0.39361153720E+02 -0.17965706929E+02  0.43400734889E+02  0.00000000000E+00 0. -1.
         11    1    3    3    0    0 -0.69090046150E+01 -0.13869797030E+02  0.48647476062E+01  0.16241040113E+02  0.51100000000E-03 0. -1.
        -11    1    3    3    0    0 -0.26260179761E+01 -0.20241333648E+02  0.11069953195E+02  0.23219634413E+02  0.51100000000E-03 0.  1.
         12    1    3    3    0    0  0.61355018488E+01 -0.52500230420E+01  0.20310061279E+01  0.83265905849E+01  0.00000000000E+00 0. -1.
</event>
<event>
 7    1  0.2318319E-009  0.4778727E+02  0.7816164E-02  0.1312668E+00
        -11   -1    0    0    0    0  0.00000000000E+00  0.00000000000E+00  0.45593999997E+02  0.45594000000E+02  0.51100000000E-03 0.  1.
         11   -1    0    0    0    0 -0.00000000000E+00 -0.00000000000E+00 -0.45593999997E+02  0.45594000000E+02  0.51100000000E-03 0. -1.
    9900012    2    1    2    0    0 -0.42839392104E+02  0.63005071236E+01 -0.29518530691E+01  0.47787270255E+02  0.19999996400E+02 0.  0.
         12    1    1    2    0    0  0.42839392104E+02 -0.63005071236E+01  0.29518530691E+01  0.43400729745E+02  0.00000000000E+00 0. -1.
         11    1    3    3    0    0 -0.11765170982E+02 -0.79230867713E+00 -0.58293457849E+01  0.13154021203E+02  0.51100000000E-03 0. -1.
        -11    1    3    3    0    0 -0.61981940023E+01  0.55851908465E+01 -0.32754023083E+01  0.89632709556E+01  0.51100000000E-03 0.  1.
        -12    1    3    3    0    0 -0.24876027120E+02  0.15076249543E+01  0.61528950240E+01  0.25669978096E+02  0.00000000000E+00 0.  1.
</event>
<event>
 7    1  0.2318319E-009  0.4778727E+02  0.7816164E-02  0.1312668E+00
        -11   -1    0    0    0    0  0.00000000000E+00  0.00000000000E+00  0.45593999997E+02  0.45594000000E+02  0.51100000000E-03 0. -1.
         11   -1    0    0    0    0 -0.00000000000E+00 -0.00000000000E+00 -0.45593999997E+02  0.45594000000E+02  0.51100000000E-03 0.  1.
    9900012    2    1    2    0    0 -0.12286130427E+02  0.40825271118E+02  0.81222931434E+01  0.47787269492E+02  0.19999992921E+02 0.  0.
         12    1    1    2    0    0  0.12286130427E+02 -0.40825271118E+02 -0.81222931434E+01  0.43400730508E+02  0.00000000000E+00 0. -1.
         11    1    3    3    0    0 -0.81375024427E+00  0.25980411430E+02  0.85252974814E+01  0.27355523482E+02  0.51100000000E-03 0. -1.
        -11    1    3    3    0    0 -0.35099142170E+01  0.11027941584E+02  0.26910357083E+00  0.11576156978E+02  0.51100000000E-03 0.  1.
        -12    1    3    3    0    0 -0.79624659656E+01  0.38169181043E+01 -0.67210790885E+00  0.88555890323E+01  0.00000000000E+00 0.  1.
</event>
<event>
 7    1  0.2585206E-009  0.4778727E+02  0.7816164E-02  0.1312668E+00
        -11   -1    0    0    0    0  0.00000000000E+00  0.00000000000E+00  0.45593999997E+02  0.45594000000E+02  0.51100000000E-03 0.  1.
         11   -1    0    0    0    0 -0.00000000000E+00 -0.00000000000E+00 -0.45593999997E+02  0.45594000000E+02  0.51100000000E-03 0. -1.
    9900012    2    1    2    0    0  0.17778147812E+02  0.33923899381E+02 -0.20413963854E+02  0.47787269486E+02  0.19999992895E+02 0.  0.
         12    1    1    2    0    0 -0.17778147812E+02 -0.33923899381E+02  0.20413963854E+02  0.43400730514E+02  0.00000000000E+00 0. -1.
         11    1    3    3    0    0  0.48073479646E+00 -0.11508636183E+01  0.94855856001E+00  0.15669577580E+01  0.51100000000E-03 0. -1.
        -11    1    3    3    0    0  0.91997032340E+01  0.15348718132E+02 -0.31332569886E+01  0.18166865098E+02  0.51100000000E-03 0.  1.
        -12    1    3    3    0    0  0.80977097819E+01  0.19726044868E+02 -0.18229265426E+02  0.28053446630E+02  0.00000000000E+00 0.  1.
</event>
<event>
 7    1  0.2318319E-009  0.4778727E+02  0.7816164E-02  0.1312668E+00
        -11   -1    0    0    0    0  0.00000000000E+00  0.00000000000E+00  0.45593999997E+02  0.45594000000E+02  0.51100000000E-03 0.  1.
         11   -1    0    0    0    0 -0.00000000000E+00 -0.00000000000E+00 -0.45593999997E+02  0.45594000000E+02  0.51100000000E-03 0. -1.
    9900012    2    1    2    0    0  0.38648948666E+01  0.42394203432E+02  0.84509061471E+01  0.47787266001E+02  0.19999977005E+02 0.  0.
         12    1    1    2    0    0 -0.38648948666E+01 -0.42394203432E+02 -0.84509061471E+01  0.43400733999E+02  0.00000000000E+00 0. -1.
         11    1    3    3    0    0  0.12254888582E+01  0.14276576801E+02  0.66571145927E+01  0.15799988704E+02  0.51100000000E-03 0. -1.
        -11    1    3    3    0    0  0.65155546519E+01  0.27164114710E+02  0.12958622477E+01  0.27964635517E+02  0.51100000000E-03 0.  1.
         12    1    3    3    0    0 -0.38761486436E+01  0.95351192107E+00  0.49792930672E+00  0.40226417794E+01  0.00000000000E+00 0. -1.
</event>
<event>
 7    1  0.2318319E-009  0.4778727E+02  0.7816164E-02  0.1312668E+00
        -11   -1    0    0    0    0  0.00000000000E+00  0.00000000000E+00  0.45593999997E+02  0.45594000000E+02  0.51100000000E-03 0.  1.
         11   -1    0    0    0    0 -0.00000000000E+00 -0.00000000000E+00 -0.45593999997E+02  0.45594000000E+02  0.51100000000E-03 0. -1.
    9900012    2    1    2    0    0 -0.25309783585E+02 -0.21591870804E+02  0.27871662078E+02  0.47787267553E+02  0.19999984080E+02 0.  0.
         12    1    1    2    0    0  0.25309783585E+02  0.21591870804E+02 -0.27871662078E+02  0.43400732447E+02  0.00000000000E+00 0. -1.
         11    1    3    3    0    0 -0.61259165029E+00 -0.28444828488E+01  0.60311374557E+01  0.66963400808E+01  0.51100000000E-03 0. -1.
        -11    1    3    3    0    0 -0.16717579598E+02 -0.29173578246E+01  0.90646186158E+01  0.19239432299E+02  0.51100000000E-03 0.  1.
        -12    1    3    3    0    0 -0.79796123367E+01 -0.15830030131E+02  0.12775906007E+02  0.21851495173E+02  0.00000000000E+00 0.  1.
</event>
<event>
 7    1  0.2318319E-009  0.4778726E+02  0.7816164E-02  0.1312668E+00
        -11   -1    0    0    0    0  0.00000000000E+00  0.00000000000E+00  0.45593999997E+02  0.45594000000E+02  0.51100000000E-03 0.  1.
         11   -1    0    0    0    0 -0.00000000000E+00 -0.00000000000E+00 -0.45593999997E+02  0.45594000000E+02  0.51100000000E-03 0. -1.
    9900012    2    1    2    0    0 -0.98268604660E+01  0.14016493187E+02  0.39882258900E+02  0.47787264490E+02  0.19999970116E+02 0.  0.
         12    1    1    2    0    0  0.98268604660E+01 -0.14016493187E+02 -0.39882258900E+02  0.43400735510E+02  0.00000000000E+00 0. -1.
         11    1    3    3    0    0 -0.33221262418E+01  0.64495123864E-01  0.11192400232E+02  0.11675209018E+02  0.51100000000E-03 0.  1.
        -11    1    3    3    0    0  0.33340866625E+00  0.10414256031E+01 -0.19114497900E+01  0.22021283311E+01  0.51100000000E-03 0. -1.
        -12    1    3    3    0    0 -0.68381428905E+01  0.12910572460E+02  0.30601308457E+02  0.33909927141E+02  0.00000000000E+00 0.  1.
</event>
<event>
 7    1  0.2318319E-009  0.4778728E+02  0.7816164E-02  0.1312668E+00
        -11   -1    0    0    0    0  0.00000000000E+00  0.00000000000E+00  0.45593999997E+02  0.45594000000E+02  0.51100000000E-03 0. -1.
         11   -1    0    0    0    0 -0.00000000000E+00 -0.00000000000E+00 -0.45593999997E+02  0.45594000000E+02  0.51100000000E-03 0.  1.
    9900012    2    1    2    0    0 -0.36453673296E+02  0.18792435511E+02 -0.14198465288E+02  0.47787281737E+02  0.20000048753E+02 0.  0.
         12    1    1    2    0    0  0.36453673296E+02 -0.18792435511E+02  0.14198465288E+02  0.43400718263E+02  0.00000000000E+00 0. -1.
         11    1    3    3    0    0 -0.23244739649E+02  0.16224232006E+02 -0.90409917180E+01  0.29753708290E+02  0.51100000000E-03 0.  1.
        -11    1    3    3    0    0 -0.77937612571E+01  0.45417437137E+01  0.15900044001E+01  0.91595995953E+01  0.51100000000E-03 0. -1.
         12    1    3    3    0    0 -0.54151723900E+01 -0.19735402084E+01 -0.67474779697E+01  0.88739738516E+01  0.00000000000E+00 0. -1.
</event>
<event>
 7    1  0.2318319E-009  0.4778727E+02  0.7816164E-02  0.1312668E+00
        -11   -1    0    0    0    0  0.00000000000E+00  0.00000000000E+00  0.45593999997E+02  0.45594000000E+02  0.51100000000E-03 0. -1.
         11   -1    0    0    0    0 -0.00000000000E+00 -0.00000000000E+00 -0.45593999997E+02  0.45594000000E+02  0.51100000000E-03 0.  1.
    9900012    2    1    2    0    0  0.33200681613E+02  0.26850367723E+02  0.77714592972E+01  0.47787273208E+02  0.20000009865E+02 0.  0.
         12    1    1    2    0    0 -0.33200681613E+02 -0.26850367723E+02 -0.77714592972E+01  0.43400726792E+02  0.00000000000E+00 0. -1.
         11    1    3    3    0    0  0.41632952205E+01  0.57656801300E+01  0.24667055651E+01  0.75273322672E+01  0.51100000000E-03 0. -1.
        -11    1    3    3    0    0  0.29400301863E+02  0.13943269298E+02  0.27048386740E+01  0.32651319435E+02  0.51100000000E-03 0.  1.
        -12    1    3    3    0    0 -0.36291546998E+00  0.71414182956E+01  0.25999150580E+01  0.76086215059E+01  0.00000000000E+00 0.  1.
</event>
<event>
 7    1  0.2318319E-009  0.4778727E+02  0.7816164E-02  0.1312668E+00
        -11   -1    0    0    0    0  0.00000000000E+00  0.00000000000E+00  0.45593999997E+02  0.45594000000E+02  0.51100000000E-03 0.  1.
         11   -1    0    0    0    0 -0.00000000000E+00 -0.00000000000E+00 -0.45593999997E+02  0.45594000000E+02  0.51100000000E-03 0. -1.
    9900012    2    1    2    0    0 -0.13426992441E+02  0.25242570169E+02  0.32651977276E+02  0.47787273108E+02  0.20000009406E+02 0.  0.
         12    1    1    2    0    0  0.13426992441E+02 -0.25242570169E+02 -0.32651977276E+02  0.43400726892E+02  0.00000000000E+00 0. -1.
         11    1    3    3    0    0 -0.10645965619E+02  0.99271586164E+01  0.56202431631E+01  0.15603595599E+02  0.51100000000E-03 0. -1.
        -11    1    3    3    0    0 -0.34258319284E+01  0.23597847102E+01  0.95351698536E+01  0.10403094380E+02  0.51100000000E-03 0.  1.
        -12    1    3    3    0    0  0.64480510686E+00  0.12955626843E+02  0.17496564260E+02  0.21780583128E+02  0.00000000000E+00 0.  1.
</event>
<event>
 7    1  0.2318319E-009  0.4778727E+02  0.7816164E-02  0.1312668E+00
        -11   -1    0    0    0    0  0.00000000000E+00  0.00000000000E+00  0.45593999997E+02  0.45594000000E+02  0.51100000000E-03 0.  1.
         11   -1    0    0    0    0 -0.00000000000E+00 -0.00000000000E+00 -0.45593999997E+02  0.45594000000E+02  0.51100000000E-03 0. -1.
    9900012    2    1    2    0    0  0.21779568875E+02  0.36428938256E+02 -0.90667633834E+01  0.47787270040E+02  0.19999995420E+02 0.  0.
         12    1    1    2    0    0 -0.21779568875E+02 -0.36428938256E+02  0.90667633834E+01  0.43400729960E+02  0.00000000000E+00 0. -1.
         11    1    3    3    0    0  0.26391393005E+01  0.99087618345E+01 -0.38405372896E+01  0.10949810239E+02  0.51100000000E-03 0. -1.
        -11    1    3    3    0    0  0.11147681394E+02  0.25098942138E+02 -0.73818972037E+01  0.28438004563E+02  0.51100000000E-03 0.  1.
         12    1    3    3    0    0  0.79927481801E+01  0.14212342829E+01  0.21556711099E+01  0.83994552378E+01  0.00000000000E+00 0. -1.
</event>
<event>
 7    1  0.2318319E-009  0.4778727E+02  0.7816164E-02  0.1312668E+00
        -11   -1    0    0    0    0  0.00000000000E+00  0.00000000000E+00  0.45593999997E+02  0.45594000000E+02  0.51100000000E-03 0.  1.
         11   -1    0    0    0    0 -0.00000000000E+00 -0.00000000000E+00 -0.45593999997E+02  0.45594000000E+02  0.51100000000E-03 0. -1.
    9900012    2    1    2    0    0  0.27257920896E+02 -0.18505067212E+02  0.28252283420E+02  0.47787270945E+02  0.19999999546E+02 0.  0.
         12    1    1    2    0    0 -0.27257920896E+02  0.18505067212E+02 -0.28252283420E+02  0.43400729055E+02  0.00000000000E+00 0. -1.
         11    1    3    3    0    0  0.95415254675E+01  0.28433617454E+00  0.62490070701E+01  0.11409278896E+02  0.51100000000E-03 0. -1.
        -11    1    3    3    0    0  0.83150482337E+01 -0.56508846251E+01  0.16479571845E+02  0.19304113879E+02  0.51100000000E-03 0.  1.
        -12    1    3    3    0    0  0.94013471951E+01 -0.13138518761E+02  0.55237045043E+01  0.17073878170E+02  0.00000000000E+00 0.  1.
</event>
<event>
 7    1  0.2318319E-009  0.4778728E+02  0.7816164E-02  0.1312668E+00
        -11   -1    0    0    0    0  0.00000000000E+00  0.00000000000E+00  0.45593999997E+02  0.45594000000E+02  0.51100000000E-03 0.  1.
         11   -1    0    0    0    0 -0.00000000000E+00 -0.00000000000E+00 -0.45593999997E+02  0.45594000000E+02  0.51100000000E-03 0. -1.
    9900012    2    1    2    0    0  0.40843868292E+02 -0.73964902338E+01  0.12676463860E+02  0.47787281333E+02  0.20000046908E+02 0.  0.
         12    1    1    2    0    0 -0.40843868292E+02  0.73964902338E+01 -0.12676463860E+02  0.43400718667E+02  0.00000000000E+00 0. -1.
         11    1    3    3    0    0  0.19052428436E+02 -0.49020435347E+01  0.55546604781E+01  0.20442096601E+02  0.51100000000E-03 0. -1.
        -11    1    3    3    0    0  0.14811750026E+02 -0.25321760690E+01 -0.27288103544E+01  0.15272401929E+02  0.51100000000E-03 0.  1.
         12    1    3    3    0    0  0.69796898301E+01  0.37729369946E-01  0.98506137361E+01  0.12072782803E+02  0.00000000000E+00 0. -1.
</event>
<event>
 7    1  0.2318319E-009  0.4778727E+02  0.7816164E-02  0.1312668E+00
        -11   -1    0    0    0    0  0.00000000000E+00  0.00000000000E+00  0.45593999997E+02  0.45594000000E+02  0.51100000000E-03 0. -1.
         11   -1    0    0    0    0 -0.00000000000E+00 -0.00000000000E+00 -0.45593999997E+02  0.45594000000E+02  0.51100000000E-03 0.  1.
    9900012    2    1    2    0    0  0.33351832513E+02 -0.10698790411E+02 -0.25628399519E+02  0.47787266018E+02  0.19999977083E+02 0.  0.
         12    1    1    2    0    0 -0.33351832513E+02  0.10698790411E+02  0.25628399519E+02  0.43400733982E+02  0.00000000000E+00 0. -1.
         11    1    3    3    0    0  0.50956114318E+01 -0.19399651330E+01  0.26946525463E+01  0.60819300545E+01  0.51100000000E-03 0. -1.
        -11    1    3    3    0    0  0.84951093690E+01 -0.47074289419E+01 -0.51882135815E+01  0.11011100348E+02  0.51100000000E-03 0.  1.
        -12    1    3    3    0    0  0.19761111712E+02 -0.40513963366E+01 -0.23134838484E+02  0.30694235616E+02  0.00000000000E+00 0.  1.
</event>
<event>
 7    1  0.2318319E-009  0.4778726E+02  0.7816164E-02  0.1312668E+00
        -11   -1    0    0    0    0  0.00000000000E+00  0.00000000000E+00  0.45593999997E+02  0.45594000000E+02  0.51100000000E-03 0.  1.
         11   -1    0    0    0    0 -0.00000000000E+00 -0.00000000000E+00 -0.45593999997E+02  0.45594000000E+02  0.51100000000E-03 0. -1.
    9900012    2    1    2    0    0 -0.23139752625E+02  0.33993681468E+02  0.13878242898E+02  0.47787260868E+02  0.19999953603E+02 0.  0.
         12    1    1    2    0    0  0.23139752625E+02 -0.33993681468E+02 -0.13878242898E+02  0.43400739132E+02  0.00000000000E+00 0. -1.
         11    1    3    3    0    0 -0.14290896128E+02  0.14950944942E+02  0.41987738309E+01  0.21104268970E+02  0.51100000000E-03 0.  1.
        -11    1    3    3    0    0 -0.16635797557E+01 -0.19683132917E+01  0.36499344943E+00  0.26028782716E+01  0.51100000000E-03 0. -1.
         12    1    3    3    0    0 -0.71852767412E+01  0.21011049817E+02  0.93144756172E+01  0.24080113627E+02  0.00000000000E+00 0. -1.
</event>
<event>
 7    1  0.2318319E-009  0.4778724E+02  0.7816164E-02  0.1312668E+00
        -11   -1    0    0    0    0  0.00000000000E+00  0.00000000000E+00  0.45593999997E+02  0.45594000000E+02  0.51100000000E-03 0.  1.
         11   -1    0    0    0    0 -0.00000000000E+00 -0.00000000000E+00 -0.45593999997E+02  0.45594000000E+02  0.51100000000E-03 0. -1.
    9900012    2    1    2    0    0  0.17041357773E+02  0.14232595132E+02  0.37291434828E+02  0.47787242513E+02  0.19999869914E+02 0.  0.
         12    1    1    2    0    0 -0.17041357773E+02 -0.14232595132E+02 -0.37291434828E+02  0.43400757487E+02  0.00000000000E+00 0. -1.
         11    1    3    3    0    0  0.19353162917E+01 -0.54922103564E-01 -0.13825899170E+01  0.23790798066E+01  0.51100000000E-03 0. -1.
        -11    1    3    3    0    0  0.17899348342E+01  0.61038533934E+01  0.43878432689E+01  0.77274874165E+01  0.51100000000E-03 0.  1.
        -12    1    3    3    0    0  0.13316106647E+02  0.81836638419E+01  0.34286181476E+02  0.37680675290E+02  0.00000000000E+00 0.  1.
</event>
<event>
 7    1  0.2318319E-009  0.4778727E+02  0.7816164E-02  0.1312668E+00
        -11   -1    0    0    0    0  0.00000000000E+00  0.00000000000E+00  0.45593999997E+02  0.45594000000E+02  0.51100000000E-03 0. -1.
         11   -1    0    0    0    0 -0.00000000000E+00 -0.00000000000E+00 -0.45593999997E+02  0.45594000000E+02  0.51100000000E-03 0.  1.
    9900012    2    1    2    0    0  0.37204353957E+02  0.13079712351E+02  0.18121272029E+02  0.47787270415E+02  0.19999997130E+02 0.  0.
         12    1    1    2    0    0 -0.37204353957E+02 -0.13079712351E+02 -0.18121272029E+02  0.43400729585E+02  0.00000000000E+00 0. -1.
         11    1    3    3    0    0  0.15386214283E+02  0.23935560352E+01  0.16028074446E+02  0.22346450975E+02  0.51100000000E-03 0. -1.
        -11    1    3    3    0    0  0.54826328258E+01  0.20080846025E+01  0.36371476756E+01  0.68789904745E+01  0.51100000000E-03 0.  1.
        -12    1    3    3    0    0  0.16335506848E+02  0.86780717131E+01 -0.15439500933E+01  0.18561828965E+02  0.00000000000E+00 0.  1.
</event>
<event>
 7    1  0.2318319E-009  0.4778727E+02  0.7816164E-02  0.1312668E+00
        -11   -1    0    0    0    0  0.00000000000E+00  0.00000000000E+00  0.45593999997E+02  0.45594000000E+02  0.51100000000E-03 0.  1.
         11   -1    0    0    0    0 -0.00000000000E+00 -0.00000000000E+00 -0.45593999997E+02  0.45594000000E+02  0.51100000000E-03 0. -1.
    9900012    2    1    2    0    0  0.28948376333E+02 -0.29180066778E+02 -0.13933361248E+02  0.47787270223E+02  0.19999996255E+02 0.  0.
         12    1    1    2    0    0 -0.28948376333E+02  0.29180066778E+02  0.13933361248E+02  0.43400729777E+02  0.00000000000E+00 0. -1.
         11    1    3    3    0    0  0.48641097552E+01 -0.69573665122E+01  0.63034814396E+00  0.85124527335E+01  0.51100000000E-03 0. -1.
        -11    1    3    3    0    0  0.69606479204E+01 -0.13573580404E+02 -0.10886502250E+00  0.15254656872E+02  0.51100000000E-03 0.  1.
         12    1    3    3    0    0  0.17123618657E+02 -0.86491198627E+01 -0.14454844369E+02  0.24020160617E+02  0.00000000000E+00 0. -1.
</event>
<event>
 7    1  0.2318319E-009  0.4778726E+02  0.7816164E-02  0.1312668E+00
        -11   -1    0    0    0    0  0.00000000000E+00  0.00000000000E+00  0.45593999997E+02  0.45594000000E+02  0.51100000000E-03 0.  1.
         11   -1    0    0    0    0 -0.00000000000E+00 -0.00000000000E+00 -0.45593999997E+02  0.45594000000E+02  0.51100000000E-03 0. -1.
    9900012    2    1    2    0    0 -0.59393073457E+01  0.28866850291E+01  0.42895404433E+02  0.47787262176E+02  0.19999959564E+02 0.  0.
         12    1    1    2    0    0  0.59393073457E+01 -0.28866850291E+01 -0.42895404433E+02  0.43400737824E+02  0.00000000000E+00 0. -1.
         11    1    3    3    0    0 -0.30781959699E+01  0.85952177704E+00  0.69668261117E+01  0.76649027682E+01  0.51100000000E-03 0. -1.
        -11    1    3    3    0    0 -0.70884057735E+01  0.43931697219E+01  0.33830442260E+02  0.34843137924E+02  0.51100000000E-03 0.  1.
         12    1    3    3    0    0  0.42272943977E+01 -0.23660064698E+01  0.20981360612E+01  0.52792214834E+01  0.00000000000E+00 0. -1.
</event>
<event>
 7    1  0.2318319E-009  0.4778726E+02  0.7816164E-02  0.1312668E+00
        -11   -1    0    0    0    0  0.00000000000E+00  0.00000000000E+00  0.45593999997E+02  0.45594000000E+02  0.51100000000E-03 0.  1.
         11   -1    0    0    0    0 -0.00000000000E+00 -0.00000000000E+00 -0.45593999997E+02  0.45594000000E+02  0.51100000000E-03 0. -1.
    9900012    2    1    2    0    0  0.20099712761E+02 -0.31977649844E+02  0.21378856687E+02  0.47787262035E+02  0.19999958923E+02 0.  0.
         12    1    1    2    0    0 -0.20099712761E+02  0.31977649844E+02 -0.21378856687E+02  0.43400737965E+02  0.00000000000E+00 0. -1.
         11    1    3    3    0    0  0.28699214150E+01 -0.11914818611E+02  0.92371852621E+01  0.15346821928E+02  0.51100000000E-03 0. -1.
        -11    1    3    3    0    0  0.73663190170E+01 -0.15212302985E+02  0.13132587066E+02  0.21404244001E+02  0.51100000000E-03 0.  1.
         12    1    3    3    0    0  0.98634723292E+01 -0.48505282482E+01 -0.99091564085E+00  0.11036196106E+02  0.00000000000E+00 0. -1.
</event>
<event>
 7    1  0.2318319E-009  0.4778726E+02  0.7816164E-02  0.1312668E+00
        -11   -1    0    0    0    0  0.00000000000E+00  0.00000000000E+00  0.45593999997E+02  0.45594000000E+02  0.51100000000E-03 0.  1.
         11   -1    0    0    0    0 -0.00000000000E+00 -0.00000000000E+00 -0.45593999997E+02  0.45594000000E+02  0.51100000000E-03 0. -1.
    9900012    2    1    2    0    0  0.23597902674E+01 -0.11044422804E+02  0.41905567343E+02  0.47787257385E+02  0.19999937722E+02 0.  0.
         12    1    1    2    0    0 -0.23597902674E+01  0.11044422804E+02 -0.41905567343E+02  0.43400742615E+02  0.00000000000E+00 0. -1.
         11    1    3    3    0    0 -0.40379110464E+01 -0.43654794121E+00  0.18438237559E+01  0.44603795834E+01  0.51100000000E-03 0. -1.
        -11    1    3    3    0    0 -0.23374635289E+00 -0.34397546656E+00  0.18793343302E+02  0.18797944281E+02  0.51100000000E-03 0.  1.
         12    1    3    3    0    0  0.66314476666E+01 -0.10263899396E+02  0.21268400285E+02  0.24528933521E+02  0.00000000000E+00 0. -1.
</event>
<event>
 7    1  0.2318319E-009  0.4778726E+02  0.7816164E-02  0.1312668E+00
        -11   -1    0    0    0    0  0.00000000000E+00  0.00000000000E+00  0.45593999997E+02  0.45594000000E+02  0.51100000000E-03 0.  1.
         11   -1    0    0    0    0 -0.00000000000E+00 -0.00000000000E+00 -0.45593999997E+02  0.45594000000E+02  0.51100000000E-03 0. -1.
    9900012    2    1    2    0    0 -0.31923846718E+02  0.40783325401E+01  0.29118019000E+02  0.47787264798E+02  0.19999971521E+02 0.  0.
         12    1    1    2    0    0  0.31923846718E+02 -0.40783325401E+01 -0.29118019000E+02  0.43400735202E+02  0.00000000000E+00 0. -1.
         11    1    3    3    0    0 -0.10626271496E+02 -0.16869893198E+01  0.65841308060E+01  0.12614053972E+02  0.51100000000E-03 0. -1.
        -11    1    3    3    0    0 -0.22746497119E+02  0.18465135388E+01  0.18740622245E+02  0.29530046831E+02  0.51100000000E-03 0.  1.
         12    1    3    3    0    0  0.14489218975E+01  0.39188083210E+01  0.37932659490E+01  0.56431639956E+01  0.00000000000E+00 0. -1.
</event>
<event>
 7    1  0.2318319E-009  0.4778727E+02  0.7816164E-02  0.1312668E+00
        -11   -1    0    0    0    0  0.00000000000E+00  0.00000000000E+00  0.45593999997E+02  0.45594000000E+02  0.51100000000E-03 0.  1.
         11   -1    0    0    0    0 -0.00000000000E+00 -0.00000000000E+00 -0.45593999997E+02  0.45594000000E+02  0.51100000000E-03 0. -1.
    9900012    2    1    2    0    0  0.28622970145E+02 -0.19927874091E+02  0.25830767476E+02  0.47787272654E+02  0.20000007340E+02 0.  0.
         12    1    1    2    0    0 -0.28622970145E+02  0.19927874091E+02 -0.25830767476E+02  0.43400727346E+02  0.00000000000E+00 0. -1.
         11    1    3    3    0    0  0.10092833642E+02 -0.82115440026E+01  0.12389386272E+02  0.17966403043E+02  0.51100000000E-03 0. -1.
        -11    1    3    3    0    0  0.21197216810E+02 -0.10596136811E+02  0.11534273295E+02  0.26356015945E+02  0.51100000000E-03 0.  1.
         12    1    3    3    0    0 -0.26670803078E+01 -0.11201932777E+01  0.19071079099E+01  0.34648536662E+01  0.00000000000E+00 0. -1.
</event>
<event>
 7    1  0.2318319E-009  0.4778727E+02  0.7816164E-02  0.1312668E+00
        -11   -1    0    0    0    0  0.00000000000E+00  0.00000000000E+00  0.45593999997E+02  0.45594000000E+02  0.51100000000E-03 0.  1.
         11   -1    0    0    0    0 -0.00000000000E+00 -0.00000000000E+00 -0.45593999997E+02  0.45594000000E+02  0.51100000000E-03 0. -1.
    9900012    2    1    2    0    0 -0.11382180164E+02 -0.41222716689E+02  0.73998123162E+01  0.47787267071E+02  0.19999981883E+02 0.  0.
         12    1    1    2    0    0  0.11382180164E+02  0.41222716689E+02 -0.73998123162E+01  0.43400732929E+02  0.00000000000E+00 0. -1.
         11    1    3    3    0    0 -0.14068169832E+02 -0.20809844861E+02 -0.44977783940E-01  0.25119018071E+02  0.51100000000E-03 0. -1.
        -11    1    3    3    0    0 -0.17481690893E+01 -0.53423198488E+01  0.11093136544E+01  0.57294898182E+01  0.51100000000E-03 0.  1.
         12    1    3    3    0    0  0.44341587579E+01 -0.15070551978E+02  0.63354764458E+01  0.16938759182E+02  0.00000000000E+00 0. -1.
</event>
<event>
 7    1  0.2318319E-009  0.4778727E+02  0.7816164E-02  0.1312668E+00
        -11   -1    0    0    0    0  0.00000000000E+00  0.00000000000E+00  0.45593999997E+02  0.45594000000E+02  0.51100000000E-03 0.  1.
         11   -1    0    0    0    0 -0.00000000000E+00 -0.00000000000E+00 -0.45593999997E+02  0.45594000000E+02  0.51100000000E-03 0. -1.
    9900012    2    1    2    0    0  0.13023293403E+02 -0.15072398937E+02  0.38559563403E+02  0.47787270622E+02  0.19999998072E+02 0.  0.
         12    1    1    2    0    0 -0.13023293403E+02  0.15072398937E+02 -0.38559563403E+02  0.43400729378E+02  0.00000000000E+00 0. -1.
         11    1    3    3    0    0 -0.35966332597E+01 -0.43268416365E+01  0.45659496228E+01  0.72460489628E+01  0.51100000000E-03 0. -1.
        -11    1    3    3    0    0  0.61931855323E+01 -0.14501214185E+01  0.41625350435E+01  0.76016509664E+01  0.51100000000E-03 0.  1.
        -12    1    3    3    0    0  0.10426741130E+02 -0.92954358824E+01  0.29831078736E+02  0.32939570692E+02  0.00000000000E+00 0.  1.
</event>
<event>
 7    1  0.2318319E-009  0.4778725E+02  0.7816164E-02  0.1312668E+00
        -11   -1    0    0    0    0  0.00000000000E+00  0.00000000000E+00  0.45593999997E+02  0.45594000000E+02  0.51100000000E-03 0. -1.
         11   -1    0    0    0    0 -0.00000000000E+00 -0.00000000000E+00 -0.45593999997E+02  0.45594000000E+02  0.51100000000E-03 0.  1.
    9900012    2    1    2    0    0  0.41957360199E+02 -0.10907438174E+02  0.20573605479E+01  0.47787250988E+02  0.19999908553E+02 0.  0.
         12    1    1    2    0    0 -0.41957360199E+02  0.10907438174E+02 -0.20573605479E+01  0.43400749012E+02  0.00000000000E+00 0. -1.
         11    1    3    3    0    0  0.87405030933E+01  0.15415512141E+01  0.25470094466E+01  0.92336358956E+01  0.51100000000E-03 0.  1.
        -11    1    3    3    0    0  0.50381276878E+01 -0.76914905900E+01  0.32072237162E+01  0.97379691066E+01  0.51100000000E-03 0. -1.
        -12    1    3    3    0    0  0.28178729418E+02 -0.47574987979E+01 -0.36968726150E+01  0.28815645985E+02  0.00000000000E+00 0.  1.
</event>
<event>
 7    1  0.2318319E-009  0.4778727E+02  0.7816164E-02  0.1312668E+00
        -11   -1    0    0    0    0  0.00000000000E+00  0.00000000000E+00  0.45593999997E+02  0.45594000000E+02  0.51100000000E-03 0.  1.
         11   -1    0    0    0    0 -0.00000000000E+00 -0.00000000000E+00 -0.45593999997E+02  0.45594000000E+02  0.51100000000E-03 0. -1.
    9900012    2    1    2    0    0  0.57420617656E+01 -0.13500951598E+02  0.40845766730E+02  0.47787266975E+02  0.19999981446E+02 0.  0.
         12    1    1    2    0    0 -0.57420617656E+01  0.13500951598E+02 -0.40845766730E+02  0.43400733025E+02  0.00000000000E+00 0. -1.
         11    1    3    3    0    0  0.57971279272E+01 -0.89064236334E+01  0.81932732999E+01  0.13418673622E+02  0.51100000000E-03 0. -1.
        -11    1    3    3    0    0  0.57499368222E-01  0.17202001091E+01  0.80358912552E+00  0.18995131840E+01  0.51100000000E-03 0.  1.
        -12    1    3    3    0    0 -0.11256552976E+00 -0.63147280739E+01  0.31848904304E+02  0.32469080169E+02  0.00000000000E+00 0.  1.
</event>
<event>
 7    1  0.2318319E-009  0.4778727E+02  0.7816164E-02  0.1312668E+00
        -11   -1    0    0    0    0  0.00000000000E+00  0.00000000000E+00  0.45593999997E+02  0.45594000000E+02  0.51100000000E-03 0.  1.
         11   -1    0    0    0    0 -0.00000000000E+00 -0.00000000000E+00 -0.45593999997E+02  0.45594000000E+02  0.51100000000E-03 0. -1.
    9900012    2    1    2    0    0 -0.36485978098E+02 -0.18215411370E+02  0.14852450301E+02  0.47787273173E+02  0.20000009705E+02 0.  0.
         12    1    1    2    0    0  0.36485978098E+02  0.18215411370E+02 -0.14852450301E+02  0.43400726827E+02  0.00000000000E+00 0. -1.
         11    1    3    3    0    0 -0.28039035282E+02 -0.16612698858E+02  0.16531449655E+02  0.36543920026E+02  0.51100000000E-03 0. -1.
        -11    1    3    3    0    0 -0.90465105533E+01 -0.15276331062E+01  0.29461098157E+00  0.91793143529E+01  0.51100000000E-03 0.  1.
         12    1    3    3    0    0  0.59956773757E+00 -0.75079406065E-01 -0.19736103350E+01  0.20640387941E+01  0.00000000000E+00 0. -1.
</event>
<event>
 7    1  0.2318319E-009  0.4778727E+02  0.7816164E-02  0.1312668E+00
        -11   -1    0    0    0    0  0.00000000000E+00  0.00000000000E+00  0.45593999997E+02  0.45594000000E+02  0.51100000000E-03 0.  1.
         11   -1    0    0    0    0 -0.00000000000E+00 -0.00000000000E+00 -0.45593999997E+02  0.45594000000E+02  0.51100000000E-03 0. -1.
    9900012    2    1    2    0    0 -0.12293120546E+02  0.29930063455E+02  0.28925656312E+02  0.47787272998E+02  0.20000008909E+02 0.  0.
         12    1    1    2    0    0  0.12293120546E+02 -0.29930063455E+02 -0.28925656312E+02  0.43400727002E+02  0.00000000000E+00 0. -1.
         11    1    3    3    0    0 -0.42112172748E+00  0.30189325242E-01 -0.14779622046E+01  0.15370840719E+01  0.51100000000E-03 0. -1.
        -11    1    3    3    0    0 -0.71321994255E+01  0.20834287188E+02  0.11711489583E+02  0.24941827916E+02  0.51100000000E-03 0.  1.
        -12    1    3    3    0    0 -0.47397993931E+01  0.90655869415E+01  0.18692128933E+02  0.21308361010E+02  0.00000000000E+00 0.  1.
</event>
<event>
 7    1  0.2318319E-009  0.4778727E+02  0.7816164E-02  0.1312668E+00
        -11   -1    0    0    0    0  0.00000000000E+00  0.00000000000E+00  0.45593999997E+02  0.45594000000E+02  0.51100000000E-03 0.  1.
         11   -1    0    0    0    0 -0.00000000000E+00 -0.00000000000E+00 -0.45593999997E+02  0.45594000000E+02  0.51100000000E-03 0. -1.
    9900012    2    1    2    0    0  0.35197148866E+02 -0.17527759001E+02  0.18372849352E+02  0.47787271697E+02  0.20000002977E+02 0.  0.
         12    1    1    2    0    0 -0.35197148866E+02  0.17527759001E+02 -0.18372849352E+02  0.43400728303E+02  0.00000000000E+00 0. -1.
         11    1    3    3    0    0  0.17561662495E+02 -0.12231623217E+02  0.78757664883E+01  0.22804655099E+02  0.51100000000E-03 0. -1.
        -11    1    3    3    0    0  0.12996740198E+02 -0.97093966676E+01  0.68124341016E+01  0.17595365813E+02  0.51100000000E-03 0.  1.
         12    1    3    3    0    0  0.46387461718E+01  0.44132608835E+01  0.36846487622E+01  0.73872507859E+01  0.00000000000E+00 0. -1.
</event>
<event>
 7    1  0.2318319E-009  0.4778727E+02  0.7816164E-02  0.1312668E+00
        -11   -1    0    0    0    0  0.00000000000E+00  0.00000000000E+00  0.45593999997E+02  0.45594000000E+02  0.51100000000E-03 0.  1.
         11   -1    0    0    0    0 -0.00000000000E+00 -0.00000000000E+00 -0.45593999997E+02  0.45594000000E+02  0.51100000000E-03 0. -1.
    9900012    2    1    2    0    0 -0.36516890073E+00 -0.29123691996E+02  0.32176085273E+02  0.47787271350E+02  0.20000001395E+02 0.  0.
         12    1    1    2    0    0  0.36516890073E+00  0.29123691996E+02 -0.32176085273E+02  0.43400728650E+02  0.00000000000E+00 0. -1.
         11    1    3    3    0    0 -0.38612937678E+01 -0.11754795343E+02  0.19036614455E+02  0.22704129433E+02  0.51100000000E-03 0. -1.
        -11    1    3    3    0    0  0.34967717075E+01 -0.13043688261E+02  0.15165788183E+02  0.20306805442E+02  0.51100000000E-03 0.  1.
         12    1    3    3    0    0 -0.64684047298E-03 -0.43252083930E+01 -0.20263173652E+01  0.47763364753E+01  0.00000000000E+00 0. -1.
</event>
<event>
 7    1  0.2318319E-009  0.4778725E+02  0.7816164E-02  0.1312668E+00
        -11   -1    0    0    0    0  0.00000000000E+00  0.00000000000E+00  0.45593999997E+02  0.45594000000E+02  0.51100000000E-03 0.  1.
         11   -1    0    0    0    0 -0.00000000000E+00 -0.00000000000E+00 -0.45593999997E+02  0.45594000000E+02  0.51100000000E-03 0. -1.
    9900012    2    1    2    0    0 -0.67972151517E+01 -0.17121443233E+02  0.39297318854E+02  0.47787248609E+02  0.19999897706E+02 0.  0.
         12    1    1    2    0    0  0.67972151517E+01  0.17121443233E+02 -0.39297318854E+02  0.43400751391E+02  0.00000000000E+00 0. -1.
         11    1    3    3    0    0 -0.81732983760E+01 -0.17536948440E+01  0.23071351444E+02  0.24539060896E+02  0.51100000000E-03 0. -1.
        -11    1    3    3    0    0 -0.25132222044E+01 -0.59744361486E+01  0.61916880085E+01  0.89636585052E+01  0.51100000000E-03 0.  1.
         12    1    3    3    0    0  0.38893054286E+01 -0.93933122404E+01  0.10034279402E+02  0.14284529207E+02  0.00000000000E+00 0. -1.
</event>
<event>
 7    1  0.2318319E-009  0.4778727E+02  0.7816164E-02  0.1312668E+00
        -11   -1    0    0    0    0  0.00000000000E+00  0.00000000000E+00  0.45593999997E+02  0.45594000000E+02  0.51100000000E-03 0.  1.
         11   -1    0    0    0    0 -0.00000000000E+00 -0.00000000000E+00 -0.45593999997E+02  0.45594000000E+02  0.51100000000E-03 0. -1.
    9900012    2    1    2    0    0 -0.23187533146E+02  0.39381887418E+01  0.36475366792E+02  0.47787269516E+02  0.19999993031E+02 0.  0.
         12    1    1    2    0    0  0.23187533146E+02 -0.39381887418E+01 -0.36475366792E+02  0.43400730484E+02  0.00000000000E+00 0. -1.
         11    1    3    3    0    0 -0.13691882608E+02 -0.11273789997E+00  0.34286770321E+02  0.36919682806E+02  0.51100000000E-03 0.  1.
        -11    1    3    3    0    0 -0.44453630402E+01  0.14161050170E+01  0.22302811712E+01  0.51711469078E+01  0.51100000000E-03 0. -1.
        -12    1    3    3    0    0 -0.50502874975E+01  0.26348216248E+01 -0.41684700863E-01  0.56964398018E+01  0.00000000000E+00 0.  1.
</event>
<event>
 7    1  0.2318319E-009  0.4778727E+02  0.7816164E-02  0.1312668E+00
        -11   -1    0    0    0    0  0.00000000000E+00  0.00000000000E+00  0.45593999997E+02  0.45594000000E+02  0.51100000000E-03 0. -1.
         11   -1    0    0    0    0 -0.00000000000E+00 -0.00000000000E+00 -0.45593999997E+02  0.45594000000E+02  0.51100000000E-03 0.  1.
    9900012    2    1    2    0    0 -0.30373698175E+02  0.28035129654E+02  0.13232285939E+02  0.47787269284E+02  0.19999991972E+02 0.  0.
         12    1    1    2    0    0  0.30373698175E+02 -0.28035129654E+02 -0.13232285939E+02  0.43400730716E+02  0.00000000000E+00 0. -1.
         11    1    3    3    0    0 -0.15680605578E+02  0.70779448373E+01  0.81805788109E+01  0.19049949196E+02  0.51100000000E-03 0. -1.
        -11    1    3    3    0    0 -0.16407531865E+02  0.16085230923E+02  0.52483506272E+01  0.23568770446E+02  0.51100000000E-03 0.  1.
         12    1    3    3    0    0  0.17144392678E+01  0.48719538930E+01 -0.19664349871E+00  0.51685496422E+01  0.00000000000E+00 0. -1.
</event>
<event>
 7    1  0.2318319E-009  0.4778721E+02  0.7816164E-02  0.1312668E+00
        -11   -1    0    0    0    0  0.00000000000E+00  0.00000000000E+00  0.45593999997E+02  0.45594000000E+02  0.51100000000E-03 0.  1.
         11   -1    0    0    0    0 -0.00000000000E+00 -0.00000000000E+00 -0.45593999997E+02  0.45594000000E+02  0.51100000000E-03 0. -1.
    9900012    2    1    2    0    0 -0.18789555416E+02  0.39122200226E+02 -0.18656046501E+00  0.47787207979E+02  0.19999712456E+02 0.  0.
         12    1    1    2    0    0  0.18789555416E+02 -0.39122200226E+02  0.18656046501E+00  0.43400792021E+02  0.00000000000E+00 0. -1.
         11    1    3    3    0    0 -0.13467893198E+01 -0.11376741240E+01 -0.13909523345E+01  0.22456385600E+01  0.51100000000E-03 0. -1.
        -11    1    3    3    0    0 -0.43741519001E+01  0.25048410935E+02  0.16650058674E+01  0.25481921827E+02  0.51100000000E-03 0.  1.
         12    1    3    3    0    0 -0.13068614196E+02  0.15211463415E+02 -0.46061399786E+00  0.20059647591E+02  0.00000000000E+00 0. -1.
</event>
<event>
 7    1  0.2318319E-009  0.4778726E+02  0.7816164E-02  0.1312668E+00
        -11   -1    0    0    0    0  0.00000000000E+00  0.00000000000E+00  0.45593999997E+02  0.45594000000E+02  0.51100000000E-03 0.  1.
         11   -1    0    0    0    0 -0.00000000000E+00 -0.00000000000E+00 -0.45593999997E+02  0.45594000000E+02  0.51100000000E-03 0. -1.
    9900012    2    1    2    0    0 -0.42768684992E+00 -0.26949249178E+02  0.34017333370E+02  0.47787263636E+02  0.19999966222E+02 0.  0.
         12    1    1    2    0    0  0.42768684992E+00  0.26949249178E+02 -0.34017333370E+02  0.43400736364E+02  0.00000000000E+00 0. -1.
         11    1    3    3    0    0 -0.26392815302E+01 -0.22812215857E+01  0.49464395224E+00  0.35234147952E+01  0.51100000000E-03 0. -1.
        -11    1    3    3    0    0 -0.46198306425E+01 -0.49542348841E+01  0.14608815778E+02  0.16102943121E+02  0.51100000000E-03 0.  1.
        -12    1    3    3    0    0  0.68314253228E+01 -0.19713792709E+02  0.18913873640E+02  0.28160905720E+02  0.00000000000E+00 0.  1.
</event>
<event>
 7    1  0.2318319E-009  0.4778727E+02  0.7816164E-02  0.1312668E+00
        -11   -1    0    0    0    0  0.00000000000E+00  0.00000000000E+00  0.45593999997E+02  0.45594000000E+02  0.51100000000E-03 0.  1.
         11   -1    0    0    0    0 -0.00000000000E+00 -0.00000000000E+00 -0.45593999997E+02  0.45594000000E+02  0.51100000000E-03 0. -1.
    9900012    2    1    2    0    0  0.15958710579E+02 -0.38307345330E+02  0.12707874517E+02  0.47787271616E+02  0.20000002604E+02 0.  0.
         12    1    1    2    0    0 -0.15958710579E+02  0.38307345330E+02 -0.12707874517E+02  0.43400728384E+02  0.00000000000E+00 0. -1.
         11    1    3    3    0    0 -0.22264348677E+01 -0.52021760049E+01  0.23343065853E+00  0.56634033531E+01  0.51100000000E-03 0. -1.
        -11    1    3    3    0    0  0.13073053257E+02 -0.10594211898E+02  0.26420572526E+01  0.17032983121E+02  0.51100000000E-03 0.  1.
        -12    1    3    3    0    0  0.51120921898E+01 -0.22510957427E+02  0.98323866059E+01  0.25090885142E+02  0.00000000000E+00 0.  1.
</event>
<event>
 7    1  0.2318319E-009  0.4778727E+02  0.7816164E-02  0.1312668E+00
        -11   -1    0    0    0    0  0.00000000000E+00  0.00000000000E+00  0.45593999997E+02  0.45594000000E+02  0.51100000000E-03 0.  1.
         11   -1    0    0    0    0 -0.00000000000E+00 -0.00000000000E+00 -0.45593999997E+02  0.45594000000E+02  0.51100000000E-03 0. -1.
    9900012    2    1    2    0    0  0.26120405065E+02 -0.31346396528E+02  0.14790233618E+02  0.47787272511E+02  0.20000006689E+02 0.  0.
         12    1    1    2    0    0 -0.26120405065E+02  0.31346396528E+02 -0.14790233618E+02  0.43400727489E+02  0.00000000000E+00 0. -1.
         11    1    3    3    0    0  0.12749720086E+02 -0.26874699239E+01  0.26664782869E+01  0.13299923443E+02  0.51100000000E-03 0. -1.
        -11    1    3    3    0    0  0.35742808762E+01 -0.68353260230E+01  0.10009857708E+00  0.77140900701E+01  0.51100000000E-03 0.  1.
         12    1    3    3    0    0  0.97964041030E+01 -0.21823600581E+02  0.12023656754E+02  0.26773258999E+02  0.00000000000E+00 0. -1.
</event>
<event>
 7    1  0.2318319E-009  0.4778728E+02  0.7816164E-02  0.1312668E+00
        -11   -1    0    0    0    0  0.00000000000E+00  0.00000000000E+00  0.45593999997E+02  0.45594000000E+02  0.51100000000E-03 0.  1.
         11   -1    0    0    0    0 -0.00000000000E+00 -0.00000000000E+00 -0.45593999997E+02  0.45594000000E+02  0.51100000000E-03 0. -1.
    9900012    2    1    2    0    0  0.16966822139E+02  0.10087134710E+02  0.38652285233E+02  0.47787280030E+02  0.20000040969E+02 0.  0.
         12    1    1    2    0    0 -0.16966822139E+02 -0.10087134710E+02 -0.38652285233E+02  0.43400719970E+02  0.00000000000E+00 0. -1.
         11    1    3    3    0    0  0.50508516570E+00  0.64908789219E+01  0.44014571531E+01  0.78587178047E+01  0.51100000000E-03 0. -1.
        -11    1    3    3    0    0  0.68249034454E+01 -0.11701574006E+01  0.44086880069E+01  0.82088431331E+01  0.51100000000E-03 0.  1.
         12    1    3    3    0    0  0.96368335280E+01  0.47664131889E+01  0.29842140073E+02  0.31719719092E+02  0.00000000000E+00 0. -1.
</event>
<event>
 7    1  0.2846747E-009  0.4778727E+02  0.7816164E-02  0.1312668E+00
        -11   -1    0    0    0    0  0.00000000000E+00  0.00000000000E+00  0.45593999997E+02  0.45594000000E+02  0.51100000000E-03 0. -1.
         11   -1    0    0    0    0 -0.00000000000E+00 -0.00000000000E+00 -0.45593999997E+02  0.45594000000E+02  0.51100000000E-03 0.  1.
    9900012    2    1    2    0    0 -0.17299085375E+02 -0.37332027466E+01 -0.39628626556E+02  0.47787271892E+02  0.20000003866E+02 0.  0.
         12    1    1    2    0    0  0.17299085375E+02  0.37332027466E+01  0.39628626556E+02  0.43400728108E+02  0.00000000000E+00 0. -1.
         11    1    3    3    0    0 -0.27466475176E+01 -0.62544757840E+01 -0.95595513663E+01  0.11749364345E+02  0.51100000000E-03 0. -1.
        -11    1    3    3    0    0 -0.14584663478E+02 -0.21548463409E+01 -0.25752170757E+02  0.29673726940E+02  0.51100000000E-03 0.  1.
         12    1    3    3    0    0  0.32225620943E-01  0.46761193783E+01 -0.43169044323E+01  0.63641806078E+01  0.00000000000E+00 0. -1.
</event>
<event>
 7    1  0.2318319E-009  0.4778726E+02  0.7816164E-02  0.1312668E+00
        -11   -1    0    0    0    0  0.00000000000E+00  0.00000000000E+00  0.45593999997E+02  0.45594000000E+02  0.51100000000E-03 0.  1.
         11   -1    0    0    0    0 -0.00000000000E+00 -0.00000000000E+00 -0.45593999997E+02  0.45594000000E+02  0.51100000000E-03 0. -1.
    9900012    2    1    2    0    0  0.42237277771E+02  0.99807372171E+01  0.14515417352E+00  0.47787264769E+02  0.19999971386E+02 0.  0.
         12    1    1    2    0    0 -0.42237277771E+02 -0.99807372171E+01 -0.14515417352E+00  0.43400735231E+02  0.00000000000E+00 0. -1.
         11    1    3    3    0    0  0.19921581308E+01  0.42172667895E+01  0.11064340274E+01  0.47935612763E+01  0.51100000000E-03 0. -1.
        -11    1    3    3    0    0  0.30964212442E+02  0.76035111880E+01  0.42918670722E+01  0.32171663895E+02  0.51100000000E-03 0.  1.
         12    1    3    3    0    0  0.92809071980E+01 -0.18400407604E+01 -0.52531469261E+01  0.10822039597E+02  0.00000000000E+00 0. -1.
</event>
<event>
 7    1  0.2318319E-009  0.4778727E+02  0.7816164E-02  0.1312668E+00
        -11   -1    0    0    0    0  0.00000000000E+00  0.00000000000E+00  0.45593999997E+02  0.45594000000E+02  0.51100000000E-03 0.  1.
         11   -1    0    0    0    0 -0.00000000000E+00 -0.00000000000E+00 -0.45593999997E+02  0.45594000000E+02  0.51100000000E-03 0. -1.
    9900012    2    1    2    0    0 -0.31148814896E+02  0.92353712127E+01  0.28776422379E+02  0.47787271483E+02  0.20000002000E+02 0.  0.
         12    1    1    2    0    0  0.31148814896E+02 -0.92353712127E+01 -0.28776422379E+02  0.43400728517E+02  0.00000000000E+00 0. -1.
         11    1    3    3    0    0  0.11149630744E+00  0.62270052402E+00  0.90563408244E+01  0.90784082722E+01  0.51100000000E-03 0. -1.
        -11    1    3    3    0    0 -0.19736469956E+02  0.61510667919E+01  0.16616888936E+02  0.26523289147E+02  0.51100000000E-03 0.  1.
        -12    1    3    3    0    0 -0.11523841247E+02  0.24616038968E+01  0.31031926191E+01  0.12185574064E+02  0.00000000000E+00 0.  1.
</event>
<event>
 7    1  0.2318319E-009  0.4778727E+02  0.7816164E-02  0.1312668E+00
        -11   -1    0    0    0    0  0.00000000000E+00  0.00000000000E+00  0.45593999997E+02  0.45594000000E+02  0.51100000000E-03 0.  1.
         11   -1    0    0    0    0 -0.00000000000E+00 -0.00000000000E+00 -0.45593999997E+02  0.45594000000E+02  0.51100000000E-03 0. -1.
    9900012    2    1    2    0    0  0.18036412367E+02  0.35654088947E+02  0.16943936254E+02  0.47787271833E+02  0.20000003593E+02 0.  0.
         12    1    1    2    0    0 -0.18036412367E+02 -0.35654088947E+02 -0.16943936254E+02  0.43400728167E+02  0.00000000000E+00 0. -1.
         11    1    3    3    0    0  0.57126617211E+01  0.18876932295E+02 -0.78054962808E+00  0.19737840176E+02  0.51100000000E-03 0. -1.
        -11    1    3    3    0    0  0.48587984191E+01  0.42884223038E+01  0.23806726596E+01  0.69040633330E+01  0.51100000000E-03 0.  1.
         12    1    3    3    0    0  0.74649522264E+01  0.12488734348E+02  0.15343813222E+02  0.21145368324E+02  0.00000000000E+00 0. -1.
</event>
<event>
 7    1  0.2318319E-009  0.4778727E+02  0.7816164E-02  0.1312668E+00
        -11   -1    0    0    0    0  0.00000000000E+00  0.00000000000E+00  0.45593999997E+02  0.45594000000E+02  0.51100000000E-03 0.  1.
         11   -1    0    0    0    0 -0.00000000000E+00 -0.00000000000E+00 -0.45593999997E+02  0.45594000000E+02  0.51100000000E-03 0. -1.
    9900012    2    1    2    0    0 -0.12348111304E+02  0.20412363583E+02  0.36255797205E+02  0.47787271080E+02  0.20000000160E+02 0.  0.
         12    1    1    2    0    0  0.12348111304E+02 -0.20412363583E+02 -0.36255797205E+02  0.43400728920E+02  0.00000000000E+00 0. -1.
         11    1    3    3    0    0 -0.88967476331E+01  0.68652418450E+01  0.12199044438E+02  0.16586149327E+02  0.51100000000E-03 0. -1.
        -11    1    3    3    0    0 -0.67635149485E+01  0.93378557368E+00  0.81610380649E+01  0.10640471442E+02  0.51100000000E-03 0.  1.
         12    1    3    3    0    0  0.33121512771E+01  0.12613336165E+02  0.15895714703E+02  0.20560650310E+02  0.00000000000E+00 0. -1.
</event>
<event>
 7    1  0.2318319E-009  0.4778726E+02  0.7816164E-02  0.1312668E+00
        -11   -1    0    0    0    0  0.00000000000E+00  0.00000000000E+00  0.45593999997E+02  0.45594000000E+02  0.51100000000E-03 0.  1.
         11   -1    0    0    0    0 -0.00000000000E+00 -0.00000000000E+00 -0.45593999997E+02  0.45594000000E+02  0.51100000000E-03 0. -1.
    9900012    2    1    2    0    0  0.25669605454E+02 -0.34976735559E+02 -0.11503391382E+01  0.47787263202E+02  0.19999964243E+02 0.  0.
         12    1    1    2    0    0 -0.25669605454E+02  0.34976735559E+02  0.11503391382E+01  0.43400736798E+02  0.00000000000E+00 0. -1.
         11    1    3    3    0    0 -0.78250778811E+00 -0.11714279840E+02  0.15913331661E+01  0.11847742912E+02  0.51100000000E-03 0. -1.
        -11    1    3    3    0    0  0.10925583806E+02 -0.12294952700E+02  0.13206354844E+01  0.16500858212E+02  0.51100000000E-03 0.  1.
        -12    1    3    3    0    0  0.15526529436E+02 -0.10967503018E+02 -0.40623077887E+01  0.19438662077E+02  0.00000000000E+00 0.  1.
</event>
<event>
 7    1  0.2318319E-009  0.4778727E+02  0.7816164E-02  0.1312668E+00
        -11   -1    0    0    0    0  0.00000000000E+00  0.00000000000E+00  0.45593999997E+02  0.45594000000E+02  0.51100000000E-03 0.  1.
         11   -1    0    0    0    0 -0.00000000000E+00 -0.00000000000E+00 -0.45593999997E+02  0.45594000000E+02  0.51100000000E-03 0. -1.
    9900012    2    1    2    0    0 -0.20814945149E+02  0.38041822010E+02  0.17835340239E+01  0.47787272390E+02  0.20000006136E+02 0.  0.
         12    1    1    2    0    0  0.20814945149E+02 -0.38041822010E+02 -0.17835340239E+01  0.43400727610E+02  0.00000000000E+00 0. -1.
         11    1    3    3    0    0 -0.31777716350E+01  0.20866324611E+01  0.39190031210E+01  0.54599316218E+01  0.51100000000E-03 0. -1.
        -11    1    3    3    0    0 -0.84847994513E+01  0.51239837054E+01 -0.22589511148E+01  0.10166114850E+02  0.51100000000E-03 0.  1.
        -12    1    3    3    0    0 -0.91523740631E+01  0.30831205844E+02  0.12348201776E+00  0.32161225919E+02  0.00000000000E+00 0.  1.
</event>
<event>
 7    1  0.2318319E-009  0.4778727E+02  0.7816164E-02  0.1312668E+00
        -11   -1    0    0    0    0  0.00000000000E+00  0.00000000000E+00  0.45593999997E+02  0.45594000000E+02  0.51100000000E-03 0.  1.
         11   -1    0    0    0    0 -0.00000000000E+00 -0.00000000000E+00 -0.45593999997E+02  0.45594000000E+02  0.51100000000E-03 0. -1.
    9900012    2    1    2    0    0 -0.38256535353E+02  0.26767472118E+01  0.20319835016E+02  0.47787272265E+02  0.20000005564E+02 0.  0.
         12    1    1    2    0    0  0.38256535353E+02 -0.26767472118E+01 -0.20319835016E+02  0.43400727735E+02  0.00000000000E+00 0. -1.
         11    1    3    3    0    0  0.93216245527E+00 -0.97325468094E+00  0.17827934146E+00  0.13593878408E+01  0.51100000000E-03 0. -1.
        -11    1    3    3    0    0 -0.10056081014E+02 -0.46653666200E+01  0.85111651487E+01  0.13976063234E+02  0.51100000000E-03 0.  1.
         12    1    3    3    0    0 -0.29132616794E+02  0.83153685128E+01  0.11630390526E+02  0.32451821190E+02  0.00000000000E+00 0. -1.
</event>
<event>
 7    1  0.2318319E-009  0.4778727E+02  0.7816164E-02  0.1312668E+00
        -11   -1    0    0    0    0  0.00000000000E+00  0.00000000000E+00  0.45593999997E+02  0.45594000000E+02  0.51100000000E-03 0.  1.
         11   -1    0    0    0    0 -0.00000000000E+00 -0.00000000000E+00 -0.45593999997E+02  0.45594000000E+02  0.51100000000E-03 0. -1.
    9900012    2    1    2    0    0  0.26638554734E+01 -0.17606418962E+02  0.39579553026E+02  0.47787272675E+02  0.20000007433E+02 0.  0.
         12    1    1    2    0    0 -0.26638554734E+01  0.17606418962E+02 -0.39579553026E+02  0.43400727325E+02  0.00000000000E+00 0. -1.
         11    1    3    3    0    0 -0.34012086567E-02 -0.18123388824E+02  0.21066849448E+02  0.27789735155E+02  0.51100000000E-03 0. -1.
        -11    1    3    3    0    0  0.34876414101E+01 -0.17407982665E+01  0.53612792445E+01  0.66285244669E+01  0.51100000000E-03 0.  1.
         12    1    3    3    0    0 -0.82038472807E+00  0.22577681282E+01  0.13151424333E+02  0.13369013053E+02  0.00000000000E+00 0. -1.
</event>
<event>
 7    1  0.2318319E-009  0.4778725E+02  0.7816164E-02  0.1312668E+00
        -11   -1    0    0    0    0  0.00000000000E+00  0.00000000000E+00  0.45593999997E+02  0.45594000000E+02  0.51100000000E-03 0.  1.
         11   -1    0    0    0    0 -0.00000000000E+00 -0.00000000000E+00 -0.45593999997E+02  0.45594000000E+02  0.51100000000E-03 0. -1.
    9900012    2    1    2    0    0 -0.75068976020E+01 -0.38740905081E+01  0.42570680949E+02  0.47787251558E+02  0.19999911154E+02 0.  0.
         12    1    1    2    0    0  0.75068976020E+01  0.38740905081E+01 -0.42570680949E+02  0.43400748442E+02  0.00000000000E+00 0. -1.
         11    1    3    3    0    0 -0.66105029852E+01 -0.14419131440E+01  0.56181348842E+01  0.87943904320E+01  0.51100000000E-03 0. -1.
        -11    1    3    3    0    0 -0.56329603694E+01  0.18752015843E+01  0.20362784299E+02  0.21210601315E+02  0.51100000000E-03 0.  1.
         12    1    3    3    0    0  0.47365657526E+01 -0.43073789484E+01  0.16589761766E+02  0.17782259811E+02  0.00000000000E+00 0. -1.
</event>
<event>
 7    1  0.2318319E-009  0.4778727E+02  0.7816164E-02  0.1312668E+00
        -11   -1    0    0    0    0  0.00000000000E+00  0.00000000000E+00  0.45593999997E+02  0.45594000000E+02  0.51100000000E-03 0.  1.
         11   -1    0    0    0    0 -0.00000000000E+00 -0.00000000000E+00 -0.45593999997E+02  0.45594000000E+02  0.51100000000E-03 0. -1.
    9900012    2    1    2    0    0  0.40959187181E+02  0.11790267666E+02  0.81828012738E+01  0.47787266563E+02  0.19999979567E+02 0.  0.
         12    1    1    2    0    0 -0.40959187181E+02 -0.11790267666E+02 -0.81828012738E+01  0.43400733437E+02  0.00000000000E+00 0. -1.
         11    1    3    3    0    0 -0.63710171476E+00  0.16112040445E+00  0.16500642746E+01  0.17761111314E+01  0.51100000000E-03 0. -1.
        -11    1    3    3    0    0  0.87101788367E+01  0.32715864962E+00 -0.41214714145E+01  0.96416168266E+01  0.51100000000E-03 0.  1.
        -12    1    3    3    0    0  0.32886110059E+02  0.11301988612E+02  0.10654208414E+02  0.36369538605E+02  0.00000000000E+00 0.  1.
</event>
<event>
 7    1  0.2318319E-009  0.4778727E+02  0.7816164E-02  0.1312668E+00
        -11   -1    0    0    0    0  0.00000000000E+00  0.00000000000E+00  0.45593999997E+02  0.45594000000E+02  0.51100000000E-03 0.  1.
         11   -1    0    0    0    0 -0.00000000000E+00 -0.00000000000E+00 -0.45593999997E+02  0.45594000000E+02  0.51100000000E-03 0. -1.
    9900012    2    1    2    0    0 -0.17126176096E+01 -0.39741800727E+02  0.17357410670E+02  0.47787268563E+02  0.19999988686E+02 0.  0.
         12    1    1    2    0    0  0.17126176096E+01  0.39741800727E+02 -0.17357410670E+02  0.43400731437E+02  0.00000000000E+00 0. -1.
         11    1    3    3    0    0  0.60317468440E+00  0.18656414170E+01  0.43232105633E+00  0.20078195521E+01  0.51100000000E-03 0. -1.
        -11    1    3    3    0    0 -0.15199457364E+01 -0.37236014929E+01 -0.53640160185E+00  0.40574832174E+01  0.51100000000E-03 0.  1.
        -12    1    3    3    0    0 -0.79584655759E+00 -0.37883840651E+02  0.17461491215E+02  0.41721965794E+02  0.00000000000E+00 0.  1.
</event>
<event>
 7    1  0.2318319E-009  0.4778727E+02  0.7816164E-02  0.1312668E+00
        -11   -1    0    0    0    0  0.00000000000E+00  0.00000000000E+00  0.45593999997E+02  0.45594000000E+02  0.51100000000E-03 0. -1.
         11   -1    0    0    0    0 -0.00000000000E+00 -0.00000000000E+00 -0.45593999997E+02  0.45594000000E+02  0.51100000000E-03 0.  1.
    9900012    2    1    2    0    0  0.13571663843E+02  0.36126819904E+02 -0.19856638714E+02  0.47787271010E+02  0.19999999843E+02 0.  0.
         12    1    1    2    0    0 -0.13571663843E+02 -0.36126819904E+02  0.19856638714E+02  0.43400728990E+02  0.00000000000E+00 0. -1.
         11    1    3    3    0    0 -0.49184491429E+01  0.11172818551E+02 -0.44230956261E+01  0.12984097640E+02  0.51100000000E-03 0. -1.
        -11    1    3    3    0    0  0.39350534745E+01  0.71799912820E+01 -0.33555603684E+01  0.88485426090E+01  0.51100000000E-03 0.  1.
         12    1    3    3    0    0  0.14555059511E+02  0.17774010072E+02 -0.12077982719E+02  0.25954630761E+02  0.00000000000E+00 0. -1.
</event>
<event>
 7    1  0.2318319E-009  0.4778727E+02  0.7816164E-02  0.1312668E+00
        -11   -1    0    0    0    0  0.00000000000E+00  0.00000000000E+00  0.45593999997E+02  0.45594000000E+02  0.51100000000E-03 0.  1.
         11   -1    0    0    0    0 -0.00000000000E+00 -0.00000000000E+00 -0.45593999997E+02  0.45594000000E+02  0.51100000000E-03 0. -1.
    9900012    2    1    2    0    0  0.29818500944E+02  0.26895212161E+02  0.16465951773E+02  0.47787274158E+02  0.20000014198E+02 0.  0.
         12    1    1    2    0    0 -0.29818500944E+02 -0.26895212161E+02 -0.16465951773E+02  0.43400725842E+02  0.00000000000E+00 0. -1.
         11    1    3    3    0    0 -0.90918174822E+00  0.56246806335E+01  0.21934116111E+01  0.61053008474E+01  0.51100000000E-03 0. -1.
        -11    1    3    3    0    0  0.75202856252E+01  0.26746170756E+00  0.50085532223E+01  0.90394600110E+01  0.51100000000E-03 0.  1.
         12    1    3    3    0    0  0.23207397067E+02  0.21003069820E+02  0.92639869400E+01  0.32642513300E+02  0.00000000000E+00 0. -1.
</event>
<event>
 7    1  0.2318319E-009  0.4778727E+02  0.7816164E-02  0.1312668E+00
        -11   -1    0    0    0    0  0.00000000000E+00  0.00000000000E+00  0.45593999997E+02  0.45594000000E+02  0.51100000000E-03 0. -1.
         11   -1    0    0    0    0 -0.00000000000E+00 -0.00000000000E+00 -0.45593999997E+02  0.45594000000E+02  0.51100000000E-03 0.  1.
    9900012    2    1    2    0    0 -0.88689893537E+01  0.26828272070E+02 -0.32942499586E+02  0.47787269207E+02  0.19999991620E+02 0.  0.
         12    1    1    2    0    0  0.88689893537E+01 -0.26828272070E+02  0.32942499586E+02  0.43400730793E+02  0.00000000000E+00 0. -1.
         11    1    3    3    0    0 -0.53770106383E+01  0.41015927459E+00 -0.11116475628E+02  0.12355424100E+02  0.51100000000E-03 0. -1.
        -11    1    3    3    0    0 -0.29255575069E+01  0.22026918405E+01 -0.34107615842E+01  0.50044013544E+01  0.51100000000E-03 0.  1.
        -12    1    3    3    0    0 -0.56642120850E+00  0.24215420955E+02 -0.18415262374E+02  0.30427443753E+02  0.00000000000E+00 0.  1.
</event>
<event>
 7    1  0.2318319E-009  0.4778726E+02  0.7816164E-02  0.1312668E+00
        -11   -1    0    0    0    0  0.00000000000E+00  0.00000000000E+00  0.45593999997E+02  0.45594000000E+02  0.51100000000E-03 0.  1.
         11   -1    0    0    0    0 -0.00000000000E+00 -0.00000000000E+00 -0.45593999997E+02  0.45594000000E+02  0.51100000000E-03 0. -1.
    9900012    2    1    2    0    0 -0.15243364798E+01  0.11326971731E+02  0.41868843679E+02  0.47787263125E+02  0.19999963891E+02 0.  0.
         12    1    1    2    0    0  0.15243364798E+01 -0.11326971731E+02 -0.41868843679E+02  0.43400736875E+02  0.00000000000E+00 0. -1.
         11    1    3    3    0    0  0.10732927772E+01  0.41806219609E+01  0.24469998260E+02  0.24847743810E+02  0.51100000000E-03 0. -1.
        -11    1    3    3    0    0 -0.53477335262E+01 -0.32548759888E+00  0.12478344126E+02  0.13579884699E+02  0.51100000000E-03 0.  1.
        -12    1    3    3    0    0  0.27501042691E+01  0.74718373689E+01  0.49205012927E+01  0.93596346152E+01  0.00000000000E+00 0.  1.
</event>
<event>
 7    1  0.2318319E-009  0.4778726E+02  0.7816164E-02  0.1312668E+00
        -11   -1    0    0    0    0  0.00000000000E+00  0.00000000000E+00  0.45593999997E+02  0.45594000000E+02  0.51100000000E-03 0. -1.
         11   -1    0    0    0    0 -0.00000000000E+00 -0.00000000000E+00 -0.45593999997E+02  0.45594000000E+02  0.51100000000E-03 0.  1.
    9900012    2    1    2    0    0  0.27728574291E+02  0.30910652965E+02  0.12620692354E+02  0.47787260669E+02  0.19999952696E+02 0.  0.
         12    1    1    2    0    0 -0.27728574291E+02 -0.30910652965E+02 -0.12620692354E+02  0.43400739331E+02  0.00000000000E+00 0. -1.
         11    1    3    3    0    0  0.10856789602E+02  0.62185421565E+01  0.79523945530E+01  0.14825003420E+02  0.51100000000E-03 0. -1.
        -11    1    3    3    0    0  0.75813182051E+01  0.14100044752E+02  0.88151201027E+01  0.18275502467E+02  0.51100000000E-03 0.  1.
        -12    1    3    3    0    0  0.92904664837E+01  0.10592066056E+02 -0.41468223015E+01  0.14686754782E+02  0.00000000000E+00 0.  1.
</event>
<event>
 7    1  0.2318319E-009  0.4778727E+02  0.7816164E-02  0.1312668E+00
        -11   -1    0    0    0    0  0.00000000000E+00  0.00000000000E+00  0.45593999997E+02  0.45594000000E+02  0.51100000000E-03 0.  1.
         11   -1    0    0    0    0 -0.00000000000E+00 -0.00000000000E+00 -0.45593999997E+02  0.45594000000E+02  0.51100000000E-03 0. -1.
    9900012    2    1    2    0    0 -0.33284672609E+02  0.19041943158E+02  0.20326297456E+02  0.47787269612E+02  0.19999993471E+02 0.  0.
         12    1    1    2    0    0  0.33284672609E+02 -0.19041943158E+02 -0.20326297456E+02  0.43400730388E+02  0.00000000000E+00 0. -1.
         11    1    3    3    0    0  0.84836291666E+00 -0.17279930887E+01  0.35921855728E+00  0.19582435972E+01  0.51100000000E-03 0. -1.
        -11    1    3    3    0    0 -0.11891612868E+02  0.90974347944E+01  0.23670930770E+01  0.15158393924E+02  0.51100000000E-03 0.  1.
        -12    1    3    3    0    0 -0.22241422657E+02  0.11672501452E+02  0.17599985821E+02  0.30670632092E+02  0.00000000000E+00 0.  1.
</event>
<event>
 7    1  0.2318319E-009  0.4778727E+02  0.7816164E-02  0.1312668E+00
        -11   -1    0    0    0    0  0.00000000000E+00  0.00000000000E+00  0.45593999997E+02  0.45594000000E+02  0.51100000000E-03 0.  1.
         11   -1    0    0    0    0 -0.00000000000E+00 -0.00000000000E+00 -0.45593999997E+02  0.45594000000E+02  0.51100000000E-03 0. -1.
    9900012    2    1    2    0    0 -0.86585934220E+01 -0.42298967012E+01  0.42317373297E+02  0.47787270180E+02  0.19999996059E+02 0.  0.
         12    1    1    2    0    0  0.86585934220E+01  0.42298967012E+01 -0.42317373297E+02  0.43400729820E+02  0.00000000000E+00 0. -1.
         11    1    3    3    0    0  0.19665263203E+01  0.21288871891E+01  0.13593072692E+02  0.13898597480E+02  0.51100000000E-03 0. -1.
        -11    1    3    3    0    0  0.10407197300E+01 -0.42659887871E+01  0.23652190506E+01  0.49875865212E+01  0.51100000000E-03 0.  1.
        -12    1    3    3    0    0 -0.11665839472E+02 -0.20927951032E+01  0.26359081554E+02  0.28901086179E+02  0.00000000000E+00 0.  1.
</event>
<event>
 7    1  0.2318319E-009  0.4778728E+02  0.7816164E-02  0.1312668E+00
        -11   -1    0    0    0    0  0.00000000000E+00  0.00000000000E+00  0.45593999997E+02  0.45594000000E+02  0.51100000000E-03 0.  1.
         11   -1    0    0    0    0 -0.00000000000E+00 -0.00000000000E+00 -0.45593999997E+02  0.45594000000E+02  0.51100000000E-03 0. -1.
    9900012    2    1    2    0    0 -0.31755978203E+02 -0.23898049262E+02  0.17437426242E+02  0.47787277148E+02  0.20000027827E+02 0.  0.
         12    1    1    2    0    0  0.31755978203E+02  0.23898049262E+02 -0.17437426242E+02  0.43400722852E+02  0.00000000000E+00 0. -1.
         11    1    3    3    0    0 -0.11870476531E+02 -0.99405586552E+01  0.69166021943E+01  0.16957662151E+02  0.51100000000E-03 0. -1.
        -11    1    3    3    0    0 -0.16483067132E+02 -0.12912577446E+02  0.14516528224E+02  0.25478535090E+02  0.51100000000E-03 0.  1.
         12    1    3    3    0    0 -0.34024345399E+01 -0.10449131603E+01 -0.39957041756E+01  0.53510799069E+01  0.00000000000E+00 0. -1.
</event>
<event>
 7    1  0.2318319E-009  0.4778727E+02  0.7816164E-02  0.1312668E+00
        -11   -1    0    0    0    0  0.00000000000E+00  0.00000000000E+00  0.45593999997E+02  0.45594000000E+02  0.51100000000E-03 0. -1.
         11   -1    0    0    0    0 -0.00000000000E+00 -0.00000000000E+00 -0.45593999997E+02  0.45594000000E+02  0.51100000000E-03 0.  1.
    9900012    2    1    2    0    0 -0.28885891536E+02 -0.52524012302E+00 -0.32387536044E+02  0.47787273070E+02  0.20000009238E+02 0.  0.
         12    1    1    2    0    0  0.28885891536E+02  0.52524012302E+00  0.32387536044E+02  0.43400726930E+02  0.00000000000E+00 0. -1.
         11    1    3    3    0    0 -0.78402744670E+01  0.34803700836E+01 -0.15840123775E+02  0.18013672616E+02  0.51100000000E-03 0. -1.
        -11    1    3    3    0    0 -0.20091094913E+01  0.20862679984E+01 -0.70955547607E+01  0.76639371561E+01  0.51100000000E-03 0.  1.
         12    1    3    3    0    0 -0.19036507577E+02 -0.60918782051E+01 -0.94518575080E+01  0.22109663298E+02  0.00000000000E+00 0. -1.
</event>
<event>
 7    1  0.2318319E-009  0.4778727E+02  0.7816164E-02  0.1312668E+00
        -11   -1    0    0    0    0  0.00000000000E+00  0.00000000000E+00  0.45593999997E+02  0.45594000000E+02  0.51100000000E-03 0.  1.
         11   -1    0    0    0    0 -0.00000000000E+00 -0.00000000000E+00 -0.45593999997E+02  0.45594000000E+02  0.51100000000E-03 0. -1.
    9900012    2    1    2    0    0  0.57380827605E+01  0.42932958470E+02  0.27311257212E+01  0.47787267697E+02  0.19999984736E+02 0.  0.
         12    1    1    2    0    0 -0.57380827605E+01 -0.42932958470E+02 -0.27311257212E+01  0.43400732303E+02  0.00000000000E+00 0. -1.
         11    1    3    3    0    0 -0.32379416987E+01  0.20953077194E+01 -0.31691963522E+01  0.49918319947E+01  0.51100000000E-03 0. -1.
        -11    1    3    3    0    0  0.58975916796E+00  0.16052916223E+02  0.45769034778E+00  0.16070264959E+02  0.51100000000E-03 0.  1.
        -12    1    3    3    0    0  0.83862652912E+01  0.24784734528E+02  0.54426317256E+01  0.26725170743E+02  0.00000000000E+00 0.  1.
</event>
<event>
 7    1  0.2318319E-009  0.4778726E+02  0.7816164E-02  0.1312668E+00
        -11   -1    0    0    0    0  0.00000000000E+00  0.00000000000E+00  0.45593999997E+02  0.45594000000E+02  0.51100000000E-03 0.  1.
         11   -1    0    0    0    0 -0.00000000000E+00 -0.00000000000E+00 -0.45593999997E+02  0.45594000000E+02  0.51100000000E-03 0. -1.
    9900012    2    1    2    0    0  0.27609010878E+02  0.57821652132E+01  0.32983828062E+02  0.47787264639E+02  0.19999970796E+02 0.  0.
         12    1    1    2    0    0 -0.27609010878E+02 -0.57821652132E+01 -0.32983828062E+02  0.43400735361E+02  0.00000000000E+00 0. -1.
         11    1    3    3    0    0 -0.74913244320E+00 -0.80090443469E+00  0.46345439646E+01  0.47625251025E+01  0.51100000000E-03 0. -1.
        -11    1    3    3    0    0 -0.53084769030E+00  0.25610289439E+01  0.50748933999E+01  0.57092216460E+01  0.51100000000E-03 0.  1.
         12    1    3    3    0    0  0.28888991012E+02  0.40220407040E+01  0.23274390698E+02  0.37315517891E+02  0.00000000000E+00 0. -1.
</event>
<event>
 7    1  0.2318319E-009  0.4778727E+02  0.7816164E-02  0.1312668E+00
        -11   -1    0    0    0    0  0.00000000000E+00  0.00000000000E+00  0.45593999997E+02  0.45594000000E+02  0.51100000000E-03 0. -1.
         11   -1    0    0    0    0 -0.00000000000E+00 -0.00000000000E+00 -0.45593999997E+02  0.45594000000E+02  0.51100000000E-03 0.  1.
    9900012    2    1    2    0    0  0.14866900083E+02  0.35604956786E+02  0.19871727337E+02  0.47787271744E+02  0.20000003188E+02 0.  0.
         12    1    1    2    0    0 -0.14866900083E+02 -0.35604956786E+02 -0.19871727337E+02  0.43400728256E+02  0.00000000000E+00 0. -1.
         11    1    3    3    0    0  0.10874682728E+01  0.21778102713E+01 -0.27691431410E+00  0.24499237989E+01  0.51100000000E-03 0. -1.
        -11    1    3    3    0    0  0.16202507641E+02  0.31066486972E+02  0.12898060226E+02  0.37336414189E+02  0.51100000000E-03 0.  1.
         12    1    3    3    0    0 -0.24230758316E+01  0.23606595432E+01  0.72505814248E+01  0.80009337557E+01  0.00000000000E+00 0. -1.
</event>
<event>
 7    1  0.2318319E-009  0.4778727E+02  0.7816164E-02  0.1312668E+00
        -11   -1    0    0    0    0  0.00000000000E+00  0.00000000000E+00  0.45593999997E+02  0.45594000000E+02  0.51100000000E-03 0.  1.
         11   -1    0    0    0    0 -0.00000000000E+00 -0.00000000000E+00 -0.45593999997E+02  0.45594000000E+02  0.51100000000E-03 0. -1.
    9900012    2    1    2    0    0  0.12348990083E+01  0.50459825633E+01  0.43088705886E+02  0.47787268548E+02  0.19999988618E+02 0.  0.
         12    1    1    2    0    0 -0.12348990083E+01 -0.50459825633E+01 -0.43088705886E+02  0.43400731452E+02  0.00000000000E+00 0. -1.
         11    1    3    3    0    0  0.51414057613E+01 -0.23454929664E+01  0.44282770828E+01  0.71794866558E+01  0.51100000000E-03 0. -1.
        -11    1    3    3    0    0 -0.24846616515E+01 -0.18005261599E+01  0.11319086721E+02  0.11727623904E+02  0.51100000000E-03 0.  1.
        -12    1    3    3    0    0 -0.14218451015E+01  0.91920016896E+01  0.27341342083E+02  0.28880157988E+02  0.00000000000E+00 0.  1.
</event>
<event>
 7    1  0.2318319E-009  0.4778727E+02  0.7816164E-02  0.1312668E+00
        -11   -1    0    0    0    0  0.00000000000E+00  0.00000000000E+00  0.45593999997E+02  0.45594000000E+02  0.51100000000E-03 0.  1.
         11   -1    0    0    0    0 -0.00000000000E+00 -0.00000000000E+00 -0.45593999997E+02  0.45594000000E+02  0.51100000000E-03 0. -1.
    9900012    2    1    2    0    0 -0.10322147845E+02  0.41879377367E+02  0.48160366882E+01  0.47787271962E+02  0.20000004185E+02 0.  0.
         12    1    1    2    0    0  0.10322147845E+02 -0.41879377367E+02 -0.48160366882E+01  0.43400728038E+02  0.00000000000E+00 0. -1.
         11    1    3    3    0    0 -0.21346258664E+00 -0.87807154314E+00 -0.68858187854E+00  0.11360991045E+01  0.51100000000E-03 0. -1.
        -11    1    3    3    0    0  0.24513792173E+01  0.20196732312E+02  0.43453618542E+01  0.20803832004E+02  0.51100000000E-03 0.  1.
        -12    1    3    3    0    0 -0.12560064476E+02  0.22560716599E+02  0.11592567125E+01  0.25847340854E+02  0.00000000000E+00 0.  1.
</event>
<event>
 7    1  0.2318319E-009  0.4778727E+02  0.7816164E-02  0.1312668E+00
        -11   -1    0    0    0    0  0.00000000000E+00  0.00000000000E+00  0.45593999997E+02  0.45594000000E+02  0.51100000000E-03 0.  1.
         11   -1    0    0    0    0 -0.00000000000E+00 -0.00000000000E+00 -0.45593999997E+02  0.45594000000E+02  0.51100000000E-03 0. -1.
    9900012    2    1    2    0    0  0.18823373704E+02 -0.24892182680E+02  0.30160952688E+02  0.47787271628E+02  0.20000002661E+02 0.  0.
         12    1    1    2    0    0 -0.18823373704E+02  0.24892182680E+02 -0.30160952688E+02  0.43400728372E+02  0.00000000000E+00 0. -1.
         11    1    3    3    0    0  0.73777617687E+01 -0.13809675486E+01  0.31916486397E+01  0.81562896826E+01  0.51100000000E-03 0. -1.
        -11    1    3    3    0    0  0.13289606829E+02 -0.14956564560E+02  0.16130066368E+02  0.25700029463E+02  0.51100000000E-03 0.  1.
         12    1    3    3    0    0 -0.18439948942E+01 -0.85546505719E+01  0.10839237680E+02  0.13930952482E+02  0.00000000000E+00 0. -1.
</event>
<event>
 7    1  0.2318319E-009  0.4778727E+02  0.7816164E-02  0.1312668E+00
        -11   -1    0    0    0    0  0.00000000000E+00  0.00000000000E+00  0.45593999997E+02  0.45594000000E+02  0.51100000000E-03 0.  1.
         11   -1    0    0    0    0 -0.00000000000E+00 -0.00000000000E+00 -0.45593999997E+02  0.45594000000E+02  0.51100000000E-03 0. -1.
    9900012    2    1    2    0    0 -0.18426045625E+02  0.11163589532E+02  0.37675963729E+02  0.47787272684E+02  0.20000007476E+02 0.  0.
         12    1    1    2    0    0  0.18426045625E+02 -0.11163589532E+02 -0.37675963729E+02  0.43400727316E+02  0.00000000000E+00 0. -1.
         11    1    3    3    0    0 -0.12166971669E+02  0.11278233822E+02  0.18957543475E+02  0.25191709204E+02  0.51100000000E-03 0. -1.
        -11    1    3    3    0    0  0.16534157145E+01  0.30565496366E+01  0.25250909407E+01  0.42956214598E+01  0.51100000000E-03 0.  1.
         12    1    3    3    0    0 -0.79124896705E+01 -0.31711939261E+01  0.16193329313E+02  0.18299942021E+02  0.00000000000E+00 0. -1.
</event>
<event>
 7    1  0.2318319E-009  0.4778727E+02  0.7816164E-02  0.1312668E+00
        -11   -1    0    0    0    0  0.00000000000E+00  0.00000000000E+00  0.45593999997E+02  0.45594000000E+02  0.51100000000E-03 0. -1.
         11   -1    0    0    0    0 -0.00000000000E+00 -0.00000000000E+00 -0.45593999997E+02  0.45594000000E+02  0.51100000000E-03 0.  1.
    9900012    2    1    2    0    0  0.32111703264E+02 -0.27181217850E+02 -0.10660355305E+02  0.47787271140E+02  0.20000000436E+02 0.  0.
         12    1    1    2    0    0 -0.32111703264E+02  0.27181217850E+02  0.10660355305E+02  0.43400728860E+02  0.00000000000E+00 0. -1.
         11    1    3    3    0    0  0.89671080846E+01 -0.19253465492E+02 -0.47146134723E+01  0.21756206960E+02  0.51100000000E-03 0.  1.
        -11    1    3    3    0    0  0.19518138838E+02 -0.90472924660E+01 -0.45626145470E+01  0.21991559663E+02  0.51100000000E-03 0. -1.
        -12    1    3    3    0    0  0.36264563416E+01  0.11195401076E+01 -0.13831272861E+01  0.40395045165E+01  0.00000000000E+00 0.  1.
</event>
<event>
 7    1  0.2318319E-009  0.4778727E+02  0.7816164E-02  0.1312668E+00
        -11   -1    0    0    0    0  0.00000000000E+00  0.00000000000E+00  0.45593999997E+02  0.45594000000E+02  0.51100000000E-03 0.  1.
         11   -1    0    0    0    0 -0.00000000000E+00 -0.00000000000E+00 -0.45593999997E+02  0.45594000000E+02  0.51100000000E-03 0. -1.
    9900012    2    1    2    0    0 -0.12486278934E+02  0.37160092851E+01  0.41399363104E+02  0.47787272448E+02  0.20000006397E+02 0.  0.
         12    1    1    2    0    0  0.12486278934E+02 -0.37160092851E+01 -0.41399363104E+02  0.43400727552E+02  0.00000000000E+00 0. -1.
         11    1    3    3    0    0 -0.95438765461E+01 -0.28154121222E+01  0.27135010080E+02  0.28901918574E+02  0.51100000000E-03 0. -1.
        -11    1    3    3    0    0 -0.45991571638E+01  0.41098873652E+01  0.14678949713E+02  0.15922153928E+02  0.51100000000E-03 0.  1.
         12    1    3    3    0    0  0.16567547755E+01  0.24215340422E+01 -0.41459668857E+00  0.29631999456E+01  0.00000000000E+00 0. -1.
</event>
<event>
 7    1  0.2318319E-009  0.4778727E+02  0.7816164E-02  0.1312668E+00
        -11   -1    0    0    0    0  0.00000000000E+00  0.00000000000E+00  0.45593999997E+02  0.45594000000E+02  0.51100000000E-03 0. -1.
         11   -1    0    0    0    0 -0.00000000000E+00 -0.00000000000E+00 -0.45593999997E+02  0.45594000000E+02  0.51100000000E-03 0.  1.
    9900012    2    1    2    0    0  0.14821959542E+02 -0.78630291546E+01 -0.40026311244E+02  0.47787270698E+02  0.19999998419E+02 0.  0.
         12    1    1    2    0    0 -0.14821959542E+02  0.78630291546E+01  0.40026311244E+02  0.43400729302E+02  0.00000000000E+00 0. -1.
         11    1    3    3    0    0  0.86583027222E+01 -0.30402431434E+01 -0.19886741228E+02  0.21901866617E+02  0.51100000000E-03 0. -1.
        -11    1    3    3    0    0 -0.31145717792E+00  0.30594619571E+01 -0.13186325164E+02  0.13540180376E+02  0.51100000000E-03 0.  1.
         12    1    3    3    0    0  0.64751139977E+01 -0.78822479683E+01 -0.69532448531E+01  0.12345223704E+02  0.00000000000E+00 0. -1.
</event>
<event>
 7    1  0.2318319E-009  0.4778726E+02  0.7816164E-02  0.1312668E+00
        -11   -1    0    0    0    0  0.00000000000E+00  0.00000000000E+00  0.45593999997E+02  0.45594000000E+02  0.51100000000E-03 0. -1.
         11   -1    0    0    0    0 -0.00000000000E+00 -0.00000000000E+00 -0.45593999997E+02  0.45594000000E+02  0.51100000000E-03 0.  1.
    9900012    2    1    2    0    0 -0.16314045682E+02 -0.33381660009E+02 -0.22430803832E+02  0.47787259545E+02  0.19999947569E+02 0.  0.
         12    1    1    2    0    0  0.16314045682E+02  0.33381660009E+02  0.22430803832E+02  0.43400740455E+02  0.00000000000E+00 0. -1.
         11    1    3    3    0    0 -0.25454147495E+01 -0.14214081171E+02 -0.95445814959E+00  0.14471704474E+02  0.51100000000E-03 0. -1.
        -11    1    3    3    0    0 -0.11966520537E+02 -0.10169710256E+02 -0.99847255442E+01  0.18609550368E+02  0.51100000000E-03 0.  1.
        -12    1    3    3    0    0 -0.18021103957E+01 -0.89978685830E+01 -0.11491620138E+02  0.14706004703E+02  0.00000000000E+00 0.  1.
</event>
<event>
 7    1  0.2318319E-009  0.4778727E+02  0.7816164E-02  0.1312668E+00
        -11   -1    0    0    0    0  0.00000000000E+00  0.00000000000E+00  0.45593999997E+02  0.45594000000E+02  0.51100000000E-03 0.  1.
         11   -1    0    0    0    0 -0.00000000000E+00 -0.00000000000E+00 -0.45593999997E+02  0.45594000000E+02  0.51100000000E-03 0. -1.
    9900012    2    1    2    0    0 -0.38088569723E+02 -0.15331201071E+02  0.14065507351E+02  0.47787269974E+02  0.19999995117E+02 0.  0.
         12    1    1    2    0    0  0.38088569723E+02  0.15331201071E+02 -0.14065507351E+02  0.43400730026E+02  0.00000000000E+00 0. -1.
         11    1    3    3    0    0  0.59778195484E+00 -0.32389770050E+00 -0.21798564310E+01  0.22834244693E+01  0.51100000000E-03 0. -1.
        -11    1    3    3    0    0 -0.14017359843E+02 -0.44001275569E+01  0.12425483728E+01  0.14744199748E+02  0.51100000000E-03 0.  1.
        -12    1    3    3    0    0 -0.24668991835E+02 -0.10607175814E+02  0.15002815409E+02  0.30759645757E+02  0.00000000000E+00 0.  1.
</event>
<event>
 7    1  0.2318319E-009  0.4778727E+02  0.7816164E-02  0.1312668E+00
        -11   -1    0    0    0    0  0.00000000000E+00  0.00000000000E+00  0.45593999997E+02  0.45594000000E+02  0.51100000000E-03 0.  1.
         11   -1    0    0    0    0 -0.00000000000E+00 -0.00000000000E+00 -0.45593999997E+02  0.45594000000E+02  0.51100000000E-03 0. -1.
    9900012    2    1    2    0    0  0.30092425327E+02 -0.11692423571E+01  0.31252237971E+02  0.47787267656E+02  0.19999984552E+02 0.  0.
         12    1    1    2    0    0 -0.30092425327E+02  0.11692423571E+01 -0.31252237971E+02  0.43400732344E+02  0.00000000000E+00 0. -1.
         11    1    3    3    0    0  0.14112745303E+02  0.50775110878E+01  0.12928639696E+02  0.19801525787E+02  0.51100000000E-03 0. -1.
        -11    1    3    3    0    0  0.17453056325E+01  0.14165852142E+01  0.90997742380E+01  0.93732970114E+01  0.51100000000E-03 0.  1.
         12    1    3    3    0    0  0.14234374391E+02 -0.76633386591E+01  0.92238240378E+01  0.18612444858E+02  0.00000000000E+00 0. -1.
</event>
<event>
 7    1  0.2318319E-009  0.4778721E+02  0.7816164E-02  0.1312668E+00
        -11   -1    0    0    0    0  0.00000000000E+00  0.00000000000E+00  0.45593999997E+02  0.45594000000E+02  0.51100000000E-03 0.  1.
         11   -1    0    0    0    0 -0.00000000000E+00 -0.00000000000E+00 -0.45593999997E+02  0.45594000000E+02  0.51100000000E-03 0. -1.
    9900012    2    1    2    0    0 -0.27073274107E+02 -0.97944738639E+01  0.32476682134E+02  0.47787207708E+02  0.19999711222E+02 0.  0.
         12    1    1    2    0    0  0.27073274107E+02  0.97944738639E+01 -0.32476682134E+02  0.43400792292E+02  0.00000000000E+00 0. -1.
         11    1    3    3    0    0 -0.49349379367E+01  0.34992459583E+01  0.10039511707E+02  0.11721353603E+02  0.51100000000E-03 0. -1.
        -11    1    3    3    0    0 -0.31420845405E+01  0.20009676804E+01  0.18967634259E+01  0.41802247156E+01  0.51100000000E-03 0.  1.
         12    1    3    3    0    0 -0.18996251630E+02 -0.15294687503E+02  0.20540407001E+02  0.31885629389E+02  0.00000000000E+00 0. -1.
</event>
<event>
 7    1  0.2318319E-009  0.4778727E+02  0.7816164E-02  0.1312668E+00
        -11   -1    0    0    0    0  0.00000000000E+00  0.00000000000E+00  0.45593999997E+02  0.45594000000E+02  0.51100000000E-03 0.  1.
         11   -1    0    0    0    0 -0.00000000000E+00 -0.00000000000E+00 -0.45593999997E+02  0.45594000000E+02  0.51100000000E-03 0. -1.
    9900012    2    1    2    0    0 -0.16042246998E+02  0.25638142589E+02  0.31128047415E+02  0.47787269821E+02  0.19999994423E+02 0.  0.
         12    1    1    2    0    0  0.16042246998E+02 -0.25638142589E+02 -0.31128047415E+02  0.43400730179E+02  0.00000000000E+00 0. -1.
         11    1    3    3    0    0 -0.49253774217E+00 -0.16325964115E+01  0.21769005774E+01  0.27652957989E+01  0.51100000000E-03 0. -1.
        -11    1    3    3    0    0 -0.15177637536E+01  0.12893473502E+01  0.93976297711E+01  0.96063244260E+01  0.51100000000E-03 0.  1.
         12    1    3    3    0    0 -0.14031945502E+02  0.25981391650E+02  0.19553517067E+02  0.35415649596E+02  0.00000000000E+00 0. -1.
</event>
<event>
 7    1  0.2318319E-009  0.4778727E+02  0.7816164E-02  0.1312668E+00
        -11   -1    0    0    0    0  0.00000000000E+00  0.00000000000E+00  0.45593999997E+02  0.45594000000E+02  0.51100000000E-03 0. -1.
         11   -1    0    0    0    0 -0.00000000000E+00 -0.00000000000E+00 -0.45593999997E+02  0.45594000000E+02  0.51100000000E-03 0.  1.
    9900012    2    1    2    0    0 -0.25584137283E+02  0.17394384391E+01 -0.35014991386E+02  0.47787270187E+02  0.19999996089E+02 0.  0.
         12    1    1    2    0    0  0.25584137283E+02 -0.17394384391E+01  0.35014991386E+02  0.43400729813E+02  0.00000000000E+00 0. -1.
         11    1    3    3    0    0 -0.16393547077E+01 -0.44541999740E+01 -0.66660219675E+01  0.81831064027E+01  0.51100000000E-03 0. -1.
        -11    1    3    3    0    0 -0.10150364962E+02 -0.17493956318E+01 -0.17614863513E+02  0.20405237337E+02  0.51100000000E-03 0.  1.
         12    1    3    3    0    0 -0.13794417613E+02  0.79430340449E+01 -0.10734105905E+02  0.19198926446E+02  0.00000000000E+00 0. -1.
</event>
<event>
 7    1  0.2318319E-009  0.4778733E+02  0.7816164E-02  0.1312668E+00
        -11   -1    0    0    0    0  0.00000000000E+00  0.00000000000E+00  0.45593999997E+02  0.45594000000E+02  0.51100000000E-03 0.  1.
         11   -1    0    0    0    0 -0.00000000000E+00 -0.00000000000E+00 -0.45593999997E+02  0.45594000000E+02  0.51100000000E-03 0. -1.
    9900012    2    1    2    0    0  0.58211198538E+01 -0.35766769556E+02  0.23884539935E+02  0.47787326172E+02  0.20000251348E+02 0.  0.
         12    1    1    2    0    0 -0.58211198538E+01  0.35766769556E+02 -0.23884539935E+02  0.43400673828E+02  0.00000000000E+00 0. -1.
         11    1    3    3    0    0 -0.39083123612E+01 -0.15541996971E+02  0.73308136544E+01  0.17622979444E+02  0.51100000000E-03 0. -1.
        -11    1    3    3    0    0  0.46345004410E+01 -0.19323525004E+02  0.14492236110E+02  0.24594757991E+02  0.51100000000E-03 0.  1.
         12    1    3    3    0    0  0.50949317740E+01 -0.90124758090E+00  0.20614901705E+01  0.55695887377E+01  0.00000000000E+00 0. -1.
</event>
<event>
 7    1  0.2318319E-009  0.4778727E+02  0.7816164E-02  0.1312668E+00
        -11   -1    0    0    0    0  0.00000000000E+00  0.00000000000E+00  0.45593999997E+02  0.45594000000E+02  0.51100000000E-03 0. -1.
         11   -1    0    0    0    0 -0.00000000000E+00 -0.00000000000E+00 -0.45593999997E+02  0.45594000000E+02  0.51100000000E-03 0.  1.
    9900012    2    1    2    0    0 -0.11289573482E+02 -0.41766733911E+02 -0.34218344792E+01  0.47787268645E+02  0.19999989058E+02 0.  0.
         12    1    1    2    0    0  0.11289573482E+02  0.41766733911E+02  0.34218344792E+01  0.43400731355E+02  0.00000000000E+00 0. -1.
         11    1    3    3    0    0  0.32206932174E+01 -0.14852540130E+02 -0.16468117593E+01  0.15286687095E+02  0.51100000000E-03 0. -1.
        -11    1    3    3    0    0 -0.24394444289E+01 -0.29352068793E+01 -0.40421202376E+01  0.55592323951E+01  0.51100000000E-03 0.  1.
         12    1    3    3    0    0 -0.12070822270E+02 -0.23978986902E+02  0.22670975176E+01  0.26941349154E+02  0.00000000000E+00 0. -1.
</event>
<event>
 7    1  0.2318319E-009  0.4778727E+02  0.7816164E-02  0.1312668E+00
        -11   -1    0    0    0    0  0.00000000000E+00  0.00000000000E+00  0.45593999997E+02  0.45594000000E+02  0.51100000000E-03 0.  1.
         11   -1    0    0    0    0 -0.00000000000E+00 -0.00000000000E+00 -0.45593999997E+02  0.45594000000E+02  0.51100000000E-03 0. -1.
    9900012    2    1    2    0    0 -0.11321058217E+02  0.41110041918E+02 -0.80883798404E+01  0.47787265051E+02  0.19999972672E+02 0.  0.
         12    1    1    2    0    0  0.11321058217E+02 -0.41110041918E+02  0.80883798404E+01  0.43400734949E+02  0.00000000000E+00 0. -1.
         11    1    3    3    0    0 -0.31913160406E+01  0.20199376948E+01 -0.43633748731E+01  0.57709346649E+01  0.51100000000E-03 0. -1.
        -11    1    3    3    0    0  0.18127990071E+01  0.16185370219E+02 -0.49338039492E+01  0.17017487213E+02  0.51100000000E-03 0.  1.
         12    1    3    3    0    0 -0.99425411839E+01  0.22904734005E+02  0.12087989820E+01  0.24998843173E+02  0.00000000000E+00 0. -1.
</event>
<event>
 7    1  0.2318319E-009  0.4778728E+02  0.7816164E-02  0.1312668E+00
        -11   -1    0    0    0    0  0.00000000000E+00  0.00000000000E+00  0.45593999997E+02  0.45594000000E+02  0.51100000000E-03 0.  1.
         11   -1    0    0    0    0 -0.00000000000E+00 -0.00000000000E+00 -0.45593999997E+02  0.45594000000E+02  0.51100000000E-03 0. -1.
    9900012    2    1    2    0    0 -0.32993923679E+02 -0.53374491736E+01  0.27686377714E+02  0.47787275647E+02  0.20000020986E+02 0.  0.
         12    1    1    2    0    0  0.32993923679E+02  0.53374491736E+01 -0.27686377714E+02  0.43400724353E+02  0.00000000000E+00 0. -1.
         11    1    3    3    0    0 -0.11687236690E+02  0.33602794566E+01  0.44597604429E+01  0.12952700219E+02  0.51100000000E-03 0. -1.
        -11    1    3    3    0    0 -0.33214892184E+01  0.15593094545E+01 -0.66365278173E-01  0.36698966218E+01  0.51100000000E-03 0.  1.
        -12    1    3    3    0    0 -0.17985197771E+02 -0.10257038085E+02  0.23292982549E+02  0.31164678807E+02  0.00000000000E+00 0.  1.
</event>
<event>
 7    1  0.2318319E-009  0.4778727E+02  0.7816164E-02  0.1312668E+00
        -11   -1    0    0    0    0  0.00000000000E+00  0.00000000000E+00  0.45593999997E+02  0.45594000000E+02  0.51100000000E-03 0. -1.
         11   -1    0    0    0    0 -0.00000000000E+00 -0.00000000000E+00 -0.45593999997E+02  0.45594000000E+02  0.51100000000E-03 0.  1.
    9900012    2    1    2    0    0  0.40118155062E+02 -0.12728445068E+02  0.10589784196E+02  0.47787271794E+02  0.20000003419E+02 0.  0.
         12    1    1    2    0    0 -0.40118155062E+02  0.12728445068E+02 -0.10589784196E+02  0.43400728206E+02  0.00000000000E+00 0. -1.
         11    1    3    3    0    0  0.13848637069E+02 -0.94472611074E+01  0.74923397765E+01  0.18362207022E+02  0.51100000000E-03 0. -1.
        -11    1    3    3    0    0  0.37634646137E+01  0.15844773473E+01  0.48409173340E+01  0.63331441842E+01  0.51100000000E-03 0.  1.
        -12    1    3    3    0    0  0.22506053379E+02 -0.48656613083E+01 -0.17434729139E+01  0.23091920589E+02  0.00000000000E+00 0.  1.
</event>
<event>
 7    1  0.2318319E-009  0.4778728E+02  0.7816164E-02  0.1312668E+00
        -11   -1    0    0    0    0  0.00000000000E+00  0.00000000000E+00  0.45593999997E+02  0.45594000000E+02  0.51100000000E-03 0.  1.
         11   -1    0    0    0    0 -0.00000000000E+00 -0.00000000000E+00 -0.45593999997E+02  0.45594000000E+02  0.51100000000E-03 0. -1.
    9900012    2    1    2    0    0 -0.33306612390E+02 -0.14373579690E+02  0.23826298612E+02  0.47787277338E+02  0.20000028696E+02 0.  0.
         12    1    1    2    0    0  0.33306612390E+02  0.14373579690E+02 -0.23826298612E+02  0.43400722662E+02  0.00000000000E+00 0. -1.
         11    1    3    3    0    0 -0.15695835495E+02 -0.93395114790E+01  0.95825434380E+01  0.20625490674E+02  0.51100000000E-03 0. -1.
        -11    1    3    3    0    0 -0.43513209881E+01 -0.57171154122E+01  0.11568373686E+02  0.13617880634E+02  0.51100000000E-03 0.  1.
         12    1    3    3    0    0 -0.13259455907E+02  0.68304720147E+00  0.26753814881E+01  0.13543906030E+02  0.00000000000E+00 0. -1.
</event>
<event>
 7    1  0.2318319E-009  0.4778727E+02  0.7816164E-02  0.1312668E+00
        -11   -1    0    0    0    0  0.00000000000E+00  0.00000000000E+00  0.45593999997E+02  0.45594000000E+02  0.51100000000E-03 0.  1.
         11   -1    0    0    0    0 -0.00000000000E+00 -0.00000000000E+00 -0.45593999997E+02  0.45594000000E+02  0.51100000000E-03 0. -1.
    9900012    2    1    2    0    0  0.44072650987E+01  0.77404227294E+01  0.42476879934E+02  0.47787268917E+02  0.19999990298E+02 0.  0.
         12    1    1    2    0    0 -0.44072650987E+01 -0.77404227294E+01 -0.42476879934E+02  0.43400731083E+02  0.00000000000E+00 0. -1.
         11    1    3    3    0    0  0.26558079972E+01  0.16226307554E+01  0.13943383727E+01  0.34103411039E+01  0.51100000000E-03 0. -1.
        -11    1    3    3    0    0  0.49812735234E+01 -0.35096146949E+01  0.10354311878E+02  0.12014252201E+02  0.51100000000E-03 0.  1.
        -12    1    3    3    0    0 -0.32298164220E+01  0.96274066690E+01  0.30728229683E+02  0.32362675612E+02  0.00000000000E+00 0.  1.
</event>
<event>
 7    1  0.2318319E-009  0.4778724E+02  0.7816164E-02  0.1312668E+00
        -11   -1    0    0    0    0  0.00000000000E+00  0.00000000000E+00  0.45593999997E+02  0.45594000000E+02  0.51100000000E-03 0.  1.
         11   -1    0    0    0    0 -0.00000000000E+00 -0.00000000000E+00 -0.45593999997E+02  0.45594000000E+02  0.51100000000E-03 0. -1.
    9900012    2    1    2    0    0  0.37245162738E+02 -0.40621805878E+00  0.22276863686E+02  0.47787241755E+02  0.19999866458E+02 0.  0.
         12    1    1    2    0    0 -0.37245162738E+02  0.40621805878E+00 -0.22276863686E+02  0.43400758245E+02  0.00000000000E+00 0. -1.
         11    1    3    3    0    0  0.33454329581E+01 -0.96511063190E+00 -0.45947352671E+00  0.35120473220E+01  0.51100000000E-03 0. -1.
        -11    1    3    3    0    0  0.99450095597E+01  0.57017755199E+01  0.14377010243E+02  0.18387818876E+02  0.51100000000E-03 0.  1.
        -12    1    3    3    0    0  0.23954720221E+02 -0.51428829468E+01  0.83593269697E+01  0.25887375557E+02  0.00000000000E+00 0.  1.
</event>
<event>
 7    1  0.2318319E-009  0.4778727E+02  0.7816164E-02  0.1312668E+00
        -11   -1    0    0    0    0  0.00000000000E+00  0.00000000000E+00  0.45593999997E+02  0.45594000000E+02  0.51100000000E-03 0.  1.
         11   -1    0    0    0    0 -0.00000000000E+00 -0.00000000000E+00 -0.45593999997E+02  0.45594000000E+02  0.51100000000E-03 0. -1.
    9900012    2    1    2    0    0 -0.11871620243E+02  0.66144242354E+01  0.41218166292E+02  0.47787271807E+02  0.20000003478E+02 0.  0.
         12    1    1    2    0    0  0.11871620243E+02 -0.66144242354E+01 -0.41218166292E+02  0.43400728193E+02  0.00000000000E+00 0. -1.
         11    1    3    3    0    0  0.29312931795E+01  0.13617299560E+01  0.26666023816E+01  0.41901738269E+01  0.51100000000E-03 0. -1.
        -11    1    3    3    0    0  0.23485074863E+01  0.14490644864E+01  0.61040912118E+01  0.66988958107E+01  0.51100000000E-03 0.  1.
        -12    1    3    3    0    0 -0.17151420909E+02  0.38036297930E+01  0.32447472699E+02  0.36898202170E+02  0.00000000000E+00 0.  1.
</event>
<event>
 7    1  0.2318319E-009  0.4778727E+02  0.7816164E-02  0.1312668E+00
        -11   -1    0    0    0    0  0.00000000000E+00  0.00000000000E+00  0.45593999997E+02  0.45594000000E+02  0.51100000000E-03 0.  1.
         11   -1    0    0    0    0 -0.00000000000E+00 -0.00000000000E+00 -0.45593999997E+02  0.45594000000E+02  0.51100000000E-03 0. -1.
    9900012    2    1    2    0    0 -0.31493180200E+02  0.20901112862E+02  0.21329478473E+02  0.47787267634E+02  0.19999984450E+02 0.  0.
         12    1    1    2    0    0  0.31493180200E+02 -0.20901112862E+02 -0.21329478473E+02  0.43400732366E+02  0.00000000000E+00 0. -1.
         11    1    3    3    0    0 -0.46091659485E-01  0.64670852221E+01  0.48147855429E+01  0.80627213641E+01  0.51100000000E-03 0. -1.
        -11    1    3    3    0    0 -0.19632337350E+02  0.10738807103E+02  0.15666322259E+02  0.27316374233E+02  0.51100000000E-03 0.  1.
        -12    1    3    3    0    0 -0.11814751191E+02  0.36952205364E+01  0.84837067138E+00  0.12408172037E+02  0.00000000000E+00 0.  1.
</event>
<event>
 7    1  0.2318319E-009  0.4778727E+02  0.7816164E-02  0.1312668E+00
        -11   -1    0    0    0    0  0.00000000000E+00  0.00000000000E+00  0.45593999997E+02  0.45594000000E+02  0.51100000000E-03 0.  1.
         11   -1    0    0    0    0 -0.00000000000E+00 -0.00000000000E+00 -0.45593999997E+02  0.45594000000E+02  0.51100000000E-03 0. -1.
    9900012    2    1    2    0    0 -0.12557018243E+02 -0.19659717520E+02  0.36598361827E+02  0.47787270876E+02  0.19999999231E+02 0.  0.
         12    1    1    2    0    0  0.12557018243E+02  0.19659717520E+02 -0.36598361827E+02  0.43400729124E+02  0.00000000000E+00 0. -1.
         11    1    3    3    0    0 -0.42588134009E+01 -0.33189174794E+01  0.33020324074E+00  0.54094120993E+01  0.51100000000E-03 0. -1.
        -11    1    3    3    0    0 -0.73543422025E+01 -0.88998805934E+01  0.10731950475E+02  0.15762899006E+02  0.51100000000E-03 0.  1.
        -12    1    3    3    0    0 -0.94386263931E+00 -0.74409194468E+01  0.25536208111E+02  0.26614959771E+02  0.00000000000E+00 0.  1.
</event>
<event>
 7    1  0.2318319E-009  0.4778727E+02  0.7816164E-02  0.1312668E+00
        -11   -1    0    0    0    0  0.00000000000E+00  0.00000000000E+00  0.45593999997E+02  0.45594000000E+02  0.51100000000E-03 0.  1.
         11   -1    0    0    0    0 -0.00000000000E+00 -0.00000000000E+00 -0.45593999997E+02  0.45594000000E+02  0.51100000000E-03 0. -1.
    9900012    2    1    2    0    0 -0.16643690197E+02 -0.14753809627E+02  0.37268427516E+02  0.47787274068E+02  0.20000013784E+02 0.  0.
         12    1    1    2    0    0  0.16643690197E+02  0.14753809627E+02 -0.37268427516E+02  0.43400725932E+02  0.00000000000E+00 0. -1.
         11    1    3    3    0    0 -0.31491719767E+01 -0.80405026623E+01  0.19260084381E+02  0.21107293001E+02  0.51100000000E-03 0.  1.
        -11    1    3    3    0    0 -0.19196068837E+01 -0.68693229217E+01  0.30291577983E+01  0.77490828631E+01  0.51100000000E-03 0. -1.
         12    1    3    3    0    0 -0.11574911337E+02  0.15601595679E+00  0.14979185337E+02  0.18930898204E+02  0.00000000000E+00 0. -1.
</event>
<event>
 7    1  0.2318319E-009  0.4778727E+02  0.7816164E-02  0.1312668E+00
        -11   -1    0    0    0    0  0.00000000000E+00  0.00000000000E+00  0.45593999997E+02  0.45594000000E+02  0.51100000000E-03 0. -1.
         11   -1    0    0    0    0 -0.00000000000E+00 -0.00000000000E+00 -0.45593999997E+02  0.45594000000E+02  0.51100000000E-03 0.  1.
    9900012    2    1    2    0    0 -0.32331736937E+02 -0.37630657431E+01 -0.28707513573E+02  0.47787271749E+02  0.20000003212E+02 0.  0.
         12    1    1    2    0    0  0.32331736937E+02  0.37630657431E+01  0.28707513573E+02  0.43400728251E+02  0.00000000000E+00 0. -1.
         11    1    3    3    0    0 -0.17315882393E+02  0.20311551612E+01 -0.95057607837E+01  0.19857614727E+02  0.51100000000E-03 0. -1.
        -11    1    3    3    0    0 -0.41181554437E+01 -0.15236196654E+01 -0.14778691180E+02  0.15417209034E+02  0.51100000000E-03 0.  1.
         12    1    3    3    0    0 -0.10897699101E+02 -0.42706012389E+01 -0.44230616092E+01  0.12512447987E+02  0.00000000000E+00 0. -1.
</event>
<event>
 7    1  0.2318319E-009  0.4778727E+02  0.7816164E-02  0.1312668E+00
        -11   -1    0    0    0    0  0.00000000000E+00  0.00000000000E+00  0.45593999997E+02  0.45594000000E+02  0.51100000000E-03 0.  1.
         11   -1    0    0    0    0 -0.00000000000E+00 -0.00000000000E+00 -0.45593999997E+02  0.45594000000E+02  0.51100000000E-03 0. -1.
    9900012    2    1    2    0    0  0.18845229106E+02 -0.31954509428E+02  0.22525316236E+02  0.47787271845E+02  0.20000003652E+02 0.  0.
         12    1    1    2    0    0 -0.18845229106E+02  0.31954509428E+02 -0.22525316236E+02  0.43400728155E+02  0.00000000000E+00 0. -1.
         11    1    3    3    0    0  0.87512524648E+01 -0.17266447430E+02  0.43807308708E+01  0.19847050909E+02  0.51100000000E-03 0. -1.
        -11    1    3    3    0    0  0.82752860258E+01 -0.31651499139E+01  0.43372040507E+01  0.98645766268E+01  0.51100000000E-03 0.  1.
        -12    1    3    3    0    0  0.18186906153E+01 -0.11522912084E+02  0.13807381315E+02  0.18075644310E+02  0.00000000000E+00 0.  1.
</event>
<event>
 7    1  0.2318319E-009  0.4778727E+02  0.7816164E-02  0.1312668E+00
        -11   -1    0    0    0    0  0.00000000000E+00  0.00000000000E+00  0.45593999997E+02  0.45594000000E+02  0.51100000000E-03 0. -1.
         11   -1    0    0    0    0 -0.00000000000E+00 -0.00000000000E+00 -0.45593999997E+02  0.45594000000E+02  0.51100000000E-03 0.  1.
    9900012    2    1    2    0    0 -0.23369633654E+02 -0.11641574497E+02 -0.34669251289E+02  0.47787273982E+02  0.20000013395E+02 0.  0.
         12    1    1    2    0    0  0.23369633654E+02  0.11641574497E+02  0.34669251289E+02  0.43400726018E+02  0.00000000000E+00 0. -1.
         11    1    3    3    0    0 -0.12846410387E+02 -0.92302780974E+01 -0.18388497879E+02  0.24256239364E+02  0.51100000000E-03 0. -1.
        -11    1    3    3    0    0 -0.10260801167E+02 -0.79968529128E+00 -0.18262728711E+02  0.20963081772E+02  0.51100000000E-03 0.  1.
         12    1    3    3    0    0 -0.26242209966E+00 -0.16116111086E+01  0.19819753009E+01  0.25679528456E+01  0.00000000000E+00 0. -1.
</event>
<event>
 7    1  0.2318319E-009  0.4778727E+02  0.7816164E-02  0.1312668E+00
        -11   -1    0    0    0    0  0.00000000000E+00  0.00000000000E+00  0.45593999997E+02  0.45594000000E+02  0.51100000000E-03 0.  1.
         11   -1    0    0    0    0 -0.00000000000E+00 -0.00000000000E+00 -0.45593999997E+02  0.45594000000E+02  0.51100000000E-03 0. -1.
    9900012    2    1    2    0    0 -0.19683804090E+01  0.13493320447E+02  0.41202902213E+02  0.47787269950E+02  0.19999995010E+02 0.  0.
         12    1    1    2    0    0  0.19683804090E+01 -0.13493320447E+02 -0.41202902213E+02  0.43400730050E+02  0.00000000000E+00 0. -1.
         11    1    3    3    0    0 -0.19052626571E+01  0.67286311948E+01  0.77750608738E+01  0.10457345524E+02  0.51100000000E-03 0.  1.
        -11    1    3    3    0    0 -0.18465371106E+00  0.10840179410E+02  0.15316845894E+02  0.18765642942E+02  0.51100000000E-03 0. -1.
         12    1    3    3    0    0  0.12153595913E+00 -0.40754901574E+01  0.18110995446E+02  0.18564281485E+02  0.00000000000E+00 0. -1.
</event>
<event>
 7    1  0.2318319E-009  0.4778727E+02  0.7816164E-02  0.1312668E+00
        -11   -1    0    0    0    0  0.00000000000E+00  0.00000000000E+00  0.45593999997E+02  0.45594000000E+02  0.51100000000E-03 0.  1.
         11   -1    0    0    0    0 -0.00000000000E+00 -0.00000000000E+00 -0.45593999997E+02  0.45594000000E+02  0.51100000000E-03 0. -1.
    9900012    2    1    2    0    0  0.39675323145E+02 -0.17217435536E+02 -0.36127153699E+01  0.47787273446E+02  0.20000010947E+02 0.  0.
         12    1    1    2    0    0 -0.39675323145E+02  0.17217435536E+02  0.36127153699E+01  0.43400726554E+02  0.00000000000E+00 0. -1.
         11    1    3    3    0    0  0.35839259987E+01 -0.45665895389E+01 -0.92968318150E+00  0.58789945280E+01  0.51100000000E-03 0. -1.
        -11    1    3    3    0    0  0.35974855014E+02 -0.14754952246E+02 -0.44779494536E+01  0.39140143595E+02  0.51100000000E-03 0.  1.
         12    1    3    3    0    0  0.11654213276E+00  0.21041062491E+01  0.17949172652E+01  0.27681353228E+01  0.00000000000E+00 0. -1.
</event>
<event>
 7    1  0.2318319E-009  0.4778727E+02  0.7816164E-02  0.1312668E+00
        -11   -1    0    0    0    0  0.00000000000E+00  0.00000000000E+00  0.45593999997E+02  0.45594000000E+02  0.51100000000E-03 0.  1.
         11   -1    0    0    0    0 -0.00000000000E+00 -0.00000000000E+00 -0.45593999997E+02  0.45594000000E+02  0.51100000000E-03 0. -1.
    9900012    2    1    2    0    0  0.21694280980E+01  0.11423841532E+02  0.41814025034E+02  0.47787271168E+02  0.20000000561E+02 0.  0.
         12    1    1    2    0    0 -0.21694280980E+01 -0.11423841532E+02 -0.41814025034E+02  0.43400728832E+02  0.00000000000E+00 0. -1.
         11    1    3    3    0    0 -0.43058199084E+01  0.11802994972E+01  0.17031704100E+02  0.17607161520E+02  0.51100000000E-03 0. -1.
        -11    1    3    3    0    0  0.44622945935E+01  0.62602987010E+01  0.24533893546E+02  0.25710218701E+02  0.51100000000E-03 0.  1.
         12    1    3    3    0    0  0.20129534129E+01  0.39832433342E+01  0.24842738780E+00  0.44698909460E+01  0.00000000000E+00 0. -1.
</event>
<event>
 7    1  0.2318319E-009  0.4778723E+02  0.7816164E-02  0.1312668E+00
        -11   -1    0    0    0    0  0.00000000000E+00  0.00000000000E+00  0.45593999997E+02  0.45594000000E+02  0.51100000000E-03 0.  1.
         11   -1    0    0    0    0 -0.00000000000E+00 -0.00000000000E+00 -0.45593999997E+02  0.45594000000E+02  0.51100000000E-03 0. -1.
    9900012    2    1    2    0    0  0.29289783825E+02  0.93707407234E+01  0.30625550356E+02  0.47787233269E+02  0.19999827768E+02 0.  0.
         12    1    1    2    0    0 -0.29289783825E+02 -0.93707407234E+01 -0.30625550356E+02  0.43400766731E+02  0.00000000000E+00 0. -1.
         11    1    3    3    0    0  0.14539701820E+02  0.10229767890E+02  0.13355373932E+02  0.22235491746E+02  0.51100000000E-03 0. -1.
        -11    1    3    3    0    0  0.59105346621E+01  0.49556446869E+01  0.10354419594E+02  0.12911500287E+02  0.51100000000E-03 0.  1.
        -12    1    3    3    0    0  0.88395473427E+01 -0.58146718533E+01  0.69157568297E+01  0.12640241236E+02  0.00000000000E+00 0.  1.
</event>
<event>
 7    1  0.2318319E-009  0.4778727E+02  0.7816164E-02  0.1312668E+00
        -11   -1    0    0    0    0  0.00000000000E+00  0.00000000000E+00  0.45593999997E+02  0.45594000000E+02  0.51100000000E-03 0.  1.
         11   -1    0    0    0    0 -0.00000000000E+00 -0.00000000000E+00 -0.45593999997E+02  0.45594000000E+02  0.51100000000E-03 0. -1.
    9900012    2    1    2    0    0  0.40831436604E+02 -0.22861108006E+01 -0.14532410533E+02  0.47787268743E+02  0.19999989509E+02 0.  0.
         12    1    1    2    0    0 -0.40831436604E+02  0.22861108006E+01  0.14532410533E+02  0.43400731257E+02  0.00000000000E+00 0. -1.
         11    1    3    3    0    0 -0.12560948201E+01 -0.14632407726E+01 -0.15529942415E+01  0.24760127485E+01  0.51100000000E-03 0. -1.
        -11    1    3    3    0    0  0.17236345352E+02 -0.55658918138E+01 -0.53974400588E+01  0.18899817783E+02  0.51100000000E-03 0.  1.
        -12    1    3    3    0    0  0.24851186072E+02  0.47430217858E+01 -0.75819762329E+01  0.26411438212E+02  0.00000000000E+00 0.  1.
</event>
<event>
 7    1  0.2318319E-009  0.4778725E+02  0.7816164E-02  0.1312668E+00
        -11   -1    0    0    0    0  0.00000000000E+00  0.00000000000E+00  0.45593999997E+02  0.45594000000E+02  0.51100000000E-03 0.  1.
         11   -1    0    0    0    0 -0.00000000000E+00 -0.00000000000E+00 -0.45593999997E+02  0.45594000000E+02  0.51100000000E-03 0. -1.
    9900012    2    1    2    0    0 -0.16635969477E+02 -0.36069027484E+02  0.17489844156E+02  0.47787252626E+02  0.19999916021E+02 0.  0.
         12    1    1    2    0    0  0.16635969477E+02  0.36069027484E+02 -0.17489844156E+02  0.43400747374E+02  0.00000000000E+00 0. -1.
         11    1    3    3    0    0 -0.60426206367E+01 -0.11409853485E+02 -0.10219221587E+01  0.12951538360E+02  0.51100000000E-03 0. -1.
        -11    1    3    3    0    0 -0.16822168891E+01 -0.12076322881E+02  0.21996585783E+01  0.12389750850E+02  0.51100000000E-03 0.  1.
         12    1    3    3    0    0 -0.89111319514E+01 -0.12582851117E+02  0.16312107736E+02  0.22445963416E+02  0.00000000000E+00 0. -1.
</event>
<event>
 7    1  0.2318319E-009  0.4778730E+02  0.7816164E-02  0.1312668E+00
        -11   -1    0    0    0    0  0.00000000000E+00  0.00000000000E+00  0.45593999997E+02  0.45594000000E+02  0.51100000000E-03 0.  1.
         11   -1    0    0    0    0 -0.00000000000E+00 -0.00000000000E+00 -0.45593999997E+02  0.45594000000E+02  0.51100000000E-03 0. -1.
    9900012    2    1    2    0    0  0.17547537650E+02 -0.31692328847E+01  0.39568430887E+02  0.47787299113E+02  0.20000127974E+02 0.  0.
         12    1    1    2    0    0 -0.17547537650E+02  0.31692328847E+01 -0.39568430887E+02  0.43400700887E+02  0.00000000000E+00 0. -1.
         11    1    3    3    0    0  0.94216600701E+00 -0.49736635472E+01  0.15292219752E+02  0.16108289514E+02  0.51100000000E-03 0. -1.
        -11    1    3    3    0    0  0.47297803733E+01  0.24925888041E+00  0.17039469478E+02  0.17685487630E+02  0.51100000000E-03 0.  1.
         12    1    3    3    0    0  0.11875591269E+02  0.15551717822E+01  0.72367416571E+01  0.13993521968E+02  0.00000000000E+00 0. -1.
</event>
<event>
 7    1  0.2318319E-009  0.4778727E+02  0.7816164E-02  0.1312668E+00
        -11   -1    0    0    0    0  0.00000000000E+00  0.00000000000E+00  0.45593999997E+02  0.45594000000E+02  0.51100000000E-03 0. -1.
         11   -1    0    0    0    0 -0.00000000000E+00 -0.00000000000E+00 -0.45593999997E+02  0.45594000000E+02  0.51100000000E-03 0.  1.
    9900012    2    1    2    0    0 -0.27284080044E+02  0.22591019802E+02 -0.25076838159E+02  0.47787274066E+02  0.20000013776E+02 0.  0.
         12    1    1    2    0    0  0.27284080044E+02 -0.22591019802E+02  0.25076838159E+02  0.43400725934E+02  0.00000000000E+00 0. -1.
         11    1    3    3    0    0 -0.40238272502E+01  0.21674557673E+01 -0.20740300443E+01  0.50190289029E+01  0.51100000000E-03 0. -1.
        -11    1    3    3    0    0 -0.24348667826E+02  0.22408747245E+02 -0.18968288865E+02  0.38141913438E+02  0.51100000000E-03 0.  1.
         12    1    3    3    0    0  0.10884150318E+01 -0.19851832098E+01 -0.40345192493E+01  0.46263317251E+01  0.00000000000E+00 0. -1.
</event>
<event>
 7    1  0.2318319E-009  0.4778727E+02  0.7816164E-02  0.1312668E+00
        -11   -1    0    0    0    0  0.00000000000E+00  0.00000000000E+00  0.45593999997E+02  0.45594000000E+02  0.51100000000E-03 0.  1.
         11   -1    0    0    0    0 -0.00000000000E+00 -0.00000000000E+00 -0.45593999997E+02  0.45594000000E+02  0.51100000000E-03 0. -1.
    9900012    2    1    2    0    0 -0.12413470365E+02  0.25963988516E+01  0.41506484171E+02  0.47787265424E+02  0.19999974376E+02 0.  0.
         12    1    1    2    0    0  0.12413470365E+02 -0.25963988516E+01 -0.41506484171E+02  0.43400734576E+02  0.00000000000E+00 0. -1.
         11    1    3    3    0    0 -0.72137923501E+01  0.42107405340E+01  0.99138110598E+01  0.12963517497E+02  0.51100000000E-03 0. -1.
        -11    1    3    3    0    0  0.38092769251E+00  0.53640255511E+01  0.15645848767E+02  0.16544197167E+02  0.51100000000E-03 0.  1.
        -12    1    3    3    0    0 -0.55806057074E+01 -0.69783672335E+01  0.15946824344E+02  0.18279550760E+02  0.00000000000E+00 0.  1.
</event>
<event>
 7    1  0.2318319E-009  0.4778732E+02  0.7816164E-02  0.1312668E+00
        -11   -1    0    0    0    0  0.00000000000E+00  0.00000000000E+00  0.45593999997E+02  0.45594000000E+02  0.51100000000E-03 0. -1.
         11   -1    0    0    0    0 -0.00000000000E+00 -0.00000000000E+00 -0.45593999997E+02  0.45594000000E+02  0.51100000000E-03 0.  1.
    9900012    2    1    2    0    0 -0.58680252183E+01  0.98154034023E+01 -0.41866965832E+02  0.47787323831E+02  0.20000240674E+02 0.  0.
         12    1    1    2    0    0  0.58680252183E+01 -0.98154034023E+01  0.41866965832E+02  0.43400676169E+02  0.00000000000E+00 0. -1.
         11    1    3    3    0    0  0.30460357424E+01 -0.21009390913E+01 -0.69458613889E+01  0.78700234755E+01  0.51100000000E-03 0. -1.
        -11    1    3    3    0    0 -0.23947958122E+01 -0.21826741108E+01 -0.29924589943E+01  0.44106603077E+01  0.51100000000E-03 0.  1.
        -12    1    3    3    0    0 -0.65192651484E+01  0.14099016604E+02 -0.31928645449E+02  0.35506640048E+02  0.00000000000E+00 0.  1.
</event>
<event>
 7    1  0.2318319E-009  0.4778727E+02  0.7816164E-02  0.1312668E+00
        -11   -1    0    0    0    0  0.00000000000E+00  0.00000000000E+00  0.45593999997E+02  0.45594000000E+02  0.51100000000E-03 0. -1.
         11   -1    0    0    0    0 -0.00000000000E+00 -0.00000000000E+00 -0.45593999997E+02  0.45594000000E+02  0.51100000000E-03 0.  1.
    9900012    2    1    2    0    0  0.42012039887E+02  0.10146242976E+02  0.39579879460E+01  0.47787269469E+02  0.19999992819E+02 0.  0.
         12    1    1    2    0    0 -0.42012039887E+02 -0.10146242976E+02 -0.39579879460E+01  0.43400730531E+02  0.00000000000E+00 0. -1.
         11    1    3    3    0    0  0.46204715818E+01  0.35348078256E+00  0.26471826176E+01  0.53367857718E+01  0.51100000000E-03 0. -1.
        -11    1    3    3    0    0  0.38468276714E+02  0.66463010538E+01  0.18473548453E+01  0.39081892882E+02  0.51100000000E-03 0.  1.
         12    1    3    3    0    0 -0.10767084087E+01  0.31464611396E+01 -0.53654951688E+00  0.33685908158E+01  0.00000000000E+00 0. -1.
</event>
<event>
 7    1  0.2318319E-009  0.4778727E+02  0.7816164E-02  0.1312668E+00
        -11   -1    0    0    0    0  0.00000000000E+00  0.00000000000E+00  0.45593999997E+02  0.45594000000E+02  0.51100000000E-03 0. -1.
         11   -1    0    0    0    0 -0.00000000000E+00 -0.00000000000E+00 -0.45593999997E+02  0.45594000000E+02  0.51100000000E-03 0.  1.
    9900012    2    1    2    0    0 -0.13539195666E+02  0.11763395257E+02 -0.39521334798E+02  0.47787271994E+02  0.20000004328E+02 0.  0.
         12    1    1    2    0    0  0.13539195666E+02 -0.11763395257E+02  0.39521334798E+02  0.43400728006E+02  0.00000000000E+00 0. -1.
         11    1    3    3    0    0 -0.96197332577E+00 -0.17407596503E+01 -0.15857620962E+01  0.25436742178E+01  0.51100000000E-03 0. -1.
        -11    1    3    3    0    0 -0.13357887282E+02  0.11863358592E+02 -0.18481420351E+02  0.25704772478E+02  0.51100000000E-03 0.  1.
        -12    1    3    3    0    0  0.78066494233E+00  0.16407963156E+01 -0.19454152351E+02  0.19538825297E+02  0.00000000000E+00 0.  1.
</event>
<event>
 7    1  0.2318319E-009  0.4778727E+02  0.7816164E-02  0.1312668E+00
        -11   -1    0    0    0    0  0.00000000000E+00  0.00000000000E+00  0.45593999997E+02  0.45594000000E+02  0.51100000000E-03 0. -1.
         11   -1    0    0    0    0 -0.00000000000E+00 -0.00000000000E+00 -0.45593999997E+02  0.45594000000E+02  0.51100000000E-03 0.  1.
    9900012    2    1    2    0    0 -0.42796568856E+02  0.52772182688E+01  0.49222286492E+01  0.47787266442E+02  0.19999979015E+02 0.  0.
         12    1    1    2    0    0  0.42796568856E+02 -0.52772182688E+01 -0.49222286492E+01  0.43400733558E+02  0.00000000000E+00 0. -1.
         11    1    3    3    0    0  0.17122791848E+01 -0.60227129104E+00 -0.70211335102E+00  0.19461742300E+01  0.51100000000E-03 0. -1.
        -11    1    3    3    0    0 -0.13388313520E+02  0.50304597638E+01  0.28706647312E+01  0.14587432283E+02  0.51100000000E-03 0.  1.
        -12    1    3    3    0    0 -0.31120534521E+02  0.84902979612E+00  0.27536772690E+01  0.31253659929E+02  0.00000000000E+00 0.  1.
</event>
<event>
 7    1  0.2318319E-009  0.4778727E+02  0.7816164E-02  0.1312668E+00
        -11   -1    0    0    0    0  0.00000000000E+00  0.00000000000E+00  0.45593999997E+02  0.45594000000E+02  0.51100000000E-03 0.  1.
         11   -1    0    0    0    0 -0.00000000000E+00 -0.00000000000E+00 -0.45593999997E+02  0.45594000000E+02  0.51100000000E-03 0. -1.
    9900012    2    1    2    0    0  0.33532935779E+01 -0.16667323260E+02  0.39932183607E+02  0.47787268092E+02  0.19999986539E+02 0.  0.
         12    1    1    2    0    0 -0.33532935779E+01  0.16667323260E+02 -0.39932183607E+02  0.43400731908E+02  0.00000000000E+00 0. -1.
         11    1    3    3    0    0 -0.31298408832E+01 -0.18377969013E+01  0.99436518301E+01  0.10585348997E+02  0.51100000000E-03 0. -1.
        -11    1    3    3    0    0  0.51138117792E+01 -0.78662366950E+01  0.28427253520E+02  0.29935555675E+02  0.51100000000E-03 0.  1.
         12    1    3    3    0    0  0.13693226819E+01 -0.69632896640E+01  0.15612782574E+01  0.72663634199E+01  0.00000000000E+00 0. -1.
</event>
<event>
 7    1  0.2318319E-009  0.4778726E+02  0.7816164E-02  0.1312668E+00
        -11   -1    0    0    0    0  0.00000000000E+00  0.00000000000E+00  0.45593999997E+02  0.45594000000E+02  0.51100000000E-03 0. -1.
         11   -1    0    0    0    0 -0.00000000000E+00 -0.00000000000E+00 -0.45593999997E+02  0.45594000000E+02  0.51100000000E-03 0.  1.
    9900012    2    1    2    0    0  0.80005011592E+01 -0.41988282513E+02 -0.75233012499E+01  0.47787263268E+02  0.19999964543E+02 0.  0.
         12    1    1    2    0    0 -0.80005011592E+01  0.41988282513E+02  0.75233012499E+01  0.43400736732E+02  0.00000000000E+00 0. -1.
         11    1    3    3    0    0 -0.98171859740E+00 -0.11358873380E+01  0.21466876148E+01  0.26195952791E+01  0.51100000000E-03 0. -1.
        -11    1    3    3    0    0 -0.12025366135E-01 -0.64362726562E+01 -0.69793755837E+01  0.94940736312E+01  0.51100000000E-03 0.  1.
        -12    1    3    3    0    0  0.89942451228E+01 -0.34416122519E+02 -0.26906132810E+01  0.35673594358E+02  0.00000000000E+00 0.  1.
</event>
<event>
 7    1  0.2318319E-009  0.4778727E+02  0.7816164E-02  0.1312668E+00
        -11   -1    0    0    0    0  0.00000000000E+00  0.00000000000E+00  0.45593999997E+02  0.45594000000E+02  0.51100000000E-03 0. -1.
         11   -1    0    0    0    0 -0.00000000000E+00 -0.00000000000E+00 -0.45593999997E+02  0.45594000000E+02  0.51100000000E-03 0.  1.
    9900012    2    1    2    0    0 -0.32107234929E+02  0.11912024355E+02 -0.26661813326E+02  0.47787272485E+02  0.20000006567E+02 0.  0.
         12    1    1    2    0    0  0.32107234929E+02 -0.11912024355E+02  0.26661813326E+02  0.43400727515E+02  0.00000000000E+00 0. -1.
         11    1    3    3    0    0 -0.33928120008E+01  0.68800075814E+01 -0.42712059688E+00  0.76829753259E+01  0.51100000000E-03 0. -1.
        -11    1    3    3    0    0 -0.95814648296E+01 -0.19033694098E+01 -0.63488899848E+01  0.11650565982E+02  0.51100000000E-03 0.  1.
         12    1    3    3    0    0 -0.19132958099E+02  0.69353861836E+01 -0.19885802744E+02  0.28453731177E+02  0.00000000000E+00 0. -1.
</event>
<event>
 7    1  0.2318319E-009  0.4778727E+02  0.7816164E-02  0.1312668E+00
        -11   -1    0    0    0    0  0.00000000000E+00  0.00000000000E+00  0.45593999997E+02  0.45594000000E+02  0.51100000000E-03 0. -1.
         11   -1    0    0    0    0 -0.00000000000E+00 -0.00000000000E+00 -0.45593999997E+02  0.45594000000E+02  0.51100000000E-03 0.  1.
    9900012    2    1    2    0    0 -0.29455265926E+02  0.31746954782E+02 -0.28533614263E+01  0.47787268438E+02  0.19999988114E+02 0.  0.
         12    1    1    2    0    0  0.29455265926E+02 -0.31746954782E+02  0.28533614263E+01  0.43400731562E+02  0.00000000000E+00 0. -1.
         11    1    3    3    0    0 -0.26366061828E+01  0.68210422978E+01  0.23269297669E+01  0.76741717854E+01  0.51100000000E-03 0.  1.
        -11    1    3    3    0    0  0.11029443548E+01 -0.11163460511E+01  0.78681569692E-01  0.15712752166E+01  0.51100000000E-03 0. -1.
        -12    1    3    3    0    0 -0.27921604098E+02  0.26042258536E+02 -0.52589727629E+01  0.38541821436E+02  0.00000000000E+00 0.  1.
</event>
<event>
 7    1  0.2318319E-009  0.4778727E+02  0.7816164E-02  0.1312668E+00
        -11   -1    0    0    0    0  0.00000000000E+00  0.00000000000E+00  0.45593999997E+02  0.45594000000E+02  0.51100000000E-03 0.  1.
         11   -1    0    0    0    0 -0.00000000000E+00 -0.00000000000E+00 -0.45593999997E+02  0.45594000000E+02  0.51100000000E-03 0. -1.
    9900012    2    1    2    0    0 -0.42472995704E+02 -0.51387129267E+00  0.89108776294E+01  0.47787272265E+02  0.20000005566E+02 0.  0.
         12    1    1    2    0    0  0.42472995704E+02  0.51387129267E+00 -0.89108776294E+01  0.43400727735E+02  0.00000000000E+00 0. -1.
         11    1    3    3    0    0 -0.12956932003E+02 -0.36150575317E+01 -0.96646454689E+00  0.13486466619E+02  0.51100000000E-03 0. -1.
        -11    1    3    3    0    0 -0.33773638692E+01  0.17952663420E+01 -0.32523372183E+01  0.50206837768E+01  0.51100000000E-03 0.  1.
        -12    1    3    3    0    0 -0.26138699832E+02  0.13059198970E+01  0.13129679395E+02  0.29280121870E+02  0.00000000000E+00 0.  1.
</event>
<event>
 7    1  0.2318319E-009  0.4778727E+02  0.7816164E-02  0.1312668E+00
        -11   -1    0    0    0    0  0.00000000000E+00  0.00000000000E+00  0.45593999997E+02  0.45594000000E+02  0.51100000000E-03 0.  1.
         11   -1    0    0    0    0 -0.00000000000E+00 -0.00000000000E+00 -0.45593999997E+02  0.45594000000E+02  0.51100000000E-03 0. -1.
    9900012    2    1    2    0    0 -0.18862079221E+02  0.17477710655E+02  0.34962481620E+02  0.47787268171E+02  0.19999986898E+02 0.  0.
         12    1    1    2    0    0  0.18862079221E+02 -0.17477710655E+02 -0.34962481620E+02  0.43400731829E+02  0.00000000000E+00 0. -1.
         11    1    3    3    0    0  0.17343172854E+01 -0.20305164939E+01  0.63685837636E+01  0.69057738953E+01  0.51100000000E-03 0. -1.
        -11    1    3    3    0    0 -0.12523330872E+02  0.86373751274E+01  0.18725280632E+02  0.24126213964E+02  0.51100000000E-03 0.  1.
        -12    1    3    3    0    0 -0.80730656342E+01  0.10870852021E+02  0.98686172247E+01  0.16755280312E+02  0.00000000000E+00 0.  1.
</event>
<event>
 7    1  0.2318319E-009  0.4778725E+02  0.7816164E-02  0.1312668E+00
        -11   -1    0    0    0    0  0.00000000000E+00  0.00000000000E+00  0.45593999997E+02  0.45594000000E+02  0.51100000000E-03 0. -1.
         11   -1    0    0    0    0 -0.00000000000E+00 -0.00000000000E+00 -0.45593999997E+02  0.45594000000E+02  0.51100000000E-03 0.  1.
    9900012    2    1    2    0    0  0.12758112490E+02 -0.15233685394E+02 -0.38584851540E+02  0.47787246858E+02  0.19999889722E+02 0.  0.
         12    1    1    2    0    0 -0.12758112490E+02  0.15233685394E+02  0.38584851540E+02  0.43400753142E+02  0.00000000000E+00 0. -1.
         11    1    3    3    0    0  0.11064509859E+01 -0.87029159982E+00 -0.16090372228E+02  0.16151833331E+02  0.51100000000E-03 0. -1.
        -11    1    3    3    0    0 -0.25626483049E+01 -0.22429745160E+01 -0.22098422690E+01  0.40597418796E+01  0.51100000000E-03 0.  1.
         12    1    3    3    0    0  0.14214309809E+02 -0.12120419279E+02 -0.20284637042E+02  0.27575671647E+02  0.00000000000E+00 0. -1.
</event>
<event>
 7    1  0.2318319E-009  0.4778727E+02  0.7816164E-02  0.1312668E+00
        -11   -1    0    0    0    0  0.00000000000E+00  0.00000000000E+00  0.45593999997E+02  0.45594000000E+02  0.51100000000E-03 0. -1.
         11   -1    0    0    0    0 -0.00000000000E+00 -0.00000000000E+00 -0.45593999997E+02  0.45594000000E+02  0.51100000000E-03 0.  1.
    9900012    2    1    2    0    0  0.36854153291E+02  0.10373553104E+02 -0.20439772960E+02  0.47787268008E+02  0.19999986156E+02 0.  0.
         12    1    1    2    0    0 -0.36854153291E+02 -0.10373553104E+02  0.20439772960E+02  0.43400731992E+02  0.00000000000E+00 0. -1.
         11    1    3    3    0    0  0.18761922036E+02  0.74464512676E+01 -0.87374223429E+00  0.20204523769E+02  0.51100000000E-03 0.  1.
        -11    1    3    3    0    0  0.27214725230E+00 -0.88337746047E+00 -0.23014390380E+01  0.24801293860E+01  0.51100000000E-03 0. -1.
        -12    1    3    3    0    0  0.17820084002E+02  0.38104792965E+01 -0.17264591688E+02  0.25102614853E+02  0.00000000000E+00 0.  1.
</event>
<event>
 7    1  0.2318319E-009  0.4778727E+02  0.7816164E-02  0.1312668E+00
        -11   -1    0    0    0    0  0.00000000000E+00  0.00000000000E+00  0.45593999997E+02  0.45594000000E+02  0.51100000000E-03 0.  1.
         11   -1    0    0    0    0 -0.00000000000E+00 -0.00000000000E+00 -0.45593999997E+02  0.45594000000E+02  0.51100000000E-03 0. -1.
    9900012    2    1    2    0    0 -0.29177585220E+02  0.15925481398E+02  0.27904672624E+02  0.47787271996E+02  0.20000004339E+02 0.  0.
         12    1    1    2    0    0  0.29177585220E+02 -0.15925481398E+02 -0.27904672624E+02  0.43400728004E+02  0.00000000000E+00 0. -1.
         11    1    3    3    0    0 -0.19658498916E+02  0.50316006140E+01  0.98327848977E+01  0.22548996507E+02  0.51100000000E-03 0. -1.
        -11    1    3    3    0    0 -0.50750623018E+01  0.89347402538E+00  0.14781689228E+01  0.53609268626E+01  0.51100000000E-03 0.  1.
        -12    1    3    3    0    0 -0.44440240015E+01  0.10000406759E+02  0.16593718804E+02  0.19877348626E+02  0.00000000000E+00 0.  1.
</event>
<event>
 7    1  0.2318319E-009  0.4778727E+02  0.7816164E-02  0.1312668E+00
        -11   -1    0    0    0    0  0.00000000000E+00  0.00000000000E+00  0.45593999997E+02  0.45594000000E+02  0.51100000000E-03 0.  1.
         11   -1    0    0    0    0 -0.00000000000E+00 -0.00000000000E+00 -0.45593999997E+02  0.45594000000E+02  0.51100000000E-03 0. -1.
    9900012    2    1    2    0    0 -0.29363094092E+01 -0.29858045068E+02  0.31360780608E+02  0.47787270414E+02  0.19999997127E+02 0.  0.
         12    1    1    2    0    0  0.29363094092E+01  0.29858045068E+02 -0.31360780608E+02  0.43400729586E+02  0.00000000000E+00 0. -1.
         11    1    3    3    0    0  0.38330371840E+01 -0.13667220633E+02  0.19480440186E+02  0.24103374120E+02  0.51100000000E-03 0. -1.
        -11    1    3    3    0    0 -0.30415577870E+01 -0.15982960594E+02  0.11515136319E+02  0.19932497782E+02  0.51100000000E-03 0.  1.
         12    1    3    3    0    0 -0.37277888061E+01 -0.20786384131E+00  0.36520410303E+00  0.37513985121E+01  0.00000000000E+00 0. -1.
</event>
<event>
 7    1  0.2318319E-009  0.4778727E+02  0.7816164E-02  0.1312668E+00
        -11   -1    0    0    0    0  0.00000000000E+00  0.00000000000E+00  0.45593999997E+02  0.45594000000E+02  0.51100000000E-03 0.  1.
         11   -1    0    0    0    0 -0.00000000000E+00 -0.00000000000E+00 -0.45593999997E+02  0.45594000000E+02  0.51100000000E-03 0. -1.
    9900012    2    1    2    0    0 -0.24355276263E+02  0.34238412691E+02 -0.10870823691E+02  0.47787271974E+02  0.20000004240E+02 0.  0.
         12    1    1    2    0    0  0.24355276263E+02 -0.34238412691E+02  0.10870823691E+02  0.43400728026E+02  0.00000000000E+00 0. -1.
         11    1    3    3    0    0 -0.82412234870E+01  0.14354888704E+02 -0.10718815851E+02  0.19719878493E+02  0.51100000000E-03 0. -1.
        -11    1    3    3    0    0 -0.10153408890E+02  0.16791571458E+02 -0.44155531149E+01  0.20113321299E+02  0.51100000000E-03 0.  1.
         12    1    3    3    0    0 -0.59606438854E+01  0.30919525287E+01  0.42635452745E+01  0.79540721819E+01  0.00000000000E+00 0. -1.
</event>
<event>
 7    1  0.2318319E-009  0.4778727E+02  0.7816164E-02  0.1312668E+00
        -11   -1    0    0    0    0  0.00000000000E+00  0.00000000000E+00  0.45593999997E+02  0.45594000000E+02  0.51100000000E-03 0.  1.
         11   -1    0    0    0    0 -0.00000000000E+00 -0.00000000000E+00 -0.45593999997E+02  0.45594000000E+02  0.51100000000E-03 0. -1.
    9900012    2    1    2    0    0 -0.30269191921E+01  0.19476087447E+02  0.38667081491E+02  0.47787269441E+02  0.19999992689E+02 0.  0.
         12    1    1    2    0    0  0.30269191921E+01 -0.19476087447E+02 -0.38667081491E+02  0.43400730559E+02  0.00000000000E+00 0. -1.
         11    1    3    3    0    0  0.19195364592E+01  0.78089366503E+00  0.59069894680E+00  0.21548412102E+01  0.51100000000E-03 0. -1.
        -11    1    3    3    0    0 -0.32463703578E+00  0.19972886765E+02  0.33502660344E+02  0.39005766822E+02  0.51100000000E-03 0.  1.
         12    1    3    3    0    0 -0.46218186155E+01 -0.12776929828E+01  0.45737221996E+01  0.66266614092E+01  0.00000000000E+00 0. -1.
</event>
<event>
 7    1  0.2318319E-009  0.4778727E+02  0.7816164E-02  0.1312668E+00
        -11   -1    0    0    0    0  0.00000000000E+00  0.00000000000E+00  0.45593999997E+02  0.45594000000E+02  0.51100000000E-03 0. -1.
         11   -1    0    0    0    0 -0.00000000000E+00 -0.00000000000E+00 -0.45593999997E+02  0.45594000000E+02  0.51100000000E-03 0.  1.
    9900012    2    1    2    0    0  0.28967469120E+02  0.14405866842E+02 -0.28930611429E+02  0.47787267928E+02  0.19999985793E+02 0.  0.
         12    1    1    2    0    0 -0.28967469120E+02 -0.14405866842E+02  0.28930611429E+02  0.43400732072E+02  0.00000000000E+00 0. -1.
         11    1    3    3    0    0  0.95467242241E+00  0.45761651056E+00 -0.66623018311E+01  0.67458934363E+01  0.51100000000E-03 0. -1.
        -11    1    3    3    0    0  0.53343959001E+01  0.88975707337E+01 -0.28428435573E+01  0.10756593528E+02  0.51100000000E-03 0.  1.
        -12    1    3    3    0    0  0.22678400798E+02  0.50506795977E+01 -0.19425466040E+02  0.30284780964E+02  0.00000000000E+00 0.  1.
</event>
<event>
 7    1  0.2318319E-009  0.4778727E+02  0.7816164E-02  0.1312668E+00
        -11   -1    0    0    0    0  0.00000000000E+00  0.00000000000E+00  0.45593999997E+02  0.45594000000E+02  0.51100000000E-03 0. -1.
         11   -1    0    0    0    0 -0.00000000000E+00 -0.00000000000E+00 -0.45593999997E+02  0.45594000000E+02  0.51100000000E-03 0.  1.
    9900012    2    1    2    0    0 -0.10568409091E+02 -0.41024347075E+02  0.94305302572E+01  0.47787271612E+02  0.20000002588E+02 0.  0.
         12    1    1    2    0    0  0.10568409091E+02  0.41024347075E+02 -0.94305302572E+01  0.43400728388E+02  0.00000000000E+00 0. -1.
         11    1    3    3    0    0 -0.56372209999E+01 -0.14649696109E+02  0.10271586393E+02  0.18758927047E+02  0.51100000000E-03 0. -1.
        -11    1    3    3    0    0 -0.80334901510E+01 -0.14241910662E+02 -0.18956259748E+01  0.16460935010E+02  0.51100000000E-03 0.  1.
         12    1    3    3    0    0  0.31023020596E+01 -0.12132740305E+02  0.10545698393E+01  0.12567409555E+02  0.00000000000E+00 0. -1.
</event>
<event>
 7    1  0.2318319E-009  0.4778725E+02  0.7816164E-02  0.1312668E+00
        -11   -1    0    0    0    0  0.00000000000E+00  0.00000000000E+00  0.45593999997E+02  0.45594000000E+02  0.51100000000E-03 0. -1.
         11   -1    0    0    0    0 -0.00000000000E+00 -0.00000000000E+00 -0.45593999997E+02  0.45594000000E+02  0.51100000000E-03 0.  1.
    9900012    2    1    2    0    0 -0.43055305837E+02  0.31699195406E+01  0.44516333449E+01  0.47787253577E+02  0.19999920360E+02 0.  0.
         12    1    1    2    0    0  0.43055305837E+02 -0.31699195406E+01 -0.44516333449E+01  0.43400746423E+02  0.00000000000E+00 0. -1.
         11    1    3    3    0    0 -0.14530006707E+02  0.63114460742E+01 -0.22295978907E+01  0.15997704631E+02  0.51100000000E-03 0. -1.
        -11    1    3    3    0    0 -0.60458636322E+01  0.28192623924E+00 -0.33712241907E+01  0.69279941013E+01  0.51100000000E-03 0.  1.
         12    1    3    3    0    0 -0.22479435498E+02 -0.34234527729E+01  0.10052455426E+02  0.24861554844E+02  0.00000000000E+00 0. -1.
</event>
<event>
 7    1  0.2318319E-009  0.4778727E+02  0.7816164E-02  0.1312668E+00
        -11   -1    0    0    0    0  0.00000000000E+00  0.00000000000E+00  0.45593999997E+02  0.45594000000E+02  0.51100000000E-03 0.  1.
         11   -1    0    0    0    0 -0.00000000000E+00 -0.00000000000E+00 -0.45593999997E+02  0.45594000000E+02  0.51100000000E-03 0. -1.
    9900012    2    1    2    0    0  0.30361352432E+02  0.14428527732E+02  0.27452307836E+02  0.47787270288E+02  0.19999996550E+02 0.  0.
         12    1    1    2    0    0 -0.30361352432E+02 -0.14428527732E+02 -0.27452307836E+02  0.43400729712E+02  0.00000000000E+00 0. -1.
         11    1    3    3    0    0  0.10793294415E+02 -0.25783992178E+01  0.78793796136E+01  0.13609848280E+02  0.51100000000E-03 0. -1.
        -11    1    3    3    0    0 -0.77529954639E+00  0.33147689320E+01  0.15269579647E+01  0.37310029947E+01  0.51100000000E-03 0.  1.
        -12    1    3    3    0    0  0.20343357563E+02  0.13692158018E+02  0.18045970258E+02  0.30446419013E+02  0.00000000000E+00 0.  1.
</event>
<event>
 7    1  0.2318319E-009  0.4778727E+02  0.7816164E-02  0.1312668E+00
        -11   -1    0    0    0    0  0.00000000000E+00  0.00000000000E+00  0.45593999997E+02  0.45594000000E+02  0.51100000000E-03 0.  1.
         11   -1    0    0    0    0 -0.00000000000E+00 -0.00000000000E+00 -0.45593999997E+02  0.45594000000E+02  0.51100000000E-03 0. -1.
    9900012    2    1    2    0    0  0.16261157163E+02 -0.32627720180E+02  0.23550582705E+02  0.47787270718E+02  0.19999998512E+02 0.  0.
         12    1    1    2    0    0 -0.16261157163E+02  0.32627720180E+02 -0.23550582705E+02  0.43400729282E+02  0.00000000000E+00 0. -1.
         11    1    3    3    0    0  0.11604905940E+01 -0.33175309264E+01  0.44803415225E+01  0.56944016618E+01  0.51100000000E-03 0.  1.
        -11    1    3    3    0    0  0.18277707323E+02 -0.18733784127E+02  0.15813695504E+02  0.30579441108E+02  0.51100000000E-03 0. -1.
         12    1    3    3    0    0 -0.31770407546E+01 -0.10576405127E+02  0.32565456789E+01  0.11513427949E+02  0.00000000000E+00 0. -1.
</event>
<event>
 7    1  0.2318319E-009  0.4778727E+02  0.7816164E-02  0.1312668E+00
        -11   -1    0    0    0    0  0.00000000000E+00  0.00000000000E+00  0.45593999997E+02  0.45594000000E+02  0.51100000000E-03 0. -1.
         11   -1    0    0    0    0 -0.00000000000E+00 -0.00000000000E+00 -0.45593999997E+02  0.45594000000E+02  0.51100000000E-03 0.  1.
    9900012    2    1    2    0    0 -0.24467470527E+02 -0.35474078865E+02 -0.51532314039E+01  0.47787272135E+02  0.20000004973E+02 0.  0.
         12    1    1    2    0    0  0.24467470527E+02  0.35474078865E+02  0.51532314039E+01  0.43400727865E+02  0.00000000000E+00 0. -1.
         11    1    3    3    0    0 -0.27210459187E+01 -0.12410736317E+01 -0.85402001141E+00  0.31102580427E+01  0.51100000000E-03 0. -1.
        -11    1    3    3    0    0 -0.13424096403E+02 -0.32555596293E+02 -0.12104081533E+00  0.35214881305E+02  0.51100000000E-03 0.  1.
         12    1    3    3    0    0 -0.83223282053E+01 -0.16774089403E+01 -0.41781705772E+01  0.94621327872E+01  0.00000000000E+00 0. -1.
</event>
<event>
 7    1  0.2318319E-009  0.4778727E+02  0.7816164E-02  0.1312668E+00
        -11   -1    0    0    0    0  0.00000000000E+00  0.00000000000E+00  0.45593999997E+02  0.45594000000E+02  0.51100000000E-03 0.  1.
         11   -1    0    0    0    0 -0.00000000000E+00 -0.00000000000E+00 -0.45593999997E+02  0.45594000000E+02  0.51100000000E-03 0. -1.
    9900012    2    1    2    0    0 -0.32082862771E+02  0.15440475584E+02  0.24817432500E+02  0.47787270447E+02  0.19999997276E+02 0.  0.
         12    1    1    2    0    0  0.32082862771E+02 -0.15440475584E+02 -0.24817432500E+02  0.43400729553E+02  0.00000000000E+00 0. -1.
         11    1    3    3    0    0 -0.41334456974E+01  0.21285264347E+01 -0.18248723053E+01  0.49946128287E+01  0.51100000000E-03 0. -1.
        -11    1    3    3    0    0 -0.14303508542E+01 -0.20755675673E+00  0.69576736059E+01  0.71062089500E+01  0.51100000000E-03 0.  1.
        -12    1    3    3    0    0 -0.26519066219E+02  0.13519505906E+02  0.19684631200E+02  0.35686448668E+02  0.00000000000E+00 0.  1.
</event>
<event>
 7    1  0.2318319E-009  0.4778727E+02  0.7816164E-02  0.1312668E+00
        -11   -1    0    0    0    0  0.00000000000E+00  0.00000000000E+00  0.45593999997E+02  0.45594000000E+02  0.51100000000E-03 0. -1.
         11   -1    0    0    0    0 -0.00000000000E+00 -0.00000000000E+00 -0.45593999997E+02  0.45594000000E+02  0.51100000000E-03 0.  1.
    9900012    2    1    2    0    0  0.13698064835E+02 -0.22750124865E+02 -0.34328099447E+02  0.47787267596E+02  0.19999984276E+02 0.  0.
         12    1    1    2    0    0 -0.13698064835E+02  0.22750124865E+02  0.34328099447E+02  0.43400732404E+02  0.00000000000E+00 0. -1.
         11    1    3    3    0    0 -0.10232679910E+01 -0.27179852116E+01 -0.10249574539E+02  0.10653088730E+02  0.51100000000E-03 0. -1.
        -11    1    3    3    0    0 -0.15473388703E+01 -0.75594395735E+01 -0.55847784375E+01  0.95251842346E+01  0.51100000000E-03 0.  1.
        -12    1    3    3    0    0  0.16268671697E+02 -0.12472700080E+02 -0.18493746470E+02  0.27608994631E+02  0.00000000000E+00 0.  1.
</event>
<event>
 7    1  0.2318319E-009  0.4778727E+02  0.7816164E-02  0.1312668E+00
        -11   -1    0    0    0    0  0.00000000000E+00  0.00000000000E+00  0.45593999997E+02  0.45594000000E+02  0.51100000000E-03 0.  1.
         11   -1    0    0    0    0 -0.00000000000E+00 -0.00000000000E+00 -0.45593999997E+02  0.45594000000E+02  0.51100000000E-03 0. -1.
    9900012    2    1    2    0    0  0.20540465933E+02 -0.24453933290E+02  0.29389071351E+02  0.47787272944E+02  0.20000008661E+02 0.  0.
         12    1    1    2    0    0 -0.20540465933E+02  0.24453933290E+02 -0.29389071351E+02  0.43400727056E+02  0.00000000000E+00 0. -1.
         11    1    3    3    0    0  0.94310468073E+00 -0.51405105460E+01  0.96665101861E+00  0.53149515111E+01  0.51100000000E-03 0. -1.
        -11    1    3    3    0    0  0.15072259041E+02 -0.21188154021E+02  0.26728196738E+02  0.37289507432E+02  0.51100000000E-03 0.  1.
        -12    1    3    3    0    0  0.45251022113E+01  0.18747312765E+01  0.16942235953E+01  0.51828140013E+01  0.00000000000E+00 0.  1.
</event>
<event>
 7    1  0.2318319E-009  0.4778728E+02  0.7816164E-02  0.1312668E+00
        -11   -1    0    0    0    0  0.00000000000E+00  0.00000000000E+00  0.45593999997E+02  0.45594000000E+02  0.51100000000E-03 0. -1.
         11   -1    0    0    0    0 -0.00000000000E+00 -0.00000000000E+00 -0.45593999997E+02  0.45594000000E+02  0.51100000000E-03 0.  1.
    9900012    2    1    2    0    0  0.25169188430E+02 -0.31504117259E+02  0.16050709303E+02  0.47787277430E+02  0.20000029114E+02 0.  0.
         12    1    1    2    0    0 -0.25169188430E+02  0.31504117259E+02 -0.16050709303E+02  0.43400722570E+02  0.00000000000E+00 0. -1.
         11    1    3    3    0    0 -0.11552667214E+01 -0.27303772534E+01 -0.20587607827E+00  0.29718658052E+01  0.51100000000E-03 0. -1.
        -11    1    3    3    0    0  0.12176386409E+02 -0.11470478959E+02 -0.72661018975E+00  0.16744080631E+02  0.51100000000E-03 0.  1.
        -12    1    3    3    0    0  0.14148068743E+02 -0.17303261046E+02  0.16983195571E+02  0.28071330994E+02  0.00000000000E+00 0.  1.
</event>
<event>
 7    1  0.2318319E-009  0.4778727E+02  0.7816164E-02  0.1312668E+00
        -11   -1    0    0    0    0  0.00000000000E+00  0.00000000000E+00  0.45593999997E+02  0.45594000000E+02  0.51100000000E-03 0.  1.
         11   -1    0    0    0    0 -0.00000000000E+00 -0.00000000000E+00 -0.45593999997E+02  0.45594000000E+02  0.51100000000E-03 0. -1.
    9900012    2    1    2    0    0 -0.55447506438E+01 -0.12399611476E+02  0.41220489526E+02  0.47787269808E+02  0.19999994362E+02 0.  0.
         12    1    1    2    0    0  0.55447506438E+01  0.12399611476E+02 -0.41220489526E+02  0.43400730192E+02  0.00000000000E+00 0. -1.
         11    1    3    3    0    0  0.30221938198E+01 -0.18825430651E+00  0.34535548678E+01  0.45930530864E+01  0.51100000000E-03 0. -1.
        -11    1    3    3    0    0  0.76846848406E+00 -0.61847748502E+01  0.27042297149E+02  0.27751176896E+02  0.51100000000E-03 0.  1.
         12    1    3    3    0    0 -0.93354129477E+01 -0.60265823194E+01  0.10724637509E+02  0.15443039826E+02  0.00000000000E+00 0. -1.
</event>
<event>
 7    1  0.2318319E-009  0.4778727E+02  0.7816164E-02  0.1312668E+00
        -11   -1    0    0    0    0  0.00000000000E+00  0.00000000000E+00  0.45593999997E+02  0.45594000000E+02  0.51100000000E-03 0. -1.
         11   -1    0    0    0    0 -0.00000000000E+00 -0.00000000000E+00 -0.45593999997E+02  0.45594000000E+02  0.51100000000E-03 0.  1.
    9900012    2    1    2    0    0 -0.22472444478E+02 -0.26468891567E+02 -0.26038634594E+02  0.47787268749E+02  0.19999989533E+02 0.  0.
         12    1    1    2    0    0  0.22472444478E+02  0.26468891567E+02  0.26038634594E+02  0.43400731251E+02  0.00000000000E+00 0. -1.
         11    1    3    3    0    0 -0.12276213557E+02 -0.13025016144E+02 -0.52150184486E+01  0.18642770248E+02  0.51100000000E-03 0. -1.
        -11    1    3    3    0    0 -0.10442159629E+02 -0.12735738537E+02 -0.12218556766E+02  0.20506849185E+02  0.51100000000E-03 0.  1.
        -12    1    3    3    0    0  0.24592870739E+00 -0.70813688636E+00 -0.86050593794E+01  0.86376493158E+01  0.00000000000E+00 0.  1.
</event>
<event>
 7    1  0.2318319E-009  0.4778727E+02  0.7816164E-02  0.1312668E+00
        -11   -1    0    0    0    0  0.00000000000E+00  0.00000000000E+00  0.45593999997E+02  0.45594000000E+02  0.51100000000E-03 0.  1.
         11   -1    0    0    0    0 -0.00000000000E+00 -0.00000000000E+00 -0.45593999997E+02  0.45594000000E+02  0.51100000000E-03 0. -1.
    9900012    2    1    2    0    0  0.41239616357E+02  0.11299681240E+02 -0.74320073823E+01  0.47787268587E+02  0.19999988797E+02 0.  0.
         12    1    1    2    0    0 -0.41239616357E+02 -0.11299681240E+02  0.74320073823E+01  0.43400731413E+02  0.00000000000E+00 0. -1.
         11    1    3    3    0    0  0.23519487742E+02  0.14571771848E+02 -0.97744677237E+01  0.29343535200E+02  0.51100000000E-03 0. -1.
        -11    1    3    3    0    0  0.14556437891E+02 -0.28305647592E+01  0.68483020908E+00  0.14844897224E+02  0.51100000000E-03 0.  1.
         12    1    3    3    0    0  0.31636907243E+01 -0.44152584943E+00  0.16576301323E+01  0.35988361633E+01  0.00000000000E+00 0. -1.
</event>
<event>
 7    1  0.2318319E-009  0.4778728E+02  0.7816164E-02  0.1312668E+00
        -11   -1    0    0    0    0  0.00000000000E+00  0.00000000000E+00  0.45593999997E+02  0.45594000000E+02  0.51100000000E-03 0. -1.
         11   -1    0    0    0    0 -0.00000000000E+00 -0.00000000000E+00 -0.45593999997E+02  0.45594000000E+02  0.51100000000E-03 0.  1.
    9900012    2    1    2    0    0  0.18190424583E+02 -0.38024083648E+02  0.10339264497E+02  0.47787275650E+02  0.20000020996E+02 0.  0.
         12    1    1    2    0    0 -0.18190424583E+02  0.38024083648E+02 -0.10339264497E+02  0.43400724350E+02  0.00000000000E+00 0. -1.
         11    1    3    3    0    0  0.58922773399E+01 -0.44506467223E+01 -0.74168522697E+00  0.74214072610E+01  0.51100000000E-03 0. -1.
        -11    1    3    3    0    0  0.11026741696E+01  0.33725618552E+00  0.37326444315E+01  0.39066951215E+01  0.51100000000E-03 0.  1.
        -12    1    3    3    0    0  0.11195473074E+02 -0.33910693111E+02  0.73483052927E+01  0.36459173267E+02  0.00000000000E+00 0.  1.
</event>
<event>
 7    1  0.2318319E-009  0.4778727E+02  0.7816164E-02  0.1312668E+00
        -11   -1    0    0    0    0  0.00000000000E+00  0.00000000000E+00  0.45593999997E+02  0.45594000000E+02  0.51100000000E-03 0. -1.
         11   -1    0    0    0    0 -0.00000000000E+00 -0.00000000000E+00 -0.45593999997E+02  0.45594000000E+02  0.51100000000E-03 0.  1.
    9900012    2    1    2    0    0  0.17890421247E+02  0.27425262088E+01 -0.39446602104E+02  0.47787273739E+02  0.20000012287E+02 0.  0.
         12    1    1    2    0    0 -0.17890421247E+02 -0.27425262088E+01  0.39446602104E+02  0.43400726261E+02  0.00000000000E+00 0. -1.
         11    1    3    3    0    0  0.93183686754E+00 -0.26757289929E+01 -0.12779223402E+02  0.13089552957E+02  0.51100000000E-03 0. -1.
        -11    1    3    3    0    0  0.13550432512E+02  0.74996184533E+00 -0.25373243463E+02  0.28774609435E+02  0.51100000000E-03 0.  1.
         12    1    3    3    0    0  0.34081518677E+01  0.46682933564E+01 -0.12941352386E+01  0.59231113472E+01  0.00000000000E+00 0. -1.
</event>
<event>
 7    1  0.2318319E-009  0.4778728E+02  0.7816164E-02  0.1312668E+00
        -11   -1    0    0    0    0  0.00000000000E+00  0.00000000000E+00  0.45593999997E+02  0.45594000000E+02  0.51100000000E-03 0.  1.
         11   -1    0    0    0    0 -0.00000000000E+00 -0.00000000000E+00 -0.45593999997E+02  0.45594000000E+02  0.51100000000E-03 0. -1.
    9900012    2    1    2    0    0  0.10176972352E+02  0.20214881458E+02  0.37032560908E+02  0.47787276896E+02  0.20000026679E+02 0.  0.
         12    1    1    2    0    0 -0.10176972352E+02 -0.20214881458E+02 -0.37032560908E+02  0.43400723104E+02  0.00000000000E+00 0. -1.
         11    1    3    3    0    0  0.13346880571E+01 -0.26363884693E+01  0.63062458410E+01  0.69642424741E+01  0.51100000000E-03 0. -1.
        -11    1    3    3    0    0 -0.24727037610E+01  0.28194917425E+01  0.57557930082E+01  0.68697125842E+01  0.51100000000E-03 0.  1.
        -12    1    3    3    0    0  0.11314988056E+02  0.20031778184E+02  0.24970522058E+02  0.33953321837E+02  0.00000000000E+00 0.  1.
</event>
<event>
 7    1  0.2318319E-009  0.4778728E+02  0.7816164E-02  0.1312668E+00
        -11   -1    0    0    0    0  0.00000000000E+00  0.00000000000E+00  0.45593999997E+02  0.45594000000E+02  0.51100000000E-03 0.  1.
         11   -1    0    0    0    0 -0.00000000000E+00 -0.00000000000E+00 -0.45593999997E+02  0.45594000000E+02  0.51100000000E-03 0. -1.
    9900012    2    1    2    0    0 -0.12114441311E+02 -0.13878187348E+02  0.39297055363E+02  0.47787281889E+02  0.20000049447E+02 0.  0.
         12    1    1    2    0    0  0.12114441311E+02  0.13878187348E+02 -0.39297055363E+02  0.43400718111E+02  0.00000000000E+00 0. -1.
         11    1    3    3    0    0 -0.70237525508E+01 -0.30282451321E+01  0.60684963449E+01  0.97637091632E+01  0.51100000000E-03 0. -1.
        -11    1    3    3    0    0 -0.58850521297E+01 -0.13465380457E+02  0.21925185647E+02  0.26394394771E+02  0.51100000000E-03 0.  1.
        -12    1    3    3    0    0  0.79436336976E+00  0.26154382409E+01  0.11303373370E+02  0.11629177955E+02  0.00000000000E+00 0.  1.
</event>
<event>
 7    1  0.2318319E-009  0.4778727E+02  0.7816164E-02  0.1312668E+00
        -11   -1    0    0    0    0  0.00000000000E+00  0.00000000000E+00  0.45593999997E+02  0.45594000000E+02  0.51100000000E-03 0. -1.
         11   -1    0    0    0    0 -0.00000000000E+00 -0.00000000000E+00 -0.45593999997E+02  0.45594000000E+02  0.51100000000E-03 0.  1.
    9900012    2    1    2    0    0  0.38230936747E+00  0.42299972718E+02  0.97051064918E+01  0.47787274840E+02  0.20000017308E+02 0.  0.
         12    1    1    2    0    0 -0.38230936747E+00 -0.42299972718E+02 -0.97051064918E+01  0.43400725160E+02  0.00000000000E+00 0. -1.
         11    1    3    3    0    0 -0.26517030644E+01  0.48480950475E+01  0.38233946079E+01  0.67196652684E+01  0.51100000000E-03 0. -1.
        -11    1    3    3    0    0  0.62519861515E+01  0.23621736365E+02  0.98160809437E+01  0.26333043976E+02  0.51100000000E-03 0.  1.
         12    1    3    3    0    0 -0.32179737197E+01  0.13830141306E+02 -0.39343690598E+01  0.14734565596E+02  0.00000000000E+00 0. -1.
</event>
<event>
 7    1  0.2318319E-009  0.4778727E+02  0.7816164E-02  0.1312668E+00
        -11   -1    0    0    0    0  0.00000000000E+00  0.00000000000E+00  0.45593999997E+02  0.45594000000E+02  0.51100000000E-03 0. -1.
         11   -1    0    0    0    0 -0.00000000000E+00 -0.00000000000E+00 -0.45593999997E+02  0.45594000000E+02  0.51100000000E-03 0.  1.
    9900012    2    1    2    0    0  0.20925252326E+02 -0.32138711006E+02 -0.20318969400E+02  0.47787269044E+02  0.19999990879E+02 0.  0.
         12    1    1    2    0    0 -0.20925252326E+02  0.32138711006E+02  0.20318969400E+02  0.43400730956E+02  0.00000000000E+00 0. -1.
         11    1    3    3    0    0  0.26807647384E+01  0.31330775293E-01 -0.49790998633E+01  0.56549904429E+01  0.51100000000E-03 0. -1.
        -11    1    3    3    0    0  0.98280930239E+01 -0.10063215074E+02 -0.11497810316E+02  0.18167535674E+02  0.51100000000E-03 0.  1.
         12    1    3    3    0    0  0.84163945637E+01 -0.22106826707E+02 -0.38420592200E+01  0.23964742927E+02  0.00000000000E+00 0. -1.
</event>
<event>
 7    1  0.2318319E-009  0.4778727E+02  0.7816164E-02  0.1312668E+00
        -11   -1    0    0    0    0  0.00000000000E+00  0.00000000000E+00  0.45593999997E+02  0.45594000000E+02  0.51100000000E-03 0.  1.
         11   -1    0    0    0    0 -0.00000000000E+00 -0.00000000000E+00 -0.45593999997E+02  0.45594000000E+02  0.51100000000E-03 0. -1.
    9900012    2    1    2    0    0  0.37695429051E+02 -0.84677526607E+01  0.19773091172E+02  0.47787270272E+02  0.19999996478E+02 0.  0.
         12    1    1    2    0    0 -0.37695429051E+02  0.84677526607E+01 -0.19773091172E+02  0.43400729728E+02  0.00000000000E+00 0. -1.
         11    1    3    3    0    0  0.15022543697E+00  0.55688633994E+00  0.21262434637E+01  0.22030891052E+01  0.51100000000E-03 0. -1.
        -11    1    3    3    0    0  0.18173951425E+02 -0.51340264802E+01  0.17616322648E+02  0.25826063622E+02  0.51100000000E-03 0.  1.
         12    1    3    3    0    0  0.19371252188E+02 -0.38906125205E+01  0.30525060147E-01  0.19758117545E+02  0.00000000000E+00 0. -1.
</event>
<event>
 7    1  0.2318319E-009  0.4778727E+02  0.7816164E-02  0.1312668E+00
        -11   -1    0    0    0    0  0.00000000000E+00  0.00000000000E+00  0.45593999997E+02  0.45594000000E+02  0.51100000000E-03 0.  1.
         11   -1    0    0    0    0 -0.00000000000E+00 -0.00000000000E+00 -0.45593999997E+02  0.45594000000E+02  0.51100000000E-03 0. -1.
    9900012    2    1    2    0    0 -0.91338573306E+01 -0.19239005527E+02  0.37816089654E+02  0.47787270511E+02  0.19999997569E+02 0.  0.
         12    1    1    2    0    0  0.91338573306E+01  0.19239005527E+02 -0.37816089654E+02  0.43400729489E+02  0.00000000000E+00 0. -1.
         11    1    3    3    0    0 -0.15347750452E+01 -0.11275115352E+01 -0.71830992246E+00  0.20353835283E+01  0.51100000000E-03 0. -1.
        -11    1    3    3    0    0 -0.10369551626E+02 -0.14289051264E+02  0.20239964293E+02  0.26858159687E+02  0.51100000000E-03 0.  1.
        -12    1    3    3    0    0  0.27704693403E+01 -0.38224427279E+01  0.18294435284E+02  0.18893727296E+02  0.00000000000E+00 0.  1.
</event>
<event>
 7    1  0.2428715E-009  0.4778727E+02  0.7816164E-02  0.1312668E+00
        -11   -1    0    0    0    0  0.00000000000E+00  0.00000000000E+00  0.45593999997E+02  0.45594000000E+02  0.51100000000E-03 0.  1.
         11   -1    0    0    0    0 -0.00000000000E+00 -0.00000000000E+00 -0.45593999997E+02  0.45594000000E+02  0.51100000000E-03 0. -1.
    9900012    2    1    2    0    0  0.22478388875E+02  0.32801670365E+02  0.17389529366E+02  0.47787271011E+02  0.19999999849E+02 0.  0.
         12    1    1    2    0    0 -0.22478388875E+02 -0.32801670365E+02 -0.17389529366E+02  0.43400728989E+02  0.00000000000E+00 0. -1.
         11    1    3    3    0    0  0.10327504792E+02  0.14052137128E+02  0.14723574508E+01  0.17501078533E+02  0.51100000000E-03 0. -1.
        -11    1    3    3    0    0  0.13817481252E+02  0.14961931283E+02  0.90896564689E+01  0.22302556599E+02  0.51100000000E-03 0.  1.
         12    1    3    3    0    0 -0.16665971684E+01  0.37876019539E+01  0.68275154461E+01  0.79836358791E+01  0.00000000000E+00 0. -1.
</event>
<event>
 7    1  0.2318319E-009  0.4778727E+02  0.7816164E-02  0.1312668E+00
        -11   -1    0    0    0    0  0.00000000000E+00  0.00000000000E+00  0.45593999997E+02  0.45594000000E+02  0.51100000000E-03 0.  1.
         11   -1    0    0    0    0 -0.00000000000E+00 -0.00000000000E+00 -0.45593999997E+02  0.45594000000E+02  0.51100000000E-03 0. -1.
    9900012    2    1    2    0    0  0.24893240052E+02  0.13568884335E+02  0.32860847607E+02  0.47787270423E+02  0.19999997169E+02 0.  0.
         12    1    1    2    0    0 -0.24893240052E+02 -0.13568884335E+02 -0.32860847607E+02  0.43400729577E+02  0.00000000000E+00 0. -1.
         11    1    3    3    0    0  0.23232611763E+00 -0.59957049563E+00 -0.15496431841E+01  0.16777528016E+01  0.51100000000E-03 0. -1.
        -11    1    3    3    0    0  0.91409239668E+01 -0.16384614349E+00  0.14097590752E+02  0.16802541528E+02  0.51100000000E-03 0.  1.
        -12    1    3    3    0    0  0.15519989967E+02  0.14332300974E+02  0.20312900039E+02  0.29306976094E+02  0.00000000000E+00 0.  1.
</event>
<event>
 7    1  0.2318319E-009  0.4778727E+02  0.7816164E-02  0.1312668E+00
        -11   -1    0    0    0    0  0.00000000000E+00  0.00000000000E+00  0.45593999997E+02  0.45594000000E+02  0.51100000000E-03 0. -1.
         11   -1    0    0    0    0 -0.00000000000E+00 -0.00000000000E+00 -0.45593999997E+02  0.45594000000E+02  0.51100000000E-03 0.  1.
    9900012    2    1    2    0    0  0.89295786251E+01 -0.41875691299E+02 -0.70931393529E+01  0.47787268185E+02  0.19999986964E+02 0.  0.
         12    1    1    2    0    0 -0.89295786251E+01  0.41875691299E+02  0.70931393529E+01  0.43400731815E+02  0.00000000000E+00 0. -1.
         11    1    3    3    0    0  0.55038290049E+01 -0.10031822844E+02 -0.54685347799E+01  0.12682053311E+02  0.51100000000E-03 0. -1.
        -11    1    3    3    0    0 -0.43358089585E+01 -0.15356117387E+02 -0.46775950817E+01  0.16627972713E+02  0.51100000000E-03 0.  1.
         12    1    3    3    0    0  0.77615585786E+01 -0.16487751068E+02  0.30529905087E+01  0.18477242161E+02  0.00000000000E+00 0. -1.
</event>
<event>
 7    1  0.2318319E-009  0.4778729E+02  0.7816164E-02  0.1312668E+00
        -11   -1    0    0    0    0  0.00000000000E+00  0.00000000000E+00  0.45593999997E+02  0.45594000000E+02  0.51100000000E-03 0.  1.
         11   -1    0    0    0    0 -0.00000000000E+00 -0.00000000000E+00 -0.45593999997E+02  0.45594000000E+02  0.51100000000E-03 0. -1.
    9900012    2    1    2    0    0 -0.18781906796E+02  0.18400796501E+02  0.34529295402E+02  0.47787290608E+02  0.20000089199E+02 0.  0.
         12    1    1    2    0    0  0.18781906796E+02 -0.18400796501E+02 -0.34529295402E+02  0.43400709392E+02  0.00000000000E+00 0. -1.
         11    1    3    3    0    0 -0.59437699134E+00 -0.19574713284E+01  0.12172827649E+01  0.23804948226E+01  0.51100000000E-03 0. -1.
        -11    1    3    3    0    0 -0.32865671227E+00  0.98284398055E+01  0.13733497340E+02  0.16891275668E+02  0.51100000000E-03 0.  1.
         12    1    3    3    0    0 -0.17858873093E+02  0.10529828024E+02  0.19578515297E+02  0.28515520118E+02  0.00000000000E+00 0. -1.
</event>
<event>
 7    1  0.2318319E-009  0.4778727E+02  0.7816164E-02  0.1312668E+00
        -11   -1    0    0    0    0  0.00000000000E+00  0.00000000000E+00  0.45593999997E+02  0.45594000000E+02  0.51100000000E-03 0.  1.
         11   -1    0    0    0    0 -0.00000000000E+00 -0.00000000000E+00 -0.45593999997E+02  0.45594000000E+02  0.51100000000E-03 0. -1.
    9900012    2    1    2    0    0  0.10087370341E+01 -0.14201311672E+02  0.40999123722E+02  0.47787274781E+02  0.20000017036E+02 0.  0.
         12    1    1    2    0    0 -0.10087370341E+01  0.14201311672E+02 -0.40999123722E+02  0.43400725219E+02  0.00000000000E+00 0. -1.
         11    1    3    3    0    0 -0.15174948713E+01 -0.22125695304E+01  0.42439186217E+01  0.50208664730E+01  0.51100000000E-03 0. -1.
        -11    1    3    3    0    0 -0.58159178739E+01 -0.99756370360E+01  0.12402009234E+02  0.16945443880E+02  0.51100000000E-03 0.  1.
         12    1    3    3    0    0  0.83421497792E+01 -0.20131051058E+01  0.24353195866E+02  0.25820964428E+02  0.00000000000E+00 0. -1.
</event>
<event>
 7    1  0.2318319E-009  0.4778727E+02  0.7816164E-02  0.1312668E+00
        -11   -1    0    0    0    0  0.00000000000E+00  0.00000000000E+00  0.45593999997E+02  0.45594000000E+02  0.51100000000E-03 0.  1.
         11   -1    0    0    0    0 -0.00000000000E+00 -0.00000000000E+00 -0.45593999997E+02  0.45594000000E+02  0.51100000000E-03 0. -1.
    9900012    2    1    2    0    0  0.66899144104E+01  0.13000184955E+02  0.40863963567E+02  0.47787270950E+02  0.19999999568E+02 0.  0.
         12    1    1    2    0    0 -0.66899144104E+01 -0.13000184955E+02 -0.40863963567E+02  0.43400729050E+02  0.00000000000E+00 0. -1.
         11    1    3    3    0    0  0.51477510191E+01 -0.42795455539E+01  0.12580295553E+02  0.14250532873E+02  0.51100000000E-03 0. -1.
        -11    1    3    3    0    0 -0.10025759543E+01  0.71095416624E+00  0.14920756226E+01  0.19331074195E+01  0.51100000000E-03 0.  1.
        -12    1    3    3    0    0  0.25447393457E+01  0.16568776343E+02  0.26791592391E+02  0.31603630657E+02  0.00000000000E+00 0.  1.
</event>
<event>
 7    1  0.2318319E-009  0.4778725E+02  0.7816164E-02  0.1312668E+00
        -11   -1    0    0    0    0  0.00000000000E+00  0.00000000000E+00  0.45593999997E+02  0.45594000000E+02  0.51100000000E-03 0. -1.
         11   -1    0    0    0    0 -0.00000000000E+00 -0.00000000000E+00 -0.45593999997E+02  0.45594000000E+02  0.51100000000E-03 0.  1.
    9900012    2    1    2    0    0 -0.15661499643E+02  0.31747999411E+01 -0.40351739080E+02  0.47787253779E+02  0.19999921280E+02 0.  0.
         12    1    1    2    0    0  0.15661499643E+02 -0.31747999411E+01  0.40351739080E+02  0.43400746221E+02  0.00000000000E+00 0. -1.
         11    1    3    3    0    0 -0.57785550307E+01  0.22850669534E+01 -0.24618059516E+01  0.66838400661E+01  0.51100000000E-03 0. -1.
        -11    1    3    3    0    0 -0.70320886130E+01  0.65213267453E+01 -0.24067239163E+02  0.25907720354E+02  0.51100000000E-03 0.  1.
        -12    1    3    3    0    0 -0.28508559996E+01 -0.56315937576E+01 -0.13822693966E+02  0.15195693359E+02  0.00000000000E+00 0.  1.
</event>
<event>
 7    1  0.2318319E-009  0.4778727E+02  0.7816164E-02  0.1312668E+00
        -11   -1    0    0    0    0  0.00000000000E+00  0.00000000000E+00  0.45593999997E+02  0.45594000000E+02  0.51100000000E-03 0.  1.
         11   -1    0    0    0    0 -0.00000000000E+00 -0.00000000000E+00 -0.45593999997E+02  0.45594000000E+02  0.51100000000E-03 0. -1.
    9900012    2    1    2    0    0  0.26777175685E+02 -0.32903591536E+02 -0.91629655863E+01  0.47787269454E+02  0.19999992748E+02 0.  0.
         12    1    1    2    0    0 -0.26777175685E+02  0.32903591536E+02  0.91629655863E+01  0.43400730546E+02  0.00000000000E+00 0. -1.
         11    1    3    3    0    0  0.66353187148E+01 -0.13659281621E+02 -0.83094933767E+01  0.17310433539E+02  0.51100000000E-03 0. -1.
        -11    1    3    3    0    0  0.14484908085E+02 -0.87067143195E+01 -0.53079422403E+01  0.17714222748E+02  0.51100000000E-03 0.  1.
        -12    1    3    3    0    0  0.56569488847E+01 -0.10537595595E+02  0.44544700306E+01  0.12762613167E+02  0.00000000000E+00 0.  1.
</event>
<event>
 7    1  0.2318319E-009  0.4778726E+02  0.7816164E-02  0.1312668E+00
        -11   -1    0    0    0    0  0.00000000000E+00  0.00000000000E+00  0.45593999997E+02  0.45594000000E+02  0.51100000000E-03 0. -1.
         11   -1    0    0    0    0 -0.00000000000E+00 -0.00000000000E+00 -0.45593999997E+02  0.45594000000E+02  0.51100000000E-03 0.  1.
    9900012    2    1    2    0    0 -0.20702581833E+02 -0.26047371195E+02 -0.27866851268E+02  0.47787264519E+02  0.19999970246E+02 0.  0.
         12    1    1    2    0    0  0.20702581833E+02  0.26047371195E+02  0.27866851268E+02  0.43400735481E+02  0.00000000000E+00 0. -1.
         11    1    3    3    0    0 -0.21306385898E+01 -0.72397544123E+01 -0.56904877671E+01  0.94517361390E+01  0.51100000000E-03 0. -1.
        -11    1    3    3    0    0 -0.12891559278E+02 -0.21017741080E+02 -0.14763117032E+02  0.28738256131E+02  0.51100000000E-03 0.  1.
         12    1    3    3    0    0 -0.56803839657E+01  0.22101242965E+01 -0.74132464690E+01  0.95972722486E+01  0.00000000000E+00 0. -1.
</event>
<event>
 7    1  0.2318319E-009  0.4778727E+02  0.7816164E-02  0.1312668E+00
        -11   -1    0    0    0    0  0.00000000000E+00  0.00000000000E+00  0.45593999997E+02  0.45594000000E+02  0.51100000000E-03 0. -1.
         11   -1    0    0    0    0 -0.00000000000E+00 -0.00000000000E+00 -0.45593999997E+02  0.45594000000E+02  0.51100000000E-03 0.  1.
    9900012    2    1    2    0    0 -0.67361941694E+01  0.93153713146E+01 -0.41850576684E+02  0.47787271626E+02  0.20000002650E+02 0.  0.
         12    1    1    2    0    0  0.67361941694E+01 -0.93153713146E+01  0.41850576684E+02  0.43400728374E+02  0.00000000000E+00 0. -1.
         11    1    3    3    0    0 -0.19139517609E+01  0.68551691639E+01 -0.35451206602E+01  0.79513795259E+01  0.51100000000E-03 0. -1.
        -11    1    3    3    0    0  0.17240387166E+01  0.37922864350E+01 -0.12309500348E+02  0.12995289338E+02  0.51100000000E-03 0.  1.
        -12    1    3    3    0    0 -0.65462811252E+01 -0.13320842843E+01 -0.25995955676E+02  0.26840602762E+02  0.00000000000E+00 0.  1.
</event>
<event>
 7    1  0.2318319E-009  0.4778727E+02  0.7816164E-02  0.1312668E+00
        -11   -1    0    0    0    0  0.00000000000E+00  0.00000000000E+00  0.45593999997E+02  0.45594000000E+02  0.51100000000E-03 0. -1.
         11   -1    0    0    0    0 -0.00000000000E+00 -0.00000000000E+00 -0.45593999997E+02  0.45594000000E+02  0.51100000000E-03 0.  1.
    9900012    2    1    2    0    0 -0.41680228588E+02  0.93485010077E+01 -0.76803250353E+01  0.47787270526E+02  0.19999997635E+02 0.  0.
         12    1    1    2    0    0  0.41680228588E+02 -0.93485010077E+01  0.76803250353E+01  0.43400729474E+02  0.00000000000E+00 0. -1.
         11    1    3    3    0    0 -0.17042068384E+02  0.59973203798E+00 -0.11417193093E+02  0.20521795042E+02  0.51100000000E-03 0. -1.
        -11    1    3    3    0    0 -0.12179580946E+02  0.49711427467E+01 -0.14849688059E+01  0.13238564304E+02  0.51100000000E-03 0.  1.
         12    1    3    3    0    0 -0.12458579258E+02  0.37776262231E+01  0.52218368640E+01  0.14026911180E+02  0.00000000000E+00 0. -1.
</event>
<event>
 7    1  0.2318319E-009  0.4778727E+02  0.7816164E-02  0.1312668E+00
        -11   -1    0    0    0    0  0.00000000000E+00  0.00000000000E+00  0.45593999997E+02  0.45594000000E+02  0.51100000000E-03 0. -1.
         11   -1    0    0    0    0 -0.00000000000E+00 -0.00000000000E+00 -0.45593999997E+02  0.45594000000E+02  0.51100000000E-03 0.  1.
    9900012    2    1    2    0    0 -0.10990112821E+02  0.36765831725E+02 -0.20275950087E+02  0.47787272884E+02  0.20000008389E+02 0.  0.
         12    1    1    2    0    0  0.10990112821E+02 -0.36765831725E+02  0.20275950087E+02  0.43400727116E+02  0.00000000000E+00 0. -1.
         11    1    3    3    0    0  0.39432917656E+00  0.82219376156E+01 -0.12056168266E+02  0.14598183009E+02  0.51100000000E-03 0. -1.
        -11    1    3    3    0    0 -0.39098552336E+00  0.53863217142E+00  0.14435100804E+01  0.15895646916E+01  0.51100000000E-03 0.  1.
        -12    1    3    3    0    0 -0.10993456474E+02  0.28005261938E+02 -0.96632919014E+01  0.31599525184E+02  0.00000000000E+00 0.  1.
</event>
<event>
 7    1  0.2318319E-009  0.4778727E+02  0.7816164E-02  0.1312668E+00
        -11   -1    0    0    0    0  0.00000000000E+00  0.00000000000E+00  0.45593999997E+02  0.45594000000E+02  0.51100000000E-03 0.  1.
         11   -1    0    0    0    0 -0.00000000000E+00 -0.00000000000E+00 -0.45593999997E+02  0.45594000000E+02  0.51100000000E-03 0. -1.
    9900012    2    1    2    0    0 -0.24012354491E+02 -0.19152426879E+02  0.30662915723E+02  0.47787273921E+02  0.20000013114E+02 0.  0.
         12    1    1    2    0    0  0.24012354491E+02  0.19152426879E+02 -0.30662915723E+02  0.43400726079E+02  0.00000000000E+00 0. -1.
         11    1    3    3    0    0 -0.17070835053E+02 -0.21083528789E+01  0.12949569805E+02  0.21530209467E+02  0.51100000000E-03 0. -1.
        -11    1    3    3    0    0 -0.18182928092E+01 -0.29944598691E+01  0.71056784959E+01  0.79223510271E+01  0.51100000000E-03 0.  1.
         12    1    3    3    0    0 -0.51232266289E+01 -0.14049614131E+02  0.10607667422E+02  0.18334713427E+02  0.00000000000E+00 0. -1.
</event>
<event>
 7    1  0.2318319E-009  0.4778726E+02  0.7816164E-02  0.1312668E+00
        -11   -1    0    0    0    0  0.00000000000E+00  0.00000000000E+00  0.45593999997E+02  0.45594000000E+02  0.51100000000E-03 0. -1.
         11   -1    0    0    0    0 -0.00000000000E+00 -0.00000000000E+00 -0.45593999997E+02  0.45594000000E+02  0.51100000000E-03 0.  1.
    9900012    2    1    2    0    0  0.22536232464E+02 -0.34152603080E+02  0.14468648571E+02  0.47787264265E+02  0.19999969092E+02 0.  0.
         12    1    1    2    0    0 -0.22536232464E+02  0.34152603080E+02 -0.14468648571E+02  0.43400735735E+02  0.00000000000E+00 0. -1.
         11    1    3    3    0    0  0.14584981076E+02 -0.10412407826E+02  0.71333146965E+01  0.19287925979E+02  0.51100000000E-03 0. -1.
        -11    1    3    3    0    0  0.10628089260E+02 -0.19374872749E+02  0.41970855572E+01  0.22493499123E+02  0.51100000000E-03 0.  1.
        -12    1    3    3    0    0 -0.26768378719E+01 -0.43653225050E+01  0.31382483168E+01  0.60058391639E+01  0.00000000000E+00 0.  1.
</event>
<event>
 7    1  0.2318319E-009  0.4778732E+02  0.7816164E-02  0.1312668E+00
        -11   -1    0    0    0    0  0.00000000000E+00  0.00000000000E+00  0.45593999997E+02  0.45594000000E+02  0.51100000000E-03 0.  1.
         11   -1    0    0    0    0 -0.00000000000E+00 -0.00000000000E+00 -0.45593999997E+02  0.45594000000E+02  0.51100000000E-03 0. -1.
    9900012    2    1    2    0    0  0.31094482727E+02 -0.23017423246E+02  0.19671062447E+02  0.47787316518E+02  0.20000207330E+02 0.  0.
         12    1    1    2    0    0 -0.31094482727E+02  0.23017423246E+02 -0.19671062447E+02  0.43400683482E+02  0.00000000000E+00 0. -1.
         11    1    3    3    0    0  0.33780575930E+01 -0.11120376313E+02  0.11167067708E+02  0.16117612847E+02  0.51100000000E-03 0. -1.
        -11    1    3    3    0    0  0.10106277777E+02 -0.62738634028E+01  0.47361376233E+01  0.12803484383E+02  0.51100000000E-03 0.  1.
         12    1    3    3    0    0  0.17610147357E+02 -0.56231835299E+01  0.37678571157E+01  0.18866219287E+02  0.00000000000E+00 0. -1.
</event>
<event>
 7    1  0.2318319E-009  0.4778726E+02  0.7816164E-02  0.1312668E+00
        -11   -1    0    0    0    0  0.00000000000E+00  0.00000000000E+00  0.45593999997E+02  0.45594000000E+02  0.51100000000E-03 0.  1.
         11   -1    0    0    0    0 -0.00000000000E+00 -0.00000000000E+00 -0.45593999997E+02  0.45594000000E+02  0.51100000000E-03 0. -1.
    9900012    2    1    2    0    0  0.34510563944E+02 -0.16966042688E+02  0.20119612669E+02  0.47787257585E+02  0.19999938632E+02 0.  0.
         12    1    1    2    0    0 -0.34510563944E+02  0.16966042688E+02 -0.20119612669E+02  0.43400742415E+02  0.00000000000E+00 0. -1.
         11    1    3    3    0    0  0.23207814472E+02 -0.64586883225E+01  0.94775892463E+01  0.25887101143E+02  0.51100000000E-03 0. -1.
        -11    1    3    3    0    0  0.85031424568E+01 -0.16011578942E+01  0.88819410809E+01  0.12399839348E+02  0.51100000000E-03 0.  1.
        -12    1    3    3    0    0  0.27996070159E+01 -0.89061964711E+01  0.17600823420E+01  0.95003170935E+01  0.00000000000E+00 0.  1.
</event>
<event>
 7    1  0.2318319E-009  0.4778727E+02  0.7816164E-02  0.1312668E+00
        -11   -1    0    0    0    0  0.00000000000E+00  0.00000000000E+00  0.45593999997E+02  0.45594000000E+02  0.51100000000E-03 0.  1.
         11   -1    0    0    0    0 -0.00000000000E+00 -0.00000000000E+00 -0.45593999997E+02  0.45594000000E+02  0.51100000000E-03 0. -1.
    9900012    2    1    2    0    0 -0.92415636277E+01 -0.28612073810E+02  0.31298018191E+02  0.47787271795E+02  0.20000003422E+02 0.  0.
         12    1    1    2    0    0  0.92415636277E+01  0.28612073810E+02 -0.31298018191E+02  0.43400728205E+02  0.00000000000E+00 0. -1.
         11    1    3    3    0    0 -0.12287328038E+02 -0.24907216227E+02  0.22515579925E+02  0.35753310198E+02  0.51100000000E-03 0.  1.
        -11    1    3    3    0    0 -0.17205743020E+01  0.26041150358E+00  0.34171096212E+01  0.38346875368E+01  0.51100000000E-03 0. -1.
         12    1    3    3    0    0  0.47663387120E+01 -0.39652690871E+01  0.53653286447E+01  0.81992740603E+01  0.00000000000E+00 0. -1.
</event>
<event>
 7    1  0.2318319E-009  0.4778728E+02  0.7816164E-02  0.1312668E+00
        -11   -1    0    0    0    0  0.00000000000E+00  0.00000000000E+00  0.45593999997E+02  0.45594000000E+02  0.51100000000E-03 0. -1.
         11   -1    0    0    0    0 -0.00000000000E+00 -0.00000000000E+00 -0.45593999997E+02  0.45594000000E+02  0.51100000000E-03 0.  1.
    9900012    2    1    2    0    0 -0.35629040666E+02 -0.51107994723E+01 -0.24250228157E+02  0.47787281392E+02  0.20000047180E+02 0.  0.
         12    1    1    2    0    0  0.35629040666E+02  0.51107994723E+01  0.24250228157E+02  0.43400718608E+02  0.00000000000E+00 0. -1.
         11    1    3    3    0    0 -0.39746398613E+01  0.19122566828E+01 -0.46073747201E+01  0.63782748232E+01  0.51100000000E-03 0. -1.
        -11    1    3    3    0    0 -0.10622943473E+02 -0.88789725120E+01 -0.13695082905E+02  0.19474043672E+02  0.51100000000E-03 0.  1.
        -12    1    3    3    0    0 -0.21031457331E+02  0.18559163570E+01 -0.59477705322E+01  0.21934962897E+02  0.00000000000E+00 0.  1.
</event>
<event>
 7    1  0.2318319E-009  0.4778727E+02  0.7816164E-02  0.1312668E+00
        -11   -1    0    0    0    0  0.00000000000E+00  0.00000000000E+00  0.45593999997E+02  0.45594000000E+02  0.51100000000E-03 0.  1.
         11   -1    0    0    0    0 -0.00000000000E+00 -0.00000000000E+00 -0.45593999997E+02  0.45594000000E+02  0.51100000000E-03 0. -1.
    9900012    2    1    2    0    0  0.25193427956E+02 -0.20481486830E+02  0.28799702885E+02  0.47787274186E+02  0.20000014323E+02 0.  0.
         12    1    1    2    0    0 -0.25193427956E+02  0.20481486830E+02 -0.28799702885E+02  0.43400725814E+02  0.00000000000E+00 0. -1.
         11    1    3    3    0    0 -0.30870386743E+00 -0.27975877140E+01  0.13932208396E+01  0.31405190120E+01  0.51100000000E-03 0. -1.
        -11    1    3    3    0    0  0.66248155460E+01 -0.12807473115E+02  0.17811826351E+02  0.22916821482E+02  0.51100000000E-03 0.  1.
         12    1    3    3    0    0  0.18877316277E+02 -0.48764260015E+01  0.95946556940E+01  0.21729933692E+02  0.00000000000E+00 0. -1.
</event>
<event>
 7    1  0.2318319E-009  0.4778727E+02  0.7816164E-02  0.1312668E+00
        -11   -1    0    0    0    0  0.00000000000E+00  0.00000000000E+00  0.45593999997E+02  0.45594000000E+02  0.51100000000E-03 0.  1.
         11   -1    0    0    0    0 -0.00000000000E+00 -0.00000000000E+00 -0.45593999997E+02  0.45594000000E+02  0.51100000000E-03 0. -1.
    9900012    2    1    2    0    0 -0.25761256025E+02  0.21596967144E+01  0.34861392839E+02  0.47787270599E+02  0.19999997968E+02 0.  0.
         12    1    1    2    0    0  0.25761256025E+02 -0.21596967144E+01 -0.34861392839E+02  0.43400729401E+02  0.00000000000E+00 0. -1.
         11    1    3    3    0    0 -0.97957752570E+01  0.43838515306E+01  0.49684973507E+01  0.11826298377E+02  0.51100000000E-03 0. -1.
        -11    1    3    3    0    0 -0.26037668340E+01  0.36208621910E+01  0.30216743736E+01  0.53870920739E+01  0.51100000000E-03 0.  1.
        -12    1    3    3    0    0 -0.13361713934E+02 -0.58450170072E+01  0.26871221115E+02  0.30573880147E+02  0.00000000000E+00 0.  1.
</event>
<event>
 7    1  0.2318319E-009  0.4778727E+02  0.7816164E-02  0.1312668E+00
        -11   -1    0    0    0    0  0.00000000000E+00  0.00000000000E+00  0.45593999997E+02  0.45594000000E+02  0.51100000000E-03 0. -1.
         11   -1    0    0    0    0 -0.00000000000E+00 -0.00000000000E+00 -0.45593999997E+02  0.45594000000E+02  0.51100000000E-03 0.  1.
    9900012    2    1    2    0    0 -0.75416794088E+01  0.42548096400E+02  0.40504515325E+01  0.47787267365E+02  0.19999983226E+02 0.  0.
         12    1    1    2    0    0  0.75416794088E+01 -0.42548096400E+02 -0.40504515325E+01  0.43400732635E+02  0.00000000000E+00 0. -1.
         11    1    3    3    0    0  0.33357568873E+01  0.11553199494E+02  0.51439546220E+01  0.13079142249E+02  0.51100000000E-03 0. -1.
        -11    1    3    3    0    0  0.12550109185E+01  0.12381230135E+02 -0.10575155933E+01  0.12489525674E+02  0.51100000000E-03 0.  1.
        -12    1    3    3    0    0 -0.12132447215E+02  0.18613666771E+02 -0.35987496231E-01  0.22218599443E+02  0.00000000000E+00 0.  1.
</event>
<event>
 7    1  0.2318319E-009  0.4778728E+02  0.7816164E-02  0.1312668E+00
        -11   -1    0    0    0    0  0.00000000000E+00  0.00000000000E+00  0.45593999997E+02  0.45594000000E+02  0.51100000000E-03 0.  1.
         11   -1    0    0    0    0 -0.00000000000E+00 -0.00000000000E+00 -0.45593999997E+02  0.45594000000E+02  0.51100000000E-03 0. -1.
    9900012    2    1    2    0    0  0.29585196966E+02 -0.15860262751E+02  0.27509831761E+02  0.47787278145E+02  0.20000032372E+02 0.  0.
         12    1    1    2    0    0 -0.29585196966E+02  0.15860262751E+02 -0.27509831761E+02  0.43400721855E+02  0.00000000000E+00 0. -1.
         11    1    3    3    0    0  0.12159084933E+02 -0.36990706631E+01  0.18958803076E+02  0.22824606996E+02  0.51100000000E-03 0. -1.
        -11    1    3    3    0    0  0.75205867246E+01 -0.49774416943E+00  0.55724828965E+01  0.93733419778E+01  0.51100000000E-03 0.  1.
        -12    1    3    3    0    0  0.99055253083E+01 -0.11663447919E+02  0.29785457885E+01  0.15589329171E+02  0.00000000000E+00 0.  1.
</event>
<event>
 7    1  0.2318319E-009  0.4778727E+02  0.7816164E-02  0.1312668E+00
        -11   -1    0    0    0    0  0.00000000000E+00  0.00000000000E+00  0.45593999997E+02  0.45594000000E+02  0.51100000000E-03 0.  1.
         11   -1    0    0    0    0 -0.00000000000E+00 -0.00000000000E+00 -0.45593999997E+02  0.45594000000E+02  0.51100000000E-03 0. -1.
    9900012    2    1    2    0    0  0.36522111234E+02 -0.18840039075E+02  0.13957489775E+02  0.47787271871E+02  0.20000003767E+02 0.  0.
         12    1    1    2    0    0 -0.36522111234E+02  0.18840039075E+02 -0.13957489775E+02  0.43400728129E+02  0.00000000000E+00 0. -1.
         11    1    3    3    0    0  0.10793960163E+01 -0.37971697048E+00 -0.11481403313E+01  0.16209587346E+01  0.51100000000E-03 0. -1.
        -11    1    3    3    0    0  0.32953080082E+02 -0.19862031175E+02  0.91324757940E+01  0.39545010857E+02  0.51100000000E-03 0.  1.
        -12    1    3    3    0    0  0.24896351351E+01  0.14017090703E+01  0.59731543128E+01  0.66213022789E+01  0.00000000000E+00 0.  1.
</event>
<event>
 7    1  0.2318319E-009  0.4778727E+02  0.7816164E-02  0.1312668E+00
        -11   -1    0    0    0    0  0.00000000000E+00  0.00000000000E+00  0.45593999997E+02  0.45594000000E+02  0.51100000000E-03 0.  1.
         11   -1    0    0    0    0 -0.00000000000E+00 -0.00000000000E+00 -0.45593999997E+02  0.45594000000E+02  0.51100000000E-03 0. -1.
    9900012    2    1    2    0    0 -0.16078620387E+00  0.31321409005E+02  0.30042749170E+02  0.47787270836E+02  0.19999999051E+02 0.  0.
         12    1    1    2    0    0  0.16078620387E+00 -0.31321409005E+02 -0.30042749170E+02  0.43400729164E+02  0.00000000000E+00 0. -1.
         11    1    3    3    0    0  0.36156206856E+01  0.11982854315E+02  0.18466465517E+02  0.22308560227E+02  0.51100000000E-03 0. -1.
        -11    1    3    3    0    0 -0.44237462985E+01  0.13189180076E+02  0.13102059859E+02  0.19109892077E+02  0.51100000000E-03 0.  1.
         12    1    3    3    0    0  0.64733940906E+00  0.61493746141E+01 -0.15257762065E+01  0.63688185315E+01  0.00000000000E+00 0. -1.
</event>
<event>
 7    1  0.2318319E-009  0.4778727E+02  0.7816164E-02  0.1312668E+00
        -11   -1    0    0    0    0  0.00000000000E+00  0.00000000000E+00  0.45593999997E+02  0.45594000000E+02  0.51100000000E-03 0.  1.
         11   -1    0    0    0    0 -0.00000000000E+00 -0.00000000000E+00 -0.45593999997E+02  0.45594000000E+02  0.51100000000E-03 0. -1.
    9900012    2    1    2    0    0 -0.44006887772E+00 -0.38847417651E+02  0.19347035579E+02  0.47787270692E+02  0.19999998394E+02 0.  0.
         12    1    1    2    0    0  0.44006887772E+00  0.38847417651E+02 -0.19347035579E+02  0.43400729308E+02  0.00000000000E+00 0. -1.
         11    1    3    3    0    0 -0.24203198117E+01 -0.32346524131E+01 -0.14582730619E+01  0.42950535281E+01  0.51100000000E-03 0. -1.
        -11    1    3    3    0    0 -0.38278522167E+01 -0.24731539264E+02  0.95244487971E+01  0.26777165872E+02  0.51100000000E-03 0.  1.
        -12    1    3    3    0    0  0.58081031507E+01 -0.10881225973E+02  0.11280859844E+02  0.16715051293E+02  0.00000000000E+00 0.  1.
</event>
<event>
 7    1  0.2318319E-009  0.4778727E+02  0.7816164E-02  0.1312668E+00
        -11   -1    0    0    0    0  0.00000000000E+00  0.00000000000E+00  0.45593999997E+02  0.45594000000E+02  0.51100000000E-03 0. -1.
         11   -1    0    0    0    0 -0.00000000000E+00 -0.00000000000E+00 -0.45593999997E+02  0.45594000000E+02  0.51100000000E-03 0.  1.
    9900012    2    1    2    0    0  0.27661563444E+02 -0.25108263662E+02 -0.22091539073E+02  0.47787273106E+02  0.20000009401E+02 0.  0.
         12    1    1    2    0    0 -0.27661563444E+02  0.25108263662E+02  0.22091539073E+02  0.43400726894E+02  0.00000000000E+00 0. -1.
         11    1    3    3    0    0  0.27426697589E+01 -0.21302729039E+01  0.82315465379E+00  0.35690172172E+01  0.51100000000E-03 0. -1.
        -11    1    3    3    0    0  0.78025771287E+01 -0.93918118142E+01 -0.18112693708E+02  0.21843901040E+02  0.51100000000E-03 0.  1.
        -12    1    3    3    0    0  0.17116316556E+02 -0.13586178943E+02 -0.48020000189E+01  0.22374354849E+02  0.00000000000E+00 0.  1.
</event>
<event>
 7    1  0.2318319E-009  0.4778727E+02  0.7816164E-02  0.1312668E+00
        -11   -1    0    0    0    0  0.00000000000E+00  0.00000000000E+00  0.45593999997E+02  0.45594000000E+02  0.51100000000E-03 0. -1.
         11   -1    0    0    0    0 -0.00000000000E+00 -0.00000000000E+00 -0.45593999997E+02  0.45594000000E+02  0.51100000000E-03 0.  1.
    9900012    2    1    2    0    0  0.10216072939E+02  0.26446017058E+02 -0.32861269879E+02  0.47787273940E+02  0.20000013200E+02 0.  0.
         12    1    1    2    0    0 -0.10216072939E+02 -0.26446017058E+02  0.32861269879E+02  0.43400726060E+02  0.00000000000E+00 0. -1.
         11    1    3    3    0    0  0.37344893900E+01  0.17241102251E+02 -0.76114901595E+01  0.19212933159E+02  0.51100000000E-03 0. -1.
        -11    1    3    3    0    0  0.37515248509E+01  0.18905087859E+01 -0.35071386228E+01  0.54724751034E+01  0.51100000000E-03 0.  1.
        -12    1    3    3    0    0  0.27300586977E+01  0.73144060204E+01 -0.21742641097E+02  0.23101865678E+02  0.00000000000E+00 0.  1.
</event>
<event>
 7    1  0.2318319E-009  0.4778727E+02  0.7816164E-02  0.1312668E+00
        -11   -1    0    0    0    0  0.00000000000E+00  0.00000000000E+00  0.45593999997E+02  0.45594000000E+02  0.51100000000E-03 0. -1.
         11   -1    0    0    0    0 -0.00000000000E+00 -0.00000000000E+00 -0.45593999997E+02  0.45594000000E+02  0.51100000000E-03 0.  1.
    9900012    2    1    2    0    0  0.17647412113E+02 -0.17133780167E+02 -0.35757880172E+02  0.47787267616E+02  0.19999984368E+02 0.  0.
         12    1    1    2    0    0 -0.17647412113E+02  0.17133780167E+02  0.35757880172E+02  0.43400732384E+02  0.00000000000E+00 0. -1.
         11    1    3    3    0    0 -0.11858582578E+01 -0.28574251690E+01 -0.22863464352E+01  0.38468842830E+01  0.51100000000E-03 0. -1.
        -11    1    3    3    0    0  0.11814146643E+02 -0.15049257188E+02 -0.31057325616E+02  0.36477550322E+02  0.51100000000E-03 0.  1.
         12    1    3    3    0    0  0.70191237275E+01  0.77290219037E+00 -0.24142081212E+01  0.74628330110E+01  0.00000000000E+00 0. -1.
</event>
<event>
 7    1  0.2318319E-009  0.4778727E+02  0.7816164E-02  0.1312668E+00
        -11   -1    0    0    0    0  0.00000000000E+00  0.00000000000E+00  0.45593999997E+02  0.45594000000E+02  0.51100000000E-03 0. -1.
         11   -1    0    0    0    0 -0.00000000000E+00 -0.00000000000E+00 -0.45593999997E+02  0.45594000000E+02  0.51100000000E-03 0.  1.
    9900012    2    1    2    0    0  0.12780268209E+02 -0.29947269318E+02 -0.28695805972E+02  0.47787268722E+02  0.19999989410E+02 0.  0.
         12    1    1    2    0    0 -0.12780268209E+02  0.29947269318E+02  0.28695805972E+02  0.43400731278E+02  0.00000000000E+00 0. -1.
         11    1    3    3    0    0  0.10413358589E+02 -0.20481747957E+02 -0.17441761366E+02  0.28847098230E+02  0.51100000000E-03 0. -1.
        -11    1    3    3    0    0  0.25367787518E+01 -0.12204290568E+02 -0.96283805835E+01  0.15750735463E+02  0.51100000000E-03 0.  1.
         12    1    3    3    0    0 -0.16986913152E+00  0.27387692069E+01 -0.16256640231E+01  0.31894350293E+01  0.00000000000E+00 0. -1.
</event>
<event>
 7    1  0.2318319E-009  0.4778727E+02  0.7816164E-02  0.1312668E+00
        -11   -1    0    0    0    0  0.00000000000E+00  0.00000000000E+00  0.45593999997E+02  0.45594000000E+02  0.51100000000E-03 0. -1.
         11   -1    0    0    0    0 -0.00000000000E+00 -0.00000000000E+00 -0.45593999997E+02  0.45594000000E+02  0.51100000000E-03 0.  1.
    9900012    2    1    2    0    0 -0.37937899077E+02  0.44913621752E+00  0.21074576628E+02  0.47787266253E+02  0.19999978153E+02 0.  0.
         12    1    1    2    0    0  0.37937899077E+02 -0.44913621752E+00 -0.21074576628E+02  0.43400733747E+02  0.00000000000E+00 0. -1.
         11    1    3    3    0    0 -0.13641395475E+02 -0.46429983962E+01  0.11521464808E+02  0.18449641086E+02  0.51100000000E-03 0. -1.
        -11    1    3    3    0    0 -0.23315448953E+02  0.16651271005E+01  0.10536464629E+02  0.25639810749E+02  0.51100000000E-03 0.  1.
         12    1    3    3    0    0 -0.98105464935E+00  0.34270075132E+01 -0.98335280854E+00  0.36978144175E+01  0.00000000000E+00 0. -1.
</event>
<event>
 7    1  0.2318319E-009  0.4778727E+02  0.7816164E-02  0.1312668E+00
        -11   -1    0    0    0    0  0.00000000000E+00  0.00000000000E+00  0.45593999997E+02  0.45594000000E+02  0.51100000000E-03 0.  1.
         11   -1    0    0    0    0 -0.00000000000E+00 -0.00000000000E+00 -0.45593999997E+02  0.45594000000E+02  0.51100000000E-03 0. -1.
    9900012    2    1    2    0    0 -0.39748914649E+02 -0.12449121832E+02  0.12192878714E+02  0.47787272570E+02  0.20000006955E+02 0.  0.
         12    1    1    2    0    0  0.39748914649E+02  0.12449121832E+02 -0.12192878714E+02  0.43400727430E+02  0.00000000000E+00 0. -1.
         11    1    3    3    0    0 -0.28014436937E+02 -0.10026285521E+02  0.12463623952E+02  0.32259525733E+02  0.51100000000E-03 0. -1.
        -11    1    3    3    0    0 -0.10130502516E+02  0.15945817808E+01  0.22804139441E+01  0.10505715602E+02  0.51100000000E-03 0.  1.
         12    1    3    3    0    0 -0.16039751957E+01 -0.40174180914E+01 -0.25511591827E+01  0.50220312350E+01  0.00000000000E+00 0. -1.
</event>
<event>
 7    1  0.2318319E-009  0.4778727E+02  0.7816164E-02  0.1312668E+00
        -11   -1    0    0    0    0  0.00000000000E+00  0.00000000000E+00  0.45593999997E+02  0.45594000000E+02  0.51100000000E-03 0.  1.
         11   -1    0    0    0    0 -0.00000000000E+00 -0.00000000000E+00 -0.45593999997E+02  0.45594000000E+02  0.51100000000E-03 0. -1.
    9900012    2    1    2    0    0 -0.21509667554E+02 -0.29753865259E+02  0.23144441202E+02  0.47787268961E+02  0.19999990503E+02 0.  0.
         12    1    1    2    0    0  0.21509667554E+02  0.29753865259E+02 -0.23144441202E+02  0.43400731039E+02  0.00000000000E+00 0. -1.
         11    1    3    3    0    0 -0.67590353843E+01 -0.11429482924E+02  0.13812307854E+02  0.19159788302E+02  0.51100000000E-03 0. -1.
        -11    1    3    3    0    0 -0.41650526415E+01 -0.10657944626E+02  0.10467227015E+02  0.15508136213E+02  0.51100000000E-03 0.  1.
         12    1    3    3    0    0 -0.10585579528E+02 -0.76664377090E+01 -0.11350936668E+01  0.13119344447E+02  0.00000000000E+00 0. -1.
</event>
<event>
 7    1  0.2318319E-009  0.4778727E+02  0.7816164E-02  0.1312668E+00
        -11   -1    0    0    0    0  0.00000000000E+00  0.00000000000E+00  0.45593999997E+02  0.45594000000E+02  0.51100000000E-03 0.  1.
         11   -1    0    0    0    0 -0.00000000000E+00 -0.00000000000E+00 -0.45593999997E+02  0.45594000000E+02  0.51100000000E-03 0. -1.
    9900012    2    1    2    0    0 -0.55475571553E+01 -0.43028691427E+02 -0.11745555563E+01  0.47787271239E+02  0.20000000885E+02 0.  0.
         12    1    1    2    0    0  0.55475571553E+01  0.43028691427E+02  0.11745555563E+01  0.43400728761E+02  0.00000000000E+00 0. -1.
         11    1    3    3    0    0 -0.64243053556E+01 -0.41119517120E+01 -0.14028324707E+01  0.77555003311E+01  0.51100000000E-03 0. -1.
        -11    1    3    3    0    0  0.27203497660E+01 -0.49842468794E+01  0.19549291000E+01  0.60053948955E+01  0.51100000000E-03 0.  1.
         12    1    3    3    0    0 -0.18436015656E+01 -0.33932492835E+02 -0.17266521855E+01  0.34026376012E+02  0.00000000000E+00 0. -1.
</event>
<event>
 7    1  0.2318319E-009  0.4778727E+02  0.7816164E-02  0.1312668E+00
        -11   -1    0    0    0    0  0.00000000000E+00  0.00000000000E+00  0.45593999997E+02  0.45594000000E+02  0.51100000000E-03 0. -1.
         11   -1    0    0    0    0 -0.00000000000E+00 -0.00000000000E+00 -0.45593999997E+02  0.45594000000E+02  0.51100000000E-03 0.  1.
    9900012    2    1    2    0    0  0.14212716327E+02  0.32345111516E+01 -0.40879819957E+02  0.47787273652E+02  0.20000011889E+02 0.  0.
         12    1    1    2    0    0 -0.14212716327E+02 -0.32345111516E+01  0.40879819957E+02  0.43400726348E+02  0.00000000000E+00 0. -1.
         11    1    3    3    0    0  0.51313230960E+01 -0.43963042676E+01 -0.15916010331E+02  0.17290961600E+02  0.51100000000E-03 0. -1.
        -11    1    3    3    0    0 -0.10701967137E+01  0.60128729159E-01  0.10894576045E+01  0.15283502881E+01  0.51100000000E-03 0.  1.
        -12    1    3    3    0    0  0.10151589945E+02  0.75706866900E+01 -0.26053267231E+02  0.28967961764E+02  0.00000000000E+00 0.  1.
</event>
<event>
 7    1  0.2318319E-009  0.4778726E+02  0.7816164E-02  0.1312668E+00
        -11   -1    0    0    0    0  0.00000000000E+00  0.00000000000E+00  0.45593999997E+02  0.45594000000E+02  0.51100000000E-03 0. -1.
         11   -1    0    0    0    0 -0.00000000000E+00 -0.00000000000E+00 -0.45593999997E+02  0.45594000000E+02  0.51100000000E-03 0.  1.
    9900012    2    1    2    0    0  0.35849643568E+01  0.42902692736E+02  0.54891837494E+01  0.47787260931E+02  0.19999953890E+02 0.  0.
         12    1    1    2    0    0 -0.35849643568E+01 -0.42902692736E+02 -0.54891837494E+01  0.43400739069E+02  0.00000000000E+00 0. -1.
         11    1    3    3    0    0  0.13794788520E+01  0.22366629550E+00  0.11454028660E+01  0.18069135290E+01  0.51100000000E-03 0. -1.
        -11    1    3    3    0    0  0.89779790918E+01  0.30862985525E+02  0.35533351863E+01  0.32338122631E+02  0.51100000000E-03 0.  1.
         12    1    3    3    0    0 -0.67724935870E+01  0.11816040916E+02  0.79044569717E+00  0.13642224771E+02  0.00000000000E+00 0. -1.
</event>
<event>
 7    1 -0.2318319E-009  0.4778722E+02  0.7816164E-02  0.1312668E+00
        -11   -1    0    0    0    0  0.00000000000E+00  0.00000000000E+00  0.45593999997E+02  0.45594000000E+02  0.51100000000E-03 0. -1.
         11   -1    0    0    0    0 -0.00000000000E+00 -0.00000000000E+00 -0.45593999997E+02  0.45594000000E+02  0.51100000000E-03 0.  1.
    9900012    2    1    2    0    0  0.15983956818E+02  0.25417181947E+02 -0.31338592956E+02  0.47787223254E+02  0.19999782102E+02 0.  0.
         12    1    1    2    0    0 -0.15983956818E+02 -0.25417181947E+02  0.31338592956E+02  0.43400776746E+02  0.00000000000E+00 0. -1.
         11    1    3    3    0    0 -0.81613062848E+00  0.32574381817E+01 -0.45109956262E+01  0.56237046963E+01  0.51100000000E-03 0. -1.
        -11    1    3    3    0    0  0.84980290172E+01  0.13425130891E+02 -0.25493239540E+02  0.30039239323E+02  0.51100000000E-03 0.  1.
        -12    1    3    3    0    0  0.83020584295E+01  0.87346128747E+01 -0.13343577898E+01  0.12124279234E+02  0.00000000000E+00 0.  1.
</event>
<event>
 7    1  0.2318319E-009  0.4778727E+02  0.7816164E-02  0.1312668E+00
        -11   -1    0    0    0    0  0.00000000000E+00  0.00000000000E+00  0.45593999997E+02  0.45594000000E+02  0.51100000000E-03 0.  1.
         11   -1    0    0    0    0 -0.00000000000E+00 -0.00000000000E+00 -0.45593999997E+02  0.45594000000E+02  0.51100000000E-03 0. -1.
    9900012    2    1    2    0    0 -0.14096632212E+02 -0.41024215716E+02  0.13863005554E+01  0.47787272540E+02  0.20000006821E+02 0.  0.
         12    1    1    2    0    0  0.14096632212E+02  0.41024215716E+02 -0.13863005554E+01  0.43400727460E+02  0.00000000000E+00 0. -1.
         11    1    3    3    0    0 -0.21042536759E+01 -0.11637882255E+00 -0.35066895443E+01  0.40912466785E+01  0.51100000000E-03 0. -1.
        -11    1    3    3    0    0 -0.24173844182E+01 -0.72856817296E+01 -0.22821562467E+01  0.80083171195E+01  0.51100000000E-03 0.  1.
        -12    1    3    3    0    0 -0.95749941178E+01 -0.33622155163E+02  0.71751463464E+01  0.35687708742E+02  0.00000000000E+00 0.  1.
</event>
<event>
 7    1  0.2318319E-009  0.4778727E+02  0.7816164E-02  0.1312668E+00
        -11   -1    0    0    0    0  0.00000000000E+00  0.00000000000E+00  0.45593999997E+02  0.45594000000E+02  0.51100000000E-03 0.  1.
         11   -1    0    0    0    0 -0.00000000000E+00 -0.00000000000E+00 -0.45593999997E+02  0.45594000000E+02  0.51100000000E-03 0. -1.
    9900012    2    1    2    0    0  0.16540357730E+02 -0.20096199206E+02  0.34730143374E+02  0.47787268265E+02  0.19999987328E+02 0.  0.
         12    1    1    2    0    0 -0.16540357730E+02  0.20096199206E+02 -0.34730143374E+02  0.43400731735E+02  0.00000000000E+00 0. -1.
         11    1    3    3    0    0  0.10303983152E+02 -0.15172635473E+02  0.17211574848E+02  0.25151923286E+02  0.51100000000E-03 0. -1.
        -11    1    3    3    0    0  0.67876383920E+01 -0.65162880533E+01  0.18449189378E+02  0.20710061175E+02  0.51100000000E-03 0.  1.
         12    1    3    3    0    0 -0.55126381414E+00  0.15927243202E+01 -0.93062085209E+00  0.19252838033E+01  0.00000000000E+00 0. -1.
</event>
<event>
 7    1  0.2318319E-009  0.4778727E+02  0.7816164E-02  0.1312668E+00
        -11   -1    0    0    0    0  0.00000000000E+00  0.00000000000E+00  0.45593999997E+02  0.45594000000E+02  0.51100000000E-03 0.  1.
         11   -1    0    0    0    0 -0.00000000000E+00 -0.00000000000E+00 -0.45593999997E+02  0.45594000000E+02  0.51100000000E-03 0. -1.
    9900012    2    1    2    0    0 -0.26905479344E+02 -0.14207127448E+02  0.30949574725E+02  0.47787268846E+02  0.19999989976E+02 0.  0.
         12    1    1    2    0    0  0.26905479344E+02  0.14207127448E+02 -0.30949574725E+02  0.43400731154E+02  0.00000000000E+00 0. -1.
         11    1    3    3    0    0 -0.62493716252E+01 -0.26286837862E+01  0.12464716280E+01  0.68933530258E+01  0.51100000000E-03 0. -1.
        -11    1    3    3    0    0 -0.16341987607E+01 -0.78741585646E+01  0.48977914237E+01  0.94160150691E+01  0.51100000000E-03 0.  1.
        -12    1    3    3    0    0 -0.19021908958E+02 -0.37042850973E+01  0.24805311673E+02  0.31477900751E+02  0.00000000000E+00 0.  1.
</event>
<event>
 7    1  0.2318319E-009  0.4778725E+02  0.7816164E-02  0.1312668E+00
        -11   -1    0    0    0    0  0.00000000000E+00  0.00000000000E+00  0.45593999997E+02  0.45594000000E+02  0.51100000000E-03 0.  1.
         11   -1    0    0    0    0 -0.00000000000E+00 -0.00000000000E+00 -0.45593999997E+02  0.45594000000E+02  0.51100000000E-03 0. -1.
    9900012    2    1    2    0    0 -0.29870109172E+02 -0.25787691355E+02  0.18066449997E+02  0.47787250435E+02  0.19999906032E+02 0.  0.
         12    1    1    2    0    0  0.29870109172E+02  0.25787691355E+02 -0.18066449997E+02  0.43400749565E+02  0.00000000000E+00 0. -1.
         11    1    3    3    0    0 -0.12684716395E+02 -0.38773652357E+01  0.25186584268E+01  0.13501097427E+02  0.51100000000E-03 0. -1.
        -11    1    3    3    0    0 -0.75183652132E+01 -0.53068690094E+01 -0.55266382902E+00  0.92192251156E+01  0.51100000000E-03 0.  1.
         12    1    3    3    0    0 -0.96670275629E+01 -0.16603457110E+02  0.16100455399E+02  0.25066927892E+02  0.00000000000E+00 0. -1.
</event>
<event>
 7    1  0.2318319E-009  0.4778728E+02  0.7816164E-02  0.1312668E+00
        -11   -1    0    0    0    0  0.00000000000E+00  0.00000000000E+00  0.45593999997E+02  0.45594000000E+02  0.51100000000E-03 0.  1.
         11   -1    0    0    0    0 -0.00000000000E+00 -0.00000000000E+00 -0.45593999997E+02  0.45594000000E+02  0.51100000000E-03 0. -1.
    9900012    2    1    2    0    0 -0.24015368693E+02  0.20511088344E+02  0.29768777101E+02  0.47787276866E+02  0.20000026542E+02 0.  0.
         12    1    1    2    0    0  0.24015368693E+02 -0.20511088344E+02 -0.29768777101E+02  0.43400723134E+02  0.00000000000E+00 0. -1.
         11    1    3    3    0    0 -0.10803014456E+01 -0.29302753221E+01  0.23419666664E+01  0.39036358442E+01  0.51100000000E-03 0. -1.
        -11    1    3    3    0    0 -0.61499075992E+01  0.12958450940E+01  0.69208622839E+01  0.93487385780E+01  0.51100000000E-03 0.  1.
        -12    1    3    3    0    0 -0.16785159648E+02  0.22145518572E+02  0.20505948150E+02  0.34534902443E+02  0.00000000000E+00 0.  1.
</event>
<event>
 7    1  0.2318319E-009  0.4778727E+02  0.7816164E-02  0.1312668E+00
        -11   -1    0    0    0    0  0.00000000000E+00  0.00000000000E+00  0.45593999997E+02  0.45594000000E+02  0.51100000000E-03 0. -1.
         11   -1    0    0    0    0 -0.00000000000E+00 -0.00000000000E+00 -0.45593999997E+02  0.45594000000E+02  0.51100000000E-03 0.  1.
    9900012    2    1    2    0    0 -0.84468986063E+01  0.37652631609E+02 -0.19863353742E+02  0.47787267460E+02  0.19999983657E+02 0.  0.
         12    1    1    2    0    0  0.84468986063E+01 -0.37652631609E+02  0.19863353742E+02  0.43400732540E+02  0.00000000000E+00 0. -1.
         11    1    3    3    0    0  0.17094643297E+01  0.15643693285E+02 -0.81918696973E+01  0.17741311600E+02  0.51100000000E-03 0. -1.
        -11    1    3    3    0    0  0.23882230041E+01  0.16633110964E+00 -0.31155222643E+00  0.24141955609E+01  0.51100000000E-03 0.  1.
         12    1    3    3    0    0 -0.12544585940E+02  0.21842607215E+02 -0.11359931818E+02  0.27631760300E+02  0.00000000000E+00 0. -1.
</event>
<event>
 7    1  0.2318319E-009  0.4778727E+02  0.7816164E-02  0.1312668E+00
        -11   -1    0    0    0    0  0.00000000000E+00  0.00000000000E+00  0.45593999997E+02  0.45594000000E+02  0.51100000000E-03 0. -1.
         11   -1    0    0    0    0 -0.00000000000E+00 -0.00000000000E+00 -0.45593999997E+02  0.45594000000E+02  0.51100000000E-03 0.  1.
    9900012    2    1    2    0    0  0.39922059620E+02  0.15758184783E+02 -0.64445152489E+01  0.47787274099E+02  0.20000013928E+02 0.  0.
         12    1    1    2    0    0 -0.39922059620E+02 -0.15758184783E+02  0.64445152489E+01  0.43400725901E+02  0.00000000000E+00 0. -1.
         11    1    3    3    0    0  0.90600354837E+01  0.45675040729E+01 -0.60027003523E+01  0.11788924811E+02  0.51100000000E-03 0. -1.
        -11    1    3    3    0    0  0.15992801294E+02  0.77654376939E+01 -0.73637288300E+01  0.19243082350E+02  0.51100000000E-03 0.  1.
        -12    1    3    3    0    0  0.14869222842E+02  0.34252430162E+01  0.69219139334E+01  0.16755266938E+02  0.00000000000E+00 0.  1.
</event>
<event>
 7    1  0.2318319E-009  0.4778727E+02  0.7816164E-02  0.1312668E+00
        -11   -1    0    0    0    0  0.00000000000E+00  0.00000000000E+00  0.45593999997E+02  0.45594000000E+02  0.51100000000E-03 0. -1.
         11   -1    0    0    0    0 -0.00000000000E+00 -0.00000000000E+00 -0.45593999997E+02  0.45594000000E+02  0.51100000000E-03 0.  1.
    9900012    2    1    2    0    0  0.72740216981E+01  0.40847980853E+02  0.12733977206E+02  0.47787272968E+02  0.20000008769E+02 0.  0.
         12    1    1    2    0    0 -0.72740216981E+01 -0.40847980853E+02 -0.12733977206E+02  0.43400727032E+02  0.00000000000E+00 0. -1.
         11    1    3    3    0    0  0.55729357584E+01  0.12777795320E+02  0.10725219750E+01  0.13981415159E+02  0.51100000000E-03 0. -1.
        -11    1    3    3    0    0  0.24878584978E+01  0.28668469152E+02  0.13448484940E+02  0.31763694856E+02  0.51100000000E-03 0.  1.
         12    1    3    3    0    0 -0.78677255814E+00 -0.59828361883E+00 -0.17870297089E+01  0.20421629532E+01  0.00000000000E+00 0. -1.
</event>
<event>
 7    1  0.2318319E-009  0.4778727E+02  0.7816164E-02  0.1312668E+00
        -11   -1    0    0    0    0  0.00000000000E+00  0.00000000000E+00  0.45593999997E+02  0.45594000000E+02  0.51100000000E-03 0. -1.
         11   -1    0    0    0    0 -0.00000000000E+00 -0.00000000000E+00 -0.45593999997E+02  0.45594000000E+02  0.51100000000E-03 0.  1.
    9900012    2    1    2    0    0  0.22837717672E+02  0.26036381838E+02 -0.26156614790E+02  0.47787273912E+02  0.20000013077E+02 0.  0.
         12    1    1    2    0    0 -0.22837717672E+02 -0.26036381838E+02  0.26156614790E+02  0.43400726088E+02  0.00000000000E+00 0. -1.
         11    1    3    3    0    0  0.73882635273E+01  0.11508188179E+02 -0.57923631256E+01  0.14851811471E+02  0.51100000000E-03 0.  1.
        -11    1    3    3    0    0  0.13222344438E+02  0.49297580261E+01 -0.55931544059E+01  0.15179469131E+02  0.51100000000E-03 0. -1.
        -12    1    3    3    0    0  0.22271097066E+01  0.95984356322E+01 -0.14771097258E+02  0.17755993310E+02  0.00000000000E+00 0.  1.
</event>
<event>
 7    1  0.2318319E-009  0.4778727E+02  0.7816164E-02  0.1312668E+00
        -11   -1    0    0    0    0  0.00000000000E+00  0.00000000000E+00  0.45593999997E+02  0.45594000000E+02  0.51100000000E-03 0. -1.
         11   -1    0    0    0    0 -0.00000000000E+00 -0.00000000000E+00 -0.45593999997E+02  0.45594000000E+02  0.51100000000E-03 0.  1.
    9900012    2    1    2    0    0  0.15616245372E+02 -0.16339820811E+02 -0.37050862385E+02  0.47787271122E+02  0.20000000355E+02 0.  0.
         12    1    1    2    0    0 -0.15616245372E+02  0.16339820811E+02  0.37050862385E+02  0.43400728878E+02  0.00000000000E+00 0. -1.
         11    1    3    3    0    0  0.23158245069E+01 -0.46366105513E+01  0.19238706460E+00  0.51863487730E+01  0.51100000000E-03 0.  1.
        -11    1    3    3    0    0  0.67211859453E+01  0.21335317549E+00 -0.16183058990E+02  0.17524590112E+02  0.51100000000E-03 0. -1.
        -12    1    3    3    0    0  0.65792349197E+01 -0.11916563436E+02 -0.21060190460E+02  0.25076332237E+02  0.00000000000E+00 0.  1.
</event>
<event>
 7    1  0.2318319E-009  0.4778728E+02  0.7816164E-02  0.1312668E+00
        -11   -1    0    0    0    0  0.00000000000E+00  0.00000000000E+00  0.45593999997E+02  0.45594000000E+02  0.51100000000E-03 0. -1.
         11   -1    0    0    0    0 -0.00000000000E+00 -0.00000000000E+00 -0.45593999997E+02  0.45594000000E+02  0.51100000000E-03 0.  1.
    9900012    2    1    2    0    0  0.41942263665E+02 -0.95907619704E+01  0.56996841814E+01  0.47787278851E+02  0.20000035594E+02 0.  0.
         12    1    1    2    0    0 -0.41942263665E+02  0.95907619704E+01 -0.56996841814E+01  0.43400721149E+02  0.00000000000E+00 0. -1.
         11    1    3    3    0    0  0.54899896705E+01  0.53185400899E+00 -0.78027941223E+00  0.55706096158E+01  0.51100000000E-03 0. -1.
        -11    1    3    3    0    0  0.33880410737E+02 -0.12670579722E+02  0.96142996815E+01  0.37428072096E+02  0.51100000000E-03 0.  1.
         12    1    3    3    0    0  0.25718632571E+01  0.25479637431E+01 -0.31343360879E+01  0.47885971391E+01  0.00000000000E+00 0. -1.
</event>
<event>
 7    1  0.2318319E-009  0.4778726E+02  0.7816164E-02  0.1312668E+00
        -11   -1    0    0    0    0  0.00000000000E+00  0.00000000000E+00  0.45593999997E+02  0.45594000000E+02  0.51100000000E-03 0. -1.
         11   -1    0    0    0    0 -0.00000000000E+00 -0.00000000000E+00 -0.45593999997E+02  0.45594000000E+02  0.51100000000E-03 0.  1.
    9900012    2    1    2    0    0  0.23944890072E+02 -0.36186315091E+02  0.90393740435E+00  0.47787259646E+02  0.19999948030E+02 0.  0.
         12    1    1    2    0    0 -0.23944890072E+02  0.36186315091E+02 -0.90393740435E+00  0.43400740354E+02  0.00000000000E+00 0. -1.
         11    1    3    3    0    0 -0.17135515652E+01 -0.52426179934E+01  0.32598323511E+01  0.64068564531E+01  0.51100000000E-03 0. -1.
        -11    1    3    3    0    0  0.57690718014E+01 -0.10924996686E+02  0.28639805594E+01  0.12682276095E+02  0.51100000000E-03 0.  1.
        -12    1    3    3    0    0  0.19889369836E+02 -0.20018700411E+02 -0.52198755062E+01  0.28698127098E+02  0.00000000000E+00 0.  1.
</event>
<event>
 7    1  0.2318319E-009  0.4778728E+02  0.7816164E-02  0.1312668E+00
        -11   -1    0    0    0    0  0.00000000000E+00  0.00000000000E+00  0.45593999997E+02  0.45594000000E+02  0.51100000000E-03 0. -1.
         11   -1    0    0    0    0 -0.00000000000E+00 -0.00000000000E+00 -0.45593999997E+02  0.45594000000E+02  0.51100000000E-03 0.  1.
    9900012    2    1    2    0    0  0.26189687865E+02  0.31493518914E+02 -0.14348566403E+02  0.47787276021E+02  0.20000022691E+02 0.  0.
         12    1    1    2    0    0 -0.26189687865E+02 -0.31493518914E+02  0.14348566403E+02  0.43400723979E+02  0.00000000000E+00 0. -1.
         11    1    3    3    0    0 -0.18170365228E+01  0.19872159033E+01  0.11060371472E+01  0.29110079360E+01  0.51100000000E-03 0. -1.
        -11    1    3    3    0    0  0.63528010824E+01  0.13668018544E+02 -0.78355909628E+01  0.16987327586E+02  0.51100000000E-03 0.  1.
        -12    1    3    3    0    0  0.21653923306E+02  0.15838284466E+02 -0.76190125877E+01  0.27888940499E+02  0.00000000000E+00 0.  1.
</event>
<event>
 7    1  0.2318319E-009  0.4778727E+02  0.7816164E-02  0.1312668E+00
        -11   -1    0    0    0    0  0.00000000000E+00  0.00000000000E+00  0.45593999997E+02  0.45594000000E+02  0.51100000000E-03 0.  1.
         11   -1    0    0    0    0 -0.00000000000E+00 -0.00000000000E+00 -0.45593999997E+02  0.45594000000E+02  0.51100000000E-03 0. -1.
    9900012    2    1    2    0    0  0.17217640998E+02  0.33170486987E+02  0.22065694577E+02  0.47787271370E+02  0.20000001484E+02 0.  0.
         12    1    1    2    0    0 -0.17217640998E+02 -0.33170486987E+02 -0.22065694577E+02  0.43400728630E+02  0.00000000000E+00 0. -1.
         11    1    3    3    0    0  0.26090952797E+00  0.13542681550E+02  0.47459788433E+01  0.14352582095E+02  0.51100000000E-03 0. -1.
        -11    1    3    3    0    0 -0.14281396361E+01  0.38930434367E+01  0.42251685947E+01  0.59200861425E+01  0.51100000000E-03 0.  1.
        -12    1    3    3    0    0  0.18384871106E+02  0.15734762000E+02  0.13094547139E+02  0.27514603133E+02  0.00000000000E+00 0.  1.
</event>
<event>
 7    1  0.2318319E-009  0.4778727E+02  0.7816164E-02  0.1312668E+00
        -11   -1    0    0    0    0  0.00000000000E+00  0.00000000000E+00  0.45593999997E+02  0.45594000000E+02  0.51100000000E-03 0. -1.
         11   -1    0    0    0    0 -0.00000000000E+00 -0.00000000000E+00 -0.45593999997E+02  0.45594000000E+02  0.51100000000E-03 0.  1.
    9900012    2    1    2    0    0 -0.10026806369E+02 -0.32608395012E+02 -0.26828698323E+02  0.47787270456E+02  0.19999997318E+02 0.  0.
         12    1    1    2    0    0  0.10026806369E+02  0.32608395012E+02  0.26828698323E+02  0.43400729544E+02  0.00000000000E+00 0. -1.
         11    1    3    3    0    0 -0.18668753813E+01 -0.18643382606E+02 -0.77258941287E+01  0.20266977550E+02  0.51100000000E-03 0. -1.
        -11    1    3    3    0    0 -0.86832110404E+01 -0.15433001929E+02 -0.15269630494E+02  0.23382414722E+02  0.51100000000E-03 0.  1.
         12    1    3    3    0    0  0.52328005274E+00  0.14679895231E+01 -0.38331737000E+01  0.41378781843E+01  0.00000000000E+00 0. -1.
</event>
<event>
 7    1  0.2318319E-009  0.4778727E+02  0.7816164E-02  0.1312668E+00
        -11   -1    0    0    0    0  0.00000000000E+00  0.00000000000E+00  0.45593999997E+02  0.45594000000E+02  0.51100000000E-03 0.  1.
         11   -1    0    0    0    0 -0.00000000000E+00 -0.00000000000E+00 -0.45593999997E+02  0.45594000000E+02  0.51100000000E-03 0. -1.
    9900012    2    1    2    0    0 -0.65435625775E+01  0.38666152254E+02  0.18593923283E+02  0.47787268159E+02  0.19999986842E+02 0.  0.
         12    1    1    2    0    0  0.65435625775E+01 -0.38666152254E+02 -0.18593923283E+02  0.43400731841E+02  0.00000000000E+00 0. -1.
         11    1    3    3    0    0 -0.32181990610E+01  0.12533261523E+02  0.19341639093E+01  0.13083594303E+02  0.51100000000E-03 0. -1.
        -11    1    3    3    0    0  0.40160368458E+01  0.33423624394E+01 -0.49568209628E+00  0.52483940044E+01  0.51100000000E-03 0.  1.
         12    1    3    3    0    0 -0.73414003623E+01  0.22790528292E+02  0.17155441470E+02  0.29455279852E+02  0.00000000000E+00 0. -1.
</event>
<event>
 7    1  0.2318319E-009  0.4778728E+02  0.7816164E-02  0.1312668E+00
        -11   -1    0    0    0    0  0.00000000000E+00  0.00000000000E+00  0.45593999997E+02  0.45594000000E+02  0.51100000000E-03 0.  1.
         11   -1    0    0    0    0 -0.00000000000E+00 -0.00000000000E+00 -0.45593999997E+02  0.45594000000E+02  0.51100000000E-03 0. -1.
    9900012    2    1    2    0    0 -0.72040920015E+01  0.12855579344E+02  0.40822272093E+02  0.47787276957E+02  0.20000026959E+02 0.  0.
         12    1    1    2    0    0  0.72040920015E+01 -0.12855579344E+02 -0.40822272093E+02  0.43400723043E+02  0.00000000000E+00 0. -1.
         11    1    3    3    0    0 -0.23132130027E+01 -0.11463262556E+01 -0.73112504223E+00  0.26832000240E+01  0.51100000000E-03 0. -1.
        -11    1    3    3    0    0 -0.21951163962E+01  0.77248003627E+01  0.10029342375E+02  0.12848298929E+02  0.51100000000E-03 0.  1.
         12    1    3    3    0    0 -0.26957626027E+01  0.62771052365E+01  0.31524054759E+02  0.32255778004E+02  0.00000000000E+00 0. -1.
</event>
<event>
 7    1  0.2318319E-009  0.4778727E+02  0.7816164E-02  0.1312668E+00
        -11   -1    0    0    0    0  0.00000000000E+00  0.00000000000E+00  0.45593999997E+02  0.45594000000E+02  0.51100000000E-03 0.  1.
         11   -1    0    0    0    0 -0.00000000000E+00 -0.00000000000E+00 -0.45593999997E+02  0.45594000000E+02  0.51100000000E-03 0. -1.
    9900012    2    1    2    0    0 -0.67986369339E+01 -0.39573889545E+02  0.16471468631E+02  0.47787268707E+02  0.19999989342E+02 0.  0.
         12    1    1    2    0    0  0.67986369339E+01  0.39573889545E+02 -0.16471468631E+02  0.43400731293E+02  0.00000000000E+00 0. -1.
         11    1    3    3    0    0  0.14058656786E+01  0.77962244904E-01  0.40190776603E+01  0.42585821488E+01  0.51100000000E-03 0. -1.
        -11    1    3    3    0    0 -0.26297519174E+01 -0.96402707349E+01  0.77456230517E+01  0.12642985870E+02  0.51100000000E-03 0.  1.
        -12    1    3    3    0    0 -0.55747506951E+01 -0.30011581055E+02  0.47067679195E+01  0.30885700688E+02  0.00000000000E+00 0.  1.
</event>
<event>
 7    1  0.2318319E-009  0.4778727E+02  0.7816164E-02  0.1312668E+00
        -11   -1    0    0    0    0  0.00000000000E+00  0.00000000000E+00  0.45593999997E+02  0.45594000000E+02  0.51100000000E-03 0.  1.
         11   -1    0    0    0    0 -0.00000000000E+00 -0.00000000000E+00 -0.45593999997E+02  0.45594000000E+02  0.51100000000E-03 0. -1.
    9900012    2    1    2    0    0 -0.34595865447E+02  0.10819363123E+02  0.23868188250E+02  0.47787274951E+02  0.20000017812E+02 0.  0.
         12    1    1    2    0    0  0.34595865447E+02 -0.10819363123E+02 -0.23868188250E+02  0.43400725049E+02  0.00000000000E+00 0. -1.
         11    1    3    3    0    0 -0.11931877336E+02  0.10041103643E+02  0.98509747467E+01  0.18445464561E+02  0.51100000000E-03 0. -1.
        -11    1    3    3    0    0  0.14432214522E+01 -0.10619273851E+00  0.17738930215E+01  0.22892928538E+01  0.51100000000E-03 0.  1.
        -12    1    3    3    0    0 -0.24107209563E+02  0.88445221839E+00  0.12243320482E+02  0.27052517537E+02  0.00000000000E+00 0.  1.
</event>
<event>
 7    1  0.2318319E-009  0.4778727E+02  0.7816164E-02  0.1312668E+00
        -11   -1    0    0    0    0  0.00000000000E+00  0.00000000000E+00  0.45593999997E+02  0.45594000000E+02  0.51100000000E-03 0.  1.
         11   -1    0    0    0    0 -0.00000000000E+00 -0.00000000000E+00 -0.45593999997E+02  0.45594000000E+02  0.51100000000E-03 0. -1.
    9900012    2    1    2    0    0 -0.36659810135E+02  0.10479595635E+02 -0.20733056925E+02  0.47787271282E+02  0.20000001083E+02 0.  0.
         12    1    1    2    0    0  0.36659810135E+02 -0.10479595635E+02  0.20733056925E+02  0.43400728718E+02  0.00000000000E+00 0. -1.
         11    1    3    3    0    0  0.12015465226E+01 -0.17052987872E+01 -0.13576247427E+01  0.24889562476E+01  0.51100000000E-03 0. -1.
        -11    1    3    3    0    0 -0.16218706366E+02  0.27533392950E+00 -0.83970669749E+01  0.18265622875E+02  0.51100000000E-03 0.  1.
        -12    1    3    3    0    0 -0.21642650292E+02  0.11909560492E+02 -0.10978365207E+02  0.27032692160E+02  0.00000000000E+00 0.  1.
</event>
<event>
 7    1  0.2318319E-009  0.4778727E+02  0.7816164E-02  0.1312668E+00
        -11   -1    0    0    0    0  0.00000000000E+00  0.00000000000E+00  0.45593999997E+02  0.45594000000E+02  0.51100000000E-03 0. -1.
         11   -1    0    0    0    0 -0.00000000000E+00 -0.00000000000E+00 -0.45593999997E+02  0.45594000000E+02  0.51100000000E-03 0.  1.
    9900012    2    1    2    0    0 -0.33558142027E+02  0.54568258565E+01 -0.26975866246E+02  0.47787271845E+02  0.20000003649E+02 0.  0.
         12    1    1    2    0    0  0.33558142027E+02 -0.54568258565E+01  0.26975866246E+02  0.43400728155E+02  0.00000000000E+00 0. -1.
         11    1    3    3    0    0 -0.18600061832E+01 -0.29045744255E+01 -0.26781597098E+01  0.43667740137E+01  0.51100000000E-03 0. -1.
        -11    1    3    3    0    0 -0.13975077189E+02  0.23202608047E+01 -0.20051121282E+01  0.14307580772E+02  0.51100000000E-03 0.  1.
        -12    1    3    3    0    0 -0.17723058655E+02  0.60411394773E+01 -0.22292594408E+02  0.29112917059E+02  0.00000000000E+00 0.  1.
</event>
<event>
 7    1  0.2318319E-009  0.4778726E+02  0.7816164E-02  0.1312668E+00
        -11   -1    0    0    0    0  0.00000000000E+00  0.00000000000E+00  0.45593999997E+02  0.45594000000E+02  0.51100000000E-03 0. -1.
         11   -1    0    0    0    0 -0.00000000000E+00 -0.00000000000E+00 -0.45593999997E+02  0.45594000000E+02  0.51100000000E-03 0.  1.
    9900012    2    1    2    0    0 -0.37408164282E+02  0.22003862877E+02  0.28910965759E+00  0.47787258983E+02  0.19999945008E+02 0.  0.
         12    1    1    2    0    0  0.37408164282E+02 -0.22003862877E+02 -0.28910965759E+00  0.43400741017E+02  0.00000000000E+00 0. -1.
         11    1    3    3    0    0 -0.79467676644E+01  0.54618959305E+01  0.51626521085E+01  0.10937842590E+02  0.51100000000E-03 0. -1.
        -11    1    3    3    0    0 -0.25155381180E+02  0.15998727804E+02  0.65702582783E+00  0.29819191418E+02  0.51100000000E-03 0.  1.
         12    1    3    3    0    0 -0.43060154373E+01  0.54323914234E+00 -0.55305682787E+01  0.70302249749E+01  0.00000000000E+00 0. -1.
</event>
<event>
 7    1  0.2318319E-009  0.4778726E+02  0.7816164E-02  0.1312668E+00
        -11   -1    0    0    0    0  0.00000000000E+00  0.00000000000E+00  0.45593999997E+02  0.45594000000E+02  0.51100000000E-03 0. -1.
         11   -1    0    0    0    0 -0.00000000000E+00 -0.00000000000E+00 -0.45593999997E+02  0.45594000000E+02  0.51100000000E-03 0.  1.
    9900012    2    1    2    0    0 -0.40261942292E+02 -0.16158493720E+02 -0.12260886997E+01  0.47787260261E+02  0.19999950834E+02 0.  0.
         12    1    1    2    0    0  0.40261942292E+02  0.16158493720E+02  0.12260886997E+01  0.43400739739E+02  0.00000000000E+00 0. -1.
         11    1    3    3    0    0 -0.14188706756E+00  0.39766423569E+00 -0.26967635831E+00  0.50099339680E+00  0.51100000000E-03 0. -1.
        -11    1    3    3    0    0 -0.36259254787E+01 -0.69716355050E+01 -0.50378847105E+01  0.93344158794E+01  0.51100000000E-03 0.  1.
        -12    1    3    3    0    0 -0.36494129745E+02 -0.95845224504E+01  0.40814723691E+01  0.37951850985E+02  0.00000000000E+00 0.  1.
</event>
<event>
 7    1  0.2318319E-009  0.4778727E+02  0.7816164E-02  0.1312668E+00
        -11   -1    0    0    0    0  0.00000000000E+00  0.00000000000E+00  0.45593999997E+02  0.45594000000E+02  0.51100000000E-03 0.  1.
         11   -1    0    0    0    0 -0.00000000000E+00 -0.00000000000E+00 -0.45593999997E+02  0.45594000000E+02  0.51100000000E-03 0. -1.
    9900012    2    1    2    0    0  0.66670726055E+01  0.15223154356E+01  0.42858558271E+02  0.47787270530E+02  0.19999997655E+02 0.  0.
         12    1    1    2    0    0 -0.66670726055E+01 -0.15223154356E+01 -0.42858558271E+02  0.43400729470E+02  0.00000000000E+00 0. -1.
         11    1    3    3    0    0 -0.40192309762E+01 -0.52773476594E+01  0.70255517441E+01  0.96624527698E+01  0.51100000000E-03 0. -1.
        -11    1    3    3    0    0  0.22324582582E+01  0.80253907381E+00  0.10269121245E+02  0.10539582072E+02  0.51100000000E-03 0.  1.
         12    1    3    3    0    0  0.84538453234E+01  0.59971240213E+01  0.25563885282E+02  0.27585235688E+02  0.00000000000E+00 0. -1.
</event>
<event>
 7    1  0.2318319E-009  0.4778726E+02  0.7816164E-02  0.1312668E+00
        -11   -1    0    0    0    0  0.00000000000E+00  0.00000000000E+00  0.45593999997E+02  0.45594000000E+02  0.51100000000E-03 0. -1.
         11   -1    0    0    0    0 -0.00000000000E+00 -0.00000000000E+00 -0.45593999997E+02  0.45594000000E+02  0.51100000000E-03 0.  1.
    9900012    2    1    2    0    0  0.48997127991E+01  0.27243467178E+02 -0.33427684946E+02  0.47787264865E+02  0.19999971825E+02 0.  0.
         12    1    1    2    0    0 -0.48997127991E+01 -0.27243467178E+02  0.33427684946E+02  0.43400735135E+02  0.00000000000E+00 0. -1.
         11    1    3    3    0    0  0.10648065919E+02  0.15731739504E+02 -0.23478287924E+02  0.30200975808E+02  0.51100000000E-03 0. -1.
        -11    1    3    3    0    0  0.14465622307E+00 -0.27387595055E-01 -0.27689553696E+01  0.27728666760E+01  0.51100000000E-03 0.  1.
        -12    1    3    3    0    0 -0.58930093433E+01  0.11539115269E+02 -0.71804416528E+01  0.14813422381E+02  0.00000000000E+00 0.  1.
</event>
<event>
 7    1  0.2318319E-009  0.4778727E+02  0.7816164E-02  0.1312668E+00
        -11   -1    0    0    0    0  0.00000000000E+00  0.00000000000E+00  0.45593999997E+02  0.45594000000E+02  0.51100000000E-03 0.  1.
         11   -1    0    0    0    0 -0.00000000000E+00 -0.00000000000E+00 -0.45593999997E+02  0.45594000000E+02  0.51100000000E-03 0. -1.
    9900012    2    1    2    0    0  0.16473293535E+02  0.22147242759E+01  0.40091757001E+02  0.47787269788E+02  0.19999994272E+02 0.  0.
         12    1    1    2    0    0 -0.16473293535E+02 -0.22147242759E+01 -0.40091757001E+02  0.43400730212E+02  0.00000000000E+00 0. -1.
         11    1    3    3    0    0  0.44538447064E+01  0.45308123322E+01  0.96129383829E+01  0.11522741760E+02  0.51100000000E-03 0.  1.
        -11    1    3    3    0    0 -0.29519932099E+01 -0.29340381086E+01  0.36544342478E+01  0.55387483664E+01  0.51100000000E-03 0. -1.
        -12    1    3    3    0    0  0.14971442039E+02  0.61795005239E+00  0.26824384370E+02  0.30725779662E+02  0.00000000000E+00 0.  1.
</event>
<event>
 7    1  0.2318319E-009  0.4778725E+02  0.7816164E-02  0.1312668E+00
        -11   -1    0    0    0    0  0.00000000000E+00  0.00000000000E+00  0.45593999997E+02  0.45594000000E+02  0.51100000000E-03 0.  1.
         11   -1    0    0    0    0 -0.00000000000E+00 -0.00000000000E+00 -0.45593999997E+02  0.45594000000E+02  0.51100000000E-03 0. -1.
    9900012    2    1    2    0    0 -0.18548172092E+01 -0.31158374511E+02  0.30155266725E+02  0.47787253920E+02  0.19999921921E+02 0.  0.
         12    1    1    2    0    0  0.18548172092E+01  0.31158374511E+02 -0.30155266725E+02  0.43400746080E+02  0.00000000000E+00 0. -1.
         11    1    3    3    0    0 -0.36640175381E+01  0.23223349374E+00  0.43327529526E+01  0.56790584893E+01  0.51100000000E-03 0. -1.
        -11    1    3    3    0    0  0.35535541868E+01 -0.33649308419E+01  0.20091318022E+01  0.52902852276E+01  0.51100000000E-03 0.  1.
        -12    1    3    3    0    0 -0.17443538579E+01 -0.28025677163E+02  0.23813381970E+02  0.36817910203E+02  0.00000000000E+00 0.  1.
</event>
<event>
 7    1  0.2318319E-009  0.4778727E+02  0.7816164E-02  0.1312668E+00
        -11   -1    0    0    0    0  0.00000000000E+00  0.00000000000E+00  0.45593999997E+02  0.45594000000E+02  0.51100000000E-03 0. -1.
         11   -1    0    0    0    0 -0.00000000000E+00 -0.00000000000E+00 -0.45593999997E+02  0.45594000000E+02  0.51100000000E-03 0.  1.
    9900012    2    1    2    0    0  0.24646860331E+02 -0.24185520021E+02 -0.26290990001E+02  0.47787271226E+02  0.20000000827E+02 0.  0.
         12    1    1    2    0    0 -0.24646860331E+02  0.24185520021E+02  0.26290990001E+02  0.43400728774E+02  0.00000000000E+00 0. -1.
         11    1    3    3    0    0  0.22703456059E+01 -0.86196517368E+01 -0.35812382702E+01  0.96061507922E+01  0.51100000000E-03 0. -1.
        -11    1    3    3    0    0  0.83023068014E+01 -0.13527528745E+02 -0.15704467449E+02  0.22328292148E+02  0.51100000000E-03 0.  1.
         12    1    3    3    0    0  0.14074207924E+02 -0.20383395402E+01 -0.70052842823E+01  0.15852828285E+02  0.00000000000E+00 0. -1.
</event>
<event>
 7    1  0.2318319E-009  0.4778727E+02  0.7816164E-02  0.1312668E+00
        -11   -1    0    0    0    0  0.00000000000E+00  0.00000000000E+00  0.45593999997E+02  0.45594000000E+02  0.51100000000E-03 0.  1.
         11   -1    0    0    0    0 -0.00000000000E+00 -0.00000000000E+00 -0.45593999997E+02  0.45594000000E+02  0.51100000000E-03 0. -1.
    9900012    2    1    2    0    0 -0.26027936919E+01  0.41735912168E+02  0.11617334014E+02  0.47787270178E+02  0.19999996048E+02 0.  0.
         12    1    1    2    0    0  0.26027936919E+01 -0.41735912168E+02 -0.11617334014E+02  0.43400729822E+02  0.00000000000E+00 0. -1.
         11    1    3    3    0    0 -0.13801014307E+00  0.80212814675E+01  0.38020316198E+01  0.88778064791E+01  0.51100000000E-03 0.  1.
        -11    1    3    3    0    0  0.40944052586E+00  0.14114110623E+02 -0.53764047913E+01  0.15108987026E+02  0.51100000000E-03 0. -1.
         12    1    3    3    0    0 -0.28742240747E+01  0.19600520078E+02  0.13191707186E+02  0.23800476672E+02  0.00000000000E+00 0. -1.
</event>
<event>
 7    1  0.2318319E-009  0.4778726E+02  0.7816164E-02  0.1312668E+00
        -11   -1    0    0    0    0  0.00000000000E+00  0.00000000000E+00  0.45593999997E+02  0.45594000000E+02  0.51100000000E-03 0.  1.
         11   -1    0    0    0    0 -0.00000000000E+00 -0.00000000000E+00 -0.45593999997E+02  0.45594000000E+02  0.51100000000E-03 0. -1.
    9900012    2    1    2    0    0 -0.18944086391E+02 -0.33067364116E+02 -0.20767644874E+02  0.47787262076E+02  0.19999959109E+02 0.  0.
         12    1    1    2    0    0  0.18944086391E+02  0.33067364116E+02  0.20767644874E+02  0.43400737924E+02  0.00000000000E+00 0. -1.
         11    1    3    3    0    0 -0.15739112303E+01  0.12947739165E+01  0.68102025368E+00  0.21488194207E+01  0.51100000000E-03 0. -1.
        -11    1    3    3    0    0 -0.16846860356E+02 -0.21498785411E+02 -0.13081531909E+02  0.30284335148E+02  0.51100000000E-03 0.  1.
         12    1    3    3    0    0 -0.52331480465E+00 -0.12863352622E+02 -0.83671332187E+01  0.15354107507E+02  0.00000000000E+00 0. -1.
</event>
<event>
 7    1  0.2318319E-009  0.4778727E+02  0.7816164E-02  0.1312668E+00
        -11   -1    0    0    0    0  0.00000000000E+00  0.00000000000E+00  0.45593999997E+02  0.45594000000E+02  0.51100000000E-03 0.  1.
         11   -1    0    0    0    0 -0.00000000000E+00 -0.00000000000E+00 -0.45593999997E+02  0.45594000000E+02  0.51100000000E-03 0. -1.
    9900012    2    1    2    0    0 -0.39206029209E+02  0.16635420718E+02 -0.83530348773E+01  0.47787272582E+02  0.20000007008E+02 0.  0.
         12    1    1    2    0    0  0.39206029209E+02 -0.16635420718E+02  0.83530348773E+01  0.43400727418E+02  0.00000000000E+00 0. -1.
         11    1    3    3    0    0 -0.69725373969E+01  0.93381782921E+01 -0.33530609015E+00  0.11658914272E+02  0.51100000000E-03 0. -1.
        -11    1    3    3    0    0 -0.17802625277E+01 -0.23229788861E+01 -0.22113685885E+01  0.36682034933E+01  0.51100000000E-03 0.  1.
        -12    1    3    3    0    0 -0.30453229284E+02  0.96202213117E+01 -0.58063601986E+01  0.32460154816E+02  0.00000000000E+00 0.  1.
</event>
<event>
 7    1  0.2318319E-009  0.4778727E+02  0.7816164E-02  0.1312668E+00
        -11   -1    0    0    0    0  0.00000000000E+00  0.00000000000E+00  0.45593999997E+02  0.45594000000E+02  0.51100000000E-03 0.  1.
         11   -1    0    0    0    0 -0.00000000000E+00 -0.00000000000E+00 -0.45593999997E+02  0.45594000000E+02  0.51100000000E-03 0. -1.
    9900012    2    1    2    0    0  0.26983215102E+02  0.20869481405E+02  0.26832705493E+02  0.47787271487E+02  0.20000002019E+02 0.  0.
         12    1    1    2    0    0 -0.26983215102E+02 -0.20869481405E+02 -0.26832705493E+02  0.43400728513E+02  0.00000000000E+00 0. -1.
         11    1    3    3    0    0  0.85710516731E+01  0.44360693439E+01 -0.10221180223E+01  0.97049659205E+01  0.51100000000E-03 0. -1.
        -11    1    3    3    0    0  0.73936301673E+01  0.17290703972E+01  0.82924726554E+01  0.11243689541E+02  0.51100000000E-03 0.  1.
         12    1    3    3    0    0  0.11018533261E+02  0.14704341664E+02  0.19562350860E+02  0.26838616026E+02  0.00000000000E+00 0. -1.
</event>
<event>
 7    1  0.2318319E-009  0.4778727E+02  0.7816164E-02  0.1312668E+00
        -11   -1    0    0    0    0  0.00000000000E+00  0.00000000000E+00  0.45593999997E+02  0.45594000000E+02  0.51100000000E-03 0. -1.
         11   -1    0    0    0    0 -0.00000000000E+00 -0.00000000000E+00 -0.45593999997E+02  0.45594000000E+02  0.51100000000E-03 0.  1.
    9900012    2    1    2    0    0  0.40498237717E+02  0.20711107509E+00  0.15603624285E+02  0.47787271388E+02  0.20000001568E+02 0.  0.
         12    1    1    2    0    0 -0.40498237717E+02 -0.20711107509E+00 -0.15603624285E+02  0.43400728612E+02  0.00000000000E+00 0. -1.
         11    1    3    3    0    0  0.23648185446E+01 -0.25229573224E+01  0.41320874420E+01  0.53881190864E+01  0.51100000000E-03 0. -1.
        -11    1    3    3    0    0  0.13980357903E+02 -0.75661119653E+00  0.11304988594E+02  0.17995155875E+02  0.51100000000E-03 0.  1.
        -12    1    3    3    0    0  0.24153061270E+02  0.34866795941E+01  0.16654824892E+00  0.24403996427E+02  0.00000000000E+00 0.  1.
</event>
<event>
 7    1  0.2318319E-009  0.4778727E+02  0.7816164E-02  0.1312668E+00
        -11   -1    0    0    0    0  0.00000000000E+00  0.00000000000E+00  0.45593999997E+02  0.45594000000E+02  0.51100000000E-03 0.  1.
         11   -1    0    0    0    0 -0.00000000000E+00 -0.00000000000E+00 -0.45593999997E+02  0.45594000000E+02  0.51100000000E-03 0. -1.
    9900012    2    1    2    0    0 -0.36464547162E+02  0.65668565840E+01  0.22601684462E+02  0.47787274825E+02  0.20000017239E+02 0.  0.
         12    1    1    2    0    0  0.36464547162E+02 -0.65668565840E+01 -0.22601684462E+02  0.43400725175E+02  0.00000000000E+00 0. -1.
         11    1    3    3    0    0  0.88253224727E+00 -0.62471602275E+00 -0.14361190687E+01  0.17976572302E+01  0.51100000000E-03 0. -1.
        -11    1    3    3    0    0 -0.24885785065E+01  0.57884900336E+00 -0.80257513047E+00  0.26780993732E+01  0.51100000000E-03 0.  1.
        -12    1    3    3    0    0 -0.34858500903E+02  0.66127236034E+01  0.24840378661E+02  0.43311518222E+02  0.00000000000E+00 0.  1.
</event>
<event>
 7    1  0.2318319E-009  0.4778727E+02  0.7816164E-02  0.1312668E+00
        -11   -1    0    0    0    0  0.00000000000E+00  0.00000000000E+00  0.45593999997E+02  0.45594000000E+02  0.51100000000E-03 0. -1.
         11   -1    0    0    0    0 -0.00000000000E+00 -0.00000000000E+00 -0.45593999997E+02  0.45594000000E+02  0.51100000000E-03 0.  1.
    9900012    2    1    2    0    0 -0.39084539363E+02  0.82146169492E+01  0.16986527166E+02  0.47787271274E+02  0.20000001045E+02 0.  0.
         12    1    1    2    0    0  0.39084539363E+02 -0.82146169492E+01 -0.16986527166E+02  0.43400728726E+02  0.00000000000E+00 0. -1.
         11    1    3    3    0    0  0.75296113111E+00  0.85532916053E+00  0.79601035959E+00  0.13900256082E+01  0.51100000000E-03 0. -1.
        -11    1    3    3    0    0 -0.26333816489E+02 -0.18030936637E+01  0.14157135621E+02  0.29952387666E+02  0.51100000000E-03 0.  1.
        -12    1    3    3    0    0 -0.13503684005E+02  0.91623814524E+01  0.20333811858E+01  0.16444858000E+02  0.00000000000E+00 0.  1.
</event>
<event>
 7    1  0.2318319E-009  0.4778727E+02  0.7816164E-02  0.1312668E+00
        -11   -1    0    0    0    0  0.00000000000E+00  0.00000000000E+00  0.45593999997E+02  0.45594000000E+02  0.51100000000E-03 0. -1.
         11   -1    0    0    0    0 -0.00000000000E+00 -0.00000000000E+00 -0.45593999997E+02  0.45594000000E+02  0.51100000000E-03 0.  1.
    9900012    2    1    2    0    0  0.38939329566E+02 -0.19013167521E+02 -0.24189535390E+01  0.47787271176E+02  0.20000000600E+02 0.  0.
         12    1    1    2    0    0 -0.38939329566E+02  0.19013167521E+02  0.24189535390E+01  0.43400728824E+02  0.00000000000E+00 0. -1.
         11    1    3    3    0    0  0.11573010576E+02 -0.15365867998E+02  0.40655177428E+00  0.19240835682E+02  0.51100000000E-03 0. -1.
        -11    1    3    3    0    0  0.26001020836E+02 -0.19269825173E+01 -0.18340284904E+01  0.26136755860E+02  0.51100000000E-03 0.  1.
        -12    1    3    3    0    0  0.13652981543E+01 -0.17203170052E+01 -0.99147682288E+00  0.24096796341E+01  0.00000000000E+00 0.  1.
</event>
<event>
 7    1  0.2318319E-009  0.4778727E+02  0.7816164E-02  0.1312668E+00
        -11   -1    0    0    0    0  0.00000000000E+00  0.00000000000E+00  0.45593999997E+02  0.45594000000E+02  0.51100000000E-03 0.  1.
         11   -1    0    0    0    0 -0.00000000000E+00 -0.00000000000E+00 -0.45593999997E+02  0.45594000000E+02  0.51100000000E-03 0. -1.
    9900012    2    1    2    0    0  0.16281040488E+01 -0.11338662963E+02  0.41861766241E+02  0.47787268746E+02  0.19999989521E+02 0.  0.
         12    1    1    2    0    0 -0.16281040488E+01  0.11338662963E+02 -0.41861766241E+02  0.43400731254E+02  0.00000000000E+00 0. -1.
         11    1    3    3    0    0 -0.10203322455E+01 -0.23979929752E+01  0.97167070830E+01  0.10060111580E+02  0.51100000000E-03 0.  1.
        -11    1    3    3    0    0  0.70449837289E+01 -0.80622972502E+01  0.31409011735E+02  0.33183707615E+02  0.51100000000E-03 0. -1.
         12    1    3    3    0    0 -0.43965474346E+01 -0.87837273793E+00  0.73604742288E+00  0.45434495507E+01  0.00000000000E+00 0. -1.
</event>
<event>
 7    1  0.2318319E-009  0.4778727E+02  0.7816164E-02  0.1312668E+00
        -11   -1    0    0    0    0  0.00000000000E+00  0.00000000000E+00  0.45593999997E+02  0.45594000000E+02  0.51100000000E-03 0.  1.
         11   -1    0    0    0    0 -0.00000000000E+00 -0.00000000000E+00 -0.45593999997E+02  0.45594000000E+02  0.51100000000E-03 0. -1.
    9900012    2    1    2    0    0 -0.15453007990E+01 -0.34171441478E+02  0.26712313151E+02  0.47787273726E+02  0.20000012225E+02 0.  0.
         12    1    1    2    0    0  0.15453007990E+01  0.34171441478E+02 -0.26712313151E+02  0.43400726274E+02  0.00000000000E+00 0. -1.
         11    1    3    3    0    0 -0.52393712390E+01 -0.69613587106E+01  0.86668980352E+01  0.12289289967E+02  0.51100000000E-03 0. -1.
        -11    1    3    3    0    0 -0.26839788905E+00 -0.26315963839E+02  0.16904111551E+02  0.31278602555E+02  0.51100000000E-03 0.  1.
         12    1    3    3    0    0  0.39624683291E+01 -0.89411892886E+00  0.11413035648E+01  0.42193812041E+01  0.00000000000E+00 0. -1.
</event>
<event>
 7    1  0.2318319E-009  0.4778728E+02  0.7816164E-02  0.1312668E+00
        -11   -1    0    0    0    0  0.00000000000E+00  0.00000000000E+00  0.45593999997E+02  0.45594000000E+02  0.51100000000E-03 0.  1.
         11   -1    0    0    0    0 -0.00000000000E+00 -0.00000000000E+00 -0.45593999997E+02  0.45594000000E+02  0.51100000000E-03 0. -1.
    9900012    2    1    2    0    0  0.24695613514E+02  0.12924111625E+02  0.33267354939E+02  0.47787275435E+02  0.20000020019E+02 0.  0.
         12    1    1    2    0    0 -0.24695613514E+02 -0.12924111625E+02 -0.33267354939E+02  0.43400724565E+02  0.00000000000E+00 0. -1.
         11    1    3    3    0    0 -0.12261183246E+01 -0.12412552505E+01  0.21312897054E+01  0.27543559706E+01  0.51100000000E-03 0. -1.
        -11    1    3    3    0    0  0.22577153217E+02  0.13519315977E+02  0.32085443302E+02  0.41496691724E+02  0.51100000000E-03 0.  1.
         12    1    3    3    0    0  0.33445786212E+01  0.64605089843E+00 -0.94937806845E+00  0.35362277406E+01  0.00000000000E+00 0. -1.
</event>
<event>
 7    1  0.2318319E-009  0.4778727E+02  0.7816164E-02  0.1312668E+00
        -11   -1    0    0    0    0  0.00000000000E+00  0.00000000000E+00  0.45593999997E+02  0.45594000000E+02  0.51100000000E-03 0.  1.
         11   -1    0    0    0    0 -0.00000000000E+00 -0.00000000000E+00 -0.45593999997E+02  0.45594000000E+02  0.51100000000E-03 0. -1.
    9900012    2    1    2    0    0 -0.10786248999E+02 -0.15752046901E+02  0.38976315338E+02  0.47787270671E+02  0.19999998295E+02 0.  0.
         12    1    1    2    0    0  0.10786248999E+02  0.15752046901E+02 -0.38976315338E+02  0.43400729329E+02  0.00000000000E+00 0. -1.
         11    1    3    3    0    0 -0.24422323881E+01 -0.83204516481E+00 -0.78979370133E-01  0.25812857641E+01  0.51100000000E-03 0. -1.
        -11    1    3    3    0    0 -0.12014632487E+02 -0.12123222244E+02  0.23936755409E+02  0.29398846425E+02  0.51100000000E-03 0.  1.
         12    1    3    3    0    0  0.36706158758E+01 -0.27967794921E+01  0.15118539299E+02  0.15807138482E+02  0.00000000000E+00 0. -1.
</event>
<event>
 7    1  0.2318319E-009  0.4778728E+02  0.7816164E-02  0.1312668E+00
        -11   -1    0    0    0    0  0.00000000000E+00  0.00000000000E+00  0.45593999997E+02  0.45594000000E+02  0.51100000000E-03 0.  1.
         11   -1    0    0    0    0 -0.00000000000E+00 -0.00000000000E+00 -0.45593999997E+02  0.45594000000E+02  0.51100000000E-03 0. -1.
    9900012    2    1    2    0    0  0.53067706069E+01  0.90875473901E+01  0.42105550931E+02  0.47787277068E+02  0.20000027465E+02 0.  0.
         12    1    1    2    0    0 -0.53067706069E+01 -0.90875473901E+01 -0.42105550931E+02  0.43400722932E+02  0.00000000000E+00 0. -1.
         11    1    3    3    0    0  0.32464830400E+01  0.85978288274E+00  0.11886379018E+01  0.35625467095E+01  0.51100000000E-03 0. -1.
        -11    1    3    3    0    0  0.12552832127E+01 -0.41714722170E+01  0.10499590791E+02  0.11367423782E+02  0.51100000000E-03 0.  1.
         12    1    3    3    0    0  0.80500435422E+00  0.12399236724E+02  0.30417322238E+02  0.32857306577E+02  0.00000000000E+00 0. -1.
</event>
<event>
 7    1  0.2318319E-009  0.4778727E+02  0.7816164E-02  0.1312668E+00
        -11   -1    0    0    0    0  0.00000000000E+00  0.00000000000E+00  0.45593999997E+02  0.45594000000E+02  0.51100000000E-03 0.  1.
         11   -1    0    0    0    0 -0.00000000000E+00 -0.00000000000E+00 -0.45593999997E+02  0.45594000000E+02  0.51100000000E-03 0. -1.
    9900012    2    1    2    0    0 -0.14118952854E+02  0.25925782394E+02  0.31814030737E+02  0.47787267585E+02  0.19999984225E+02 0.  0.
         12    1    1    2    0    0  0.14118952854E+02 -0.25925782394E+02 -0.31814030737E+02  0.43400732415E+02  0.00000000000E+00 0. -1.
         11    1    3    3    0    0 -0.54417448447E+01  0.62583337572E+01  0.16101214752E+02  0.18111555569E+02  0.51100000000E-03 0. -1.
        -11    1    3    3    0    0 -0.10096763156E+02  0.16597920171E+02  0.17231535249E+02  0.25968469102E+02  0.51100000000E-03 0.  1.
         12    1    3    3    0    0  0.14195551471E+01  0.30695284660E+01 -0.15187192631E+01  0.37072429135E+01  0.00000000000E+00 0. -1.
</event>
<event>
 7    1  0.2318319E-009  0.4778727E+02  0.7816164E-02  0.1312668E+00
        -11   -1    0    0    0    0  0.00000000000E+00  0.00000000000E+00  0.45593999997E+02  0.45594000000E+02  0.51100000000E-03 0.  1.
         11   -1    0    0    0    0 -0.00000000000E+00 -0.00000000000E+00 -0.45593999997E+02  0.45594000000E+02  0.51100000000E-03 0. -1.
    9900012    2    1    2    0    0 -0.14995250113E+02  0.31949738782E+02  0.25258269772E+02  0.47787268139E+02  0.19999986752E+02 0.  0.
         12    1    1    2    0    0  0.14995250113E+02 -0.31949738782E+02 -0.25258269772E+02  0.43400731861E+02  0.00000000000E+00 0. -1.
         11    1    3    3    0    0 -0.35721955813E+00  0.12721421866E+02  0.72188893648E+01  0.14631286479E+02  0.51100000000E-03 0. -1.
        -11    1    3    3    0    0 -0.10742265661E+02  0.20040788800E+02  0.18271257131E+02  0.29169647318E+02  0.51100000000E-03 0.  1.
        -12    1    3    3    0    0 -0.38957648937E+01 -0.81247188353E+00 -0.23187672394E+00  0.39863343417E+01  0.00000000000E+00 0.  1.
</event>
<event>
 7    1  0.2318319E-009  0.4778727E+02  0.7816164E-02  0.1312668E+00
        -11   -1    0    0    0    0  0.00000000000E+00  0.00000000000E+00  0.45593999997E+02  0.45594000000E+02  0.51100000000E-03 0. -1.
         11   -1    0    0    0    0 -0.00000000000E+00 -0.00000000000E+00 -0.45593999997E+02  0.45594000000E+02  0.51100000000E-03 0.  1.
    9900012    2    1    2    0    0  0.13749894169E+01 -0.38081701995E+02 -0.20772974677E+02  0.47787273052E+02  0.20000009153E+02 0.  0.
         12    1    1    2    0    0 -0.13749894169E+01  0.38081701995E+02  0.20772974677E+02  0.43400726948E+02  0.00000000000E+00 0. -1.
         11    1    3    3    0    0  0.40280110649E+01 -0.11165905796E+01 -0.29922442472E+01  0.51405421463E+01  0.51100000000E-03 0. -1.
        -11    1    3    3    0    0 -0.34658267378E+01 -0.50519065971E+01 -0.61216715223E+01  0.86607492592E+01  0.51100000000E-03 0.  1.
         12    1    3    3    0    0  0.81280508977E+00 -0.31913204818E+02 -0.11659058907E+02  0.33985981646E+02  0.00000000000E+00 0. -1.
</event>
<event>
 7    1  0.2318319E-009  0.4778728E+02  0.7816164E-02  0.1312668E+00
        -11   -1    0    0    0    0  0.00000000000E+00  0.00000000000E+00  0.45593999997E+02  0.45594000000E+02  0.51100000000E-03 0.  1.
         11   -1    0    0    0    0 -0.00000000000E+00 -0.00000000000E+00 -0.45593999997E+02  0.45594000000E+02  0.51100000000E-03 0. -1.
    9900012    2    1    2    0    0  0.35872161037E+02  0.12541603594E+02  0.20964703555E+02  0.47787279345E+02  0.20000037848E+02 0.  0.
         12    1    1    2    0    0 -0.35872161037E+02 -0.12541603594E+02 -0.20964703555E+02  0.43400720655E+02  0.00000000000E+00 0. -1.
         11    1    3    3    0    0  0.15733502379E+02  0.62609558939E+00  0.21723055818E+01  0.15895093727E+02  0.51100000000E-03 0. -1.
        -11    1    3    3    0    0  0.15587273382E+02  0.58263481284E+01  0.74367310171E+01  0.18226749367E+02  0.51100000000E-03 0.  1.
        -12    1    3    3    0    0  0.45513852764E+01  0.60891598761E+01  0.11355666956E+02  0.13665436251E+02  0.00000000000E+00 0.  1.
</event>
<event>
 7    1  0.2318319E-009  0.4778727E+02  0.7816164E-02  0.1312668E+00
        -11   -1    0    0    0    0  0.00000000000E+00  0.00000000000E+00  0.45593999997E+02  0.45594000000E+02  0.51100000000E-03 0. -1.
         11   -1    0    0    0    0 -0.00000000000E+00 -0.00000000000E+00 -0.45593999997E+02  0.45594000000E+02  0.51100000000E-03 0.  1.
    9900012    2    1    2    0    0 -0.13509114925E+01  0.29044551676E+02 -0.32221302120E+02  0.47787271271E+02  0.20000001033E+02 0.  0.
         12    1    1    2    0    0  0.13509114925E+01 -0.29044551676E+02  0.32221302120E+02  0.43400728729E+02  0.00000000000E+00 0. -1.
         11    1    3    3    0    0 -0.45309323402E+01  0.13453689239E+02 -0.98404459332E+01  0.17273259056E+02  0.51100000000E-03 0. -1.
        -11    1    3    3    0    0 -0.31122082820E+01  0.10944388555E+02 -0.72808867463E+01  0.13508397140E+02  0.51100000000E-03 0.  1.
         12    1    3    3    0    0  0.62922291297E+01  0.46464738831E+01 -0.15099969440E+02  0.17005615074E+02  0.00000000000E+00 0. -1.
</event>
<event>
 7    1  0.2318319E-009  0.4778727E+02  0.7816164E-02  0.1312668E+00
        -11   -1    0    0    0    0  0.00000000000E+00  0.00000000000E+00  0.45593999997E+02  0.45594000000E+02  0.51100000000E-03 0.  1.
         11   -1    0    0    0    0 -0.00000000000E+00 -0.00000000000E+00 -0.45593999997E+02  0.45594000000E+02  0.51100000000E-03 0. -1.
    9900012    2    1    2    0    0 -0.47161000823E+00 -0.10372254213E+01  0.43385770902E+02  0.47787269945E+02  0.19999994985E+02 0.  0.
         12    1    1    2    0    0  0.47161000823E+00  0.10372254213E+01 -0.43385770902E+02  0.43400730055E+02  0.00000000000E+00 0. -1.
         11    1    3    3    0    0 -0.23008705497E+01 -0.28664923695E+01  0.42323739302E+01  0.56056911382E+01  0.51100000000E-03 0. -1.
        -11    1    3    3    0    0  0.78940582364E+01  0.70141238471E+00  0.12325048389E+02  0.14653155046E+02  0.51100000000E-03 0.  1.
        -12    1    3    3    0    0 -0.60647976949E+01  0.11278545635E+01  0.26828348583E+02  0.27528423760E+02  0.00000000000E+00 0.  1.
</event>
<event>
 7    1  0.2318319E-009  0.4778727E+02  0.7816164E-02  0.1312668E+00
        -11   -1    0    0    0    0  0.00000000000E+00  0.00000000000E+00  0.45593999997E+02  0.45594000000E+02  0.51100000000E-03 0.  1.
         11   -1    0    0    0    0 -0.00000000000E+00 -0.00000000000E+00 -0.45593999997E+02  0.45594000000E+02  0.51100000000E-03 0. -1.
    9900012    2    1    2    0    0 -0.38443645680E+02  0.97319034308E+01  0.17635172211E+02  0.47787272627E+02  0.20000007218E+02 0.  0.
         12    1    1    2    0    0  0.38443645680E+02 -0.97319034308E+01 -0.17635172211E+02  0.43400727373E+02  0.00000000000E+00 0. -1.
         11    1    3    3    0    0 -0.16825509925E+02 -0.56548408603E+00  0.15705664297E+02  0.23023584598E+02  0.51100000000E-03 0. -1.
        -11    1    3    3    0    0 -0.85333745591E+01  0.51492516127E+01  0.36149581347E+01  0.10601943035E+02  0.51100000000E-03 0.  1.
         12    1    3    3    0    0 -0.13084761196E+02  0.51481359041E+01 -0.16854502204E+01  0.14161744995E+02  0.00000000000E+00 0. -1.
</event>
<event>
 7    1  0.2318319E-009  0.4778728E+02  0.7816164E-02  0.1312668E+00
        -11   -1    0    0    0    0  0.00000000000E+00  0.00000000000E+00  0.45593999997E+02  0.45594000000E+02  0.51100000000E-03 0. -1.
         11   -1    0    0    0    0 -0.00000000000E+00 -0.00000000000E+00 -0.45593999997E+02  0.45594000000E+02  0.51100000000E-03 0.  1.
    9900012    2    1    2    0    0 -0.37615779167E-01 -0.31158087759E+02 -0.30212492205E+02  0.47787279580E+02  0.20000038918E+02 0.  0.
         12    1    1    2    0    0  0.37615779167E-01  0.31158087759E+02  0.30212492205E+02  0.43400720420E+02  0.00000000000E+00 0. -1.
         11    1    3    3    0    0  0.45645666307E+01 -0.12167188480E+02 -0.14716464893E+02  0.19632882703E+02  0.51100000000E-03 0. -1.
        -11    1    3    3    0    0 -0.52145081046E+01 -0.16669916446E+02 -0.17720621529E+02  0.24881672707E+02  0.51100000000E-03 0.  1.
        -12    1    3    3    0    0  0.61232569475E+00 -0.23209828321E+01  0.22245942163E+01  0.32727241696E+01  0.00000000000E+00 0.  1.
</event>
<event>
 7    1  0.2318319E-009  0.4778727E+02  0.7816164E-02  0.1312668E+00
        -11   -1    0    0    0    0  0.00000000000E+00  0.00000000000E+00  0.45593999997E+02  0.45594000000E+02  0.51100000000E-03 0.  1.
         11   -1    0    0    0    0 -0.00000000000E+00 -0.00000000000E+00 -0.45593999997E+02  0.45594000000E+02  0.51100000000E-03 0. -1.
    9900012    2    1    2    0    0  0.19675313620E+02  0.37578911444E+02 -0.91831903209E+01  0.47787268026E+02  0.19999986240E+02 0.  0.
         12    1    1    2    0    0 -0.19675313620E+02 -0.37578911444E+02  0.91831903209E+01  0.43400731974E+02  0.00000000000E+00 0. -1.
         11    1    3    3    0    0  0.81386229104E+01  0.19433221241E+02 -0.45045373849E+01  0.21544793524E+02  0.51100000000E-03 0. -1.
        -11    1    3    3    0    0  0.12851191075E+01  0.14975088664E+02 -0.36183757420E+01  0.15459542518E+02  0.51100000000E-03 0.  1.
         12    1    3    3    0    0  0.10251571602E+02  0.31706015389E+01 -0.10602771940E+01  0.10782931984E+02  0.00000000000E+00 0. -1.
</event>
<event>
 7    1  0.2318319E-009  0.4778727E+02  0.7816164E-02  0.1312668E+00
        -11   -1    0    0    0    0  0.00000000000E+00  0.00000000000E+00  0.45593999997E+02  0.45594000000E+02  0.51100000000E-03 0.  1.
         11   -1    0    0    0    0 -0.00000000000E+00 -0.00000000000E+00 -0.45593999997E+02  0.45594000000E+02  0.51100000000E-03 0. -1.
    9900012    2    1    2    0    0 -0.14425269646E+02 -0.12485273972E+02  0.38982727487E+02  0.47787268291E+02  0.19999987448E+02 0.  0.
         12    1    1    2    0    0  0.14425269646E+02  0.12485273972E+02 -0.38982727487E+02  0.43400731709E+02  0.00000000000E+00 0. -1.
         11    1    3    3    0    0 -0.96532605843E+01 -0.94322937725E+01  0.16692705281E+02  0.21466252947E+02  0.51100000000E-03 0. -1.
        -11    1    3    3    0    0 -0.28346417521E+01 -0.80671013675E+01  0.14960323466E+02  0.17231500132E+02  0.51100000000E-03 0.  1.
         12    1    3    3    0    0 -0.19373673098E+01  0.50141211677E+01  0.73296987398E+01  0.90895152123E+01  0.00000000000E+00 0. -1.
</event>
<event>
 7    1  0.2318319E-009  0.4778727E+02  0.7816164E-02  0.1312668E+00
        -11   -1    0    0    0    0  0.00000000000E+00  0.00000000000E+00  0.45593999997E+02  0.45594000000E+02  0.51100000000E-03 0. -1.
         11   -1    0    0    0    0 -0.00000000000E+00 -0.00000000000E+00 -0.45593999997E+02  0.45594000000E+02  0.51100000000E-03 0.  1.
    9900012    2    1    2    0    0 -0.80662621902E-01 -0.14904055224E+02 -0.40761330542E+02  0.47787269175E+02  0.19999991477E+02 0.  0.
         12    1    1    2    0    0  0.80662621902E-01  0.14904055224E+02  0.40761330542E+02  0.43400730825E+02  0.00000000000E+00 0. -1.
         11    1    3    3    0    0  0.37883249223E+01 -0.19411297862E+01 -0.29323988951E+02  0.29631330021E+02  0.51100000000E-03 0. -1.
        -11    1    3    3    0    0 -0.17961188961E+01 -0.15316731819E+01 -0.28969933699E+01  0.37369287752E+01  0.51100000000E-03 0.  1.
         12    1    3    3    0    0 -0.20728686481E+01 -0.11431252255E+02 -0.85403482213E+01  0.14419010379E+02  0.00000000000E+00 0. -1.
</event>
<event>
 7    1  0.2318319E-009  0.4778727E+02  0.7816164E-02  0.1312668E+00
        -11   -1    0    0    0    0  0.00000000000E+00  0.00000000000E+00  0.45593999997E+02  0.45594000000E+02  0.51100000000E-03 0.  1.
         11   -1    0    0    0    0 -0.00000000000E+00 -0.00000000000E+00 -0.45593999997E+02  0.45594000000E+02  0.51100000000E-03 0. -1.
    9900012    2    1    2    0    0  0.29538980003E+02  0.29624304284E+02  0.11553032749E+02  0.47787270633E+02  0.19999998124E+02 0.  0.
         12    1    1    2    0    0 -0.29538980003E+02 -0.29624304284E+02 -0.11553032749E+02  0.43400729367E+02  0.00000000000E+00 0. -1.
         11    1    3    3    0    0  0.24706210729E+01  0.11863892956E+02  0.12359837930E+01  0.12181279931E+02  0.51100000000E-03 0. -1.
        -11    1    3    3    0    0  0.38356103928E+01  0.34206453194E+01  0.61065636797E+01  0.79814059991E+01  0.51100000000E-03 0.  1.
         12    1    3    3    0    0  0.23232748537E+02  0.14339766008E+02  0.42104852764E+01  0.27624584703E+02  0.00000000000E+00 0. -1.
</event>
<event>
 7    1  0.2318319E-009  0.4778727E+02  0.7816164E-02  0.1312668E+00
        -11   -1    0    0    0    0  0.00000000000E+00  0.00000000000E+00  0.45593999997E+02  0.45594000000E+02  0.51100000000E-03 0.  1.
         11   -1    0    0    0    0 -0.00000000000E+00 -0.00000000000E+00 -0.45593999997E+02  0.45594000000E+02  0.51100000000E-03 0. -1.
    9900012    2    1    2    0    0  0.25055345085E+02 -0.34732993202E+02  0.70336550489E+01  0.47787269160E+02  0.19999991406E+02 0.  0.
         12    1    1    2    0    0 -0.25055345085E+02  0.34732993202E+02 -0.70336550489E+01  0.43400730840E+02  0.00000000000E+00 0. -1.
         11    1    3    3    0    0  0.15921019272E+02 -0.18966094626E+02  0.91671005327E+01  0.26405062629E+02  0.51100000000E-03 0. -1.
        -11    1    3    3    0    0  0.65950211804E+01 -0.13076391349E+02  0.31032381574E+01  0.14970517773E+02  0.51100000000E-03 0.  1.
         12    1    3    3    0    0  0.25393046333E+01 -0.26905072275E+01 -0.52366836412E+01  0.64116887572E+01  0.00000000000E+00 0. -1.
</event>
<event>
 7    1  0.2318319E-009  0.4778727E+02  0.7816164E-02  0.1312668E+00
        -11   -1    0    0    0    0  0.00000000000E+00  0.00000000000E+00  0.45593999997E+02  0.45594000000E+02  0.51100000000E-03 0.  1.
         11   -1    0    0    0    0 -0.00000000000E+00 -0.00000000000E+00 -0.45593999997E+02  0.45594000000E+02  0.51100000000E-03 0. -1.
    9900012    2    1    2    0    0  0.11822889960E+02  0.32836663765E+02  0.25799154991E+02  0.47787267144E+02  0.19999982216E+02 0.  0.
         12    1    1    2    0    0 -0.11822889960E+02 -0.32836663765E+02 -0.25799154991E+02  0.43400732856E+02  0.00000000000E+00 0. -1.
         11    1    3    3    0    0  0.53374237802E+01  0.26507970452E+02  0.17488345896E+02  0.32202528356E+02  0.51100000000E-03 0. -1.
        -11    1    3    3    0    0  0.59800227365E+01  0.67371940405E+01  0.19834947732E+01  0.92241372087E+01  0.51100000000E-03 0.  1.
        -12    1    3    3    0    0  0.50544344339E+00 -0.40850072755E+00  0.63273143224E+01  0.63606015795E+01  0.00000000000E+00 0.  1.
</event>
<event>
 7    1  0.2318319E-009  0.4778727E+02  0.7816164E-02  0.1312668E+00
        -11   -1    0    0    0    0  0.00000000000E+00  0.00000000000E+00  0.45593999997E+02  0.45594000000E+02  0.51100000000E-03 0.  1.
         11   -1    0    0    0    0 -0.00000000000E+00 -0.00000000000E+00 -0.45593999997E+02  0.45594000000E+02  0.51100000000E-03 0. -1.
    9900012    2    1    2    0    0 -0.13177105109E+02 -0.30019308138E+01  0.41242884053E+02  0.47787272210E+02  0.20000005314E+02 0.  0.
         12    1    1    2    0    0  0.13177105109E+02  0.30019308138E+01 -0.41242884053E+02  0.43400727790E+02  0.00000000000E+00 0. -1.
         11    1    3    3    0    0  0.25347160852E+01  0.11595113820E+01  0.13500974019E+01  0.30970979212E+01  0.51100000000E-03 0. -1.
        -11    1    3    3    0    0 -0.56253258047E+00 -0.45708997512E+01  0.13397117357E+02  0.14166591728E+02  0.51100000000E-03 0.  1.
        -12    1    3    3    0    0 -0.15149288614E+02  0.40945755542E+00  0.26495669295E+02  0.30523582561E+02  0.00000000000E+00 0.  1.
</event>
<event>
 7    1  0.2318319E-009  0.4778727E+02  0.7816164E-02  0.1312668E+00
        -11   -1    0    0    0    0  0.00000000000E+00  0.00000000000E+00  0.45593999997E+02  0.45594000000E+02  0.51100000000E-03 0.  1.
         11   -1    0    0    0    0 -0.00000000000E+00 -0.00000000000E+00 -0.45593999997E+02  0.45594000000E+02  0.51100000000E-03 0. -1.
    9900012    2    1    2    0    0 -0.41338276511E+02 -0.12403058206E+01  0.13161746692E+02  0.47787273745E+02  0.20000012314E+02 0.  0.
         12    1    1    2    0    0  0.41338276511E+02  0.12403058206E+01 -0.13161746692E+02  0.43400726255E+02  0.00000000000E+00 0. -1.
         11    1    3    3    0    0 -0.11050646133E+02 -0.78098652375E+01  0.18210597426E+01  0.13653828541E+02  0.51100000000E-03 0. -1.
        -11    1    3    3    0    0 -0.41835816931E+00  0.20106415886E+00  0.22084019166E+01  0.22566545239E+01  0.51100000000E-03 0.  1.
        -12    1    3    3    0    0 -0.29869272209E+02  0.63684952581E+01  0.91322850324E+01  0.31876790680E+02  0.00000000000E+00 0.  1.
</event>
<event>
 7    1  0.2318319E-009  0.4778727E+02  0.7816164E-02  0.1312668E+00
        -11   -1    0    0    0    0  0.00000000000E+00  0.00000000000E+00  0.45593999997E+02  0.45594000000E+02  0.51100000000E-03 0. -1.
         11   -1    0    0    0    0 -0.00000000000E+00 -0.00000000000E+00 -0.45593999997E+02  0.45594000000E+02  0.51100000000E-03 0.  1.
    9900012    2    1    2    0    0  0.85835502798E+01  0.31301241061E+02 -0.28812811102E+02  0.47787272922E+02  0.20000008559E+02 0.  0.
         12    1    1    2    0    0 -0.85835502798E+01 -0.31301241061E+02  0.28812811102E+02  0.43400727078E+02  0.00000000000E+00 0. -1.
         11    1    3    3    0    0  0.98046011548E+01  0.12331329456E+02 -0.10125071826E+02  0.18727225360E+02  0.51100000000E-03 0. -1.
        -11    1    3    3    0    0 -0.16287691432E-01  0.38988191757E+00  0.15276861130E+01  0.15767366043E+01  0.51100000000E-03 0.  1.
        -12    1    3    3    0    0 -0.12047631836E+01  0.18580029687E+02 -0.20215425388E+02  0.27483310957E+02  0.00000000000E+00 0.  1.
</event>
<event>
 7    1  0.2318319E-009  0.4778727E+02  0.7816164E-02  0.1312668E+00
        -11   -1    0    0    0    0  0.00000000000E+00  0.00000000000E+00  0.45593999997E+02  0.45594000000E+02  0.51100000000E-03 0. -1.
         11   -1    0    0    0    0 -0.00000000000E+00 -0.00000000000E+00 -0.45593999997E+02  0.45594000000E+02  0.51100000000E-03 0.  1.
    9900012    2    1    2    0    0 -0.36587644720E+02  0.47885511295E+01 -0.22848132780E+02  0.47787272592E+02  0.20000007054E+02 0.  0.
         12    1    1    2    0    0  0.36587644720E+02 -0.47885511295E+01  0.22848132780E+02  0.43400727408E+02  0.00000000000E+00 0. -1.
         11    1    3    3    0    0 -0.11858440577E+02  0.49148606634E+01 -0.12537445301E+02  0.17943411136E+02  0.51100000000E-03 0.  1.
        -11    1    3    3    0    0  0.18592943871E+00  0.26702437894E+01  0.14226909749E+00  0.26804873453E+01  0.51100000000E-03 0. -1.
        -12    1    3    3    0    0 -0.24915133581E+02 -0.27965533233E+01 -0.10452956577E+02  0.27163374110E+02  0.00000000000E+00 0.  1.
</event>
<event>
 7    1  0.2318319E-009  0.4778727E+02  0.7816164E-02  0.1312668E+00
        -11   -1    0    0    0    0  0.00000000000E+00  0.00000000000E+00  0.45593999997E+02  0.45594000000E+02  0.51100000000E-03 0.  1.
         11   -1    0    0    0    0 -0.00000000000E+00 -0.00000000000E+00 -0.45593999997E+02  0.45594000000E+02  0.51100000000E-03 0. -1.
    9900012    2    1    2    0    0  0.41027424844E+02 -0.51748542741E+01  0.13175529725E+02  0.47787270863E+02  0.19999999172E+02 0.  0.
         12    1    1    2    0    0 -0.41027424844E+02  0.51748542741E+01 -0.13175529725E+02  0.43400729137E+02  0.00000000000E+00 0. -1.
         11    1    3    3    0    0  0.32383940022E+01 -0.26693597737E+01  0.23564813972E+01  0.48130740853E+01  0.51100000000E-03 0. -1.
        -11    1    3    3    0    0  0.20205621344E+02  0.50719974657E+01  0.11537630650E+02  0.23814054957E+02  0.51100000000E-03 0.  1.
         12    1    3    3    0    0  0.17583409497E+02 -0.75774919660E+01 -0.71858232155E+00  0.19160141821E+02  0.00000000000E+00 0. -1.
</event>
<event>
 7    1  0.2318319E-009  0.4778728E+02  0.7816164E-02  0.1312668E+00
        -11   -1    0    0    0    0  0.00000000000E+00  0.00000000000E+00  0.45593999997E+02  0.45594000000E+02  0.51100000000E-03 0.  1.
         11   -1    0    0    0    0 -0.00000000000E+00 -0.00000000000E+00 -0.45593999997E+02  0.45594000000E+02  0.51100000000E-03 0. -1.
    9900012    2    1    2    0    0  0.17395079910E+02 -0.38948380646E+01  0.39570995558E+02  0.47787282747E+02  0.20000053359E+02 0.  0.
         12    1    1    2    0    0 -0.17395079910E+02  0.38948380646E+01 -0.39570995558E+02  0.43400717253E+02  0.00000000000E+00 0. -1.
         11    1    3    3    0    0  0.35873650724E+01  0.54057105533E+01  0.45961994652E+01  0.79508455232E+01  0.51100000000E-03 0. -1.
        -11    1    3    3    0    0 -0.19226258413E+00 -0.40369159575E+01  0.60910360789E+01  0.73098820870E+01  0.51100000000E-03 0.  1.
        -12    1    3    3    0    0  0.13999977421E+02 -0.52636326603E+01  0.28883760014E+02  0.32526555137E+02  0.00000000000E+00 0.  1.
</event>
<event>
 7    1  0.2318319E-009  0.4778727E+02  0.7816164E-02  0.1312668E+00
        -11   -1    0    0    0    0  0.00000000000E+00  0.00000000000E+00  0.45593999997E+02  0.45594000000E+02  0.51100000000E-03 0.  1.
         11   -1    0    0    0    0 -0.00000000000E+00 -0.00000000000E+00 -0.45593999997E+02  0.45594000000E+02  0.51100000000E-03 0. -1.
    9900012    2    1    2    0    0 -0.73391992800E+01 -0.21149704259E+02  0.37181311350E+02  0.47787265559E+02  0.19999974992E+02 0.  0.
         12    1    1    2    0    0  0.73391992800E+01  0.21149704259E+02 -0.37181311350E+02  0.43400734441E+02  0.00000000000E+00 0. -1.
         11    1    3    3    0    0 -0.13721824710E+01 -0.82295664829E+01  0.66211755765E+01  0.10651226010E+02  0.51100000000E-03 0.  1.
        -11    1    3    3    0    0 -0.10655941114E+01 -0.10879172804E+02  0.69894076593E+01  0.12974733577E+02  0.51100000000E-03 0. -1.
        -12    1    3    3    0    0 -0.49014226976E+01 -0.20409649714E+01  0.23570728114E+02  0.24161305972E+02  0.00000000000E+00 0.  1.
</event>
<event>
 7    1  0.2318319E-009  0.4778727E+02  0.7816164E-02  0.1312668E+00
        -11   -1    0    0    0    0  0.00000000000E+00  0.00000000000E+00  0.45593999997E+02  0.45594000000E+02  0.51100000000E-03 0.  1.
         11   -1    0    0    0    0 -0.00000000000E+00 -0.00000000000E+00 -0.45593999997E+02  0.45594000000E+02  0.51100000000E-03 0. -1.
    9900012    2    1    2    0    0  0.36271044315E+00  0.19776221366E+02  0.38631498482E+02  0.47787272295E+02  0.20000005701E+02 0.  0.
         12    1    1    2    0    0 -0.36271044315E+00 -0.19776221366E+02 -0.38631498482E+02  0.43400727705E+02  0.00000000000E+00 0. -1.
         11    1    3    3    0    0  0.25496241390E+01 -0.11163641182E+01  0.25688167996E+01  0.37875680991E+01  0.51100000000E-03 0. -1.
        -11    1    3    3    0    0  0.24410827085E-01 -0.21025138527E+01  0.32421721598E+01  0.38643034254E+01  0.51100000000E-03 0.  1.
        -12    1    3    3    0    0 -0.22113245229E+01  0.22995099337E+02  0.32820509522E+02  0.40135400770E+02  0.00000000000E+00 0.  1.
</event>
<event>
 7    1  0.2318319E-009  0.4778727E+02  0.7816164E-02  0.1312668E+00
        -11   -1    0    0    0    0  0.00000000000E+00  0.00000000000E+00  0.45593999997E+02  0.45594000000E+02  0.51100000000E-03 0.  1.
         11   -1    0    0    0    0 -0.00000000000E+00 -0.00000000000E+00 -0.45593999997E+02  0.45594000000E+02  0.51100000000E-03 0. -1.
    9900012    2    1    2    0    0 -0.26757043258E+01  0.25310749718E+02  0.35154374366E+02  0.47787268647E+02  0.19999989068E+02 0.  0.
         12    1    1    2    0    0  0.26757043258E+01 -0.25310749718E+02 -0.35154374366E+02  0.43400731353E+02  0.00000000000E+00 0. -1.
         11    1    3    3    0    0  0.37814179066E+01  0.48081340300E+01  0.13552022017E+01  0.62652890997E+01  0.51100000000E-03 0. -1.
        -11    1    3    3    0    0 -0.18341321473E+01 -0.76505263533E+00  0.11884754049E+01  0.23155604760E+01  0.51100000000E-03 0.  1.
        -12    1    3    3    0    0 -0.46229900850E+01  0.21267668323E+02  0.32610696760E+02  0.39206419071E+02  0.00000000000E+00 0.  1.
</event>
<event>
 7    1  0.2318319E-009  0.4778727E+02  0.7816164E-02  0.1312668E+00
        -11   -1    0    0    0    0  0.00000000000E+00  0.00000000000E+00  0.45593999997E+02  0.45594000000E+02  0.51100000000E-03 0. -1.
         11   -1    0    0    0    0 -0.00000000000E+00 -0.00000000000E+00 -0.45593999997E+02  0.45594000000E+02  0.51100000000E-03 0.  1.
    9900012    2    1    2    0    0 -0.27794073333E+02 -0.20028913212E+02 -0.26644987180E+02  0.47787271680E+02  0.20000002898E+02 0.  0.
         12    1    1    2    0    0  0.27794073333E+02  0.20028913212E+02  0.26644987180E+02  0.43400728320E+02  0.00000000000E+00 0. -1.
         11    1    3    3    0    0  0.10526399757E+01 -0.31723566382E+01  0.16736056815E+01  0.37380280626E+01  0.51100000000E-03 0. -1.
        -11    1    3    3    0    0 -0.90929697304E+01 -0.76980086839E+01 -0.88526919820E+01  0.14842897015E+02  0.51100000000E-03 0.  1.
         12    1    3    3    0    0 -0.19753743578E+02 -0.91585478898E+01 -0.19465900880E+02  0.29206346602E+02  0.00000000000E+00 0. -1.
</event>
<event>
 7    1  0.2318319E-009  0.4778727E+02  0.7816164E-02  0.1312668E+00
        -11   -1    0    0    0    0  0.00000000000E+00  0.00000000000E+00  0.45593999997E+02  0.45594000000E+02  0.51100000000E-03 0.  1.
         11   -1    0    0    0    0 -0.00000000000E+00 -0.00000000000E+00 -0.45593999997E+02  0.45594000000E+02  0.51100000000E-03 0. -1.
    9900012    2    1    2    0    0  0.29137395860E+02  0.23021020124E+02  0.22464818670E+02  0.47787270940E+02  0.19999999522E+02 0.  0.
         12    1    1    2    0    0 -0.29137395860E+02 -0.23021020124E+02 -0.22464818670E+02  0.43400729060E+02  0.00000000000E+00 0. -1.
         11    1    3    3    0    0  0.24277959245E+01 -0.19606463945E+01  0.93985953384E+00  0.32590893728E+01  0.51100000000E-03 0. -1.
        -11    1    3    3    0    0  0.36472795652E+01 -0.14263284473E+01  0.19986785839E+01  0.43967917178E+01  0.51100000000E-03 0.  1.
        -12    1    3    3    0    0  0.23062320371E+02  0.26407994966E+02  0.19526280552E+02  0.40131389849E+02  0.00000000000E+00 0.  1.
</event>
<event>
 7    1  0.2318319E-009  0.4778728E+02  0.7816164E-02  0.1312668E+00
        -11   -1    0    0    0    0  0.00000000000E+00  0.00000000000E+00  0.45593999997E+02  0.45594000000E+02  0.51100000000E-03 0.  1.
         11   -1    0    0    0    0 -0.00000000000E+00 -0.00000000000E+00 -0.45593999997E+02  0.45594000000E+02  0.51100000000E-03 0. -1.
    9900012    2    1    2    0    0 -0.15795624769E+02 -0.35629034727E+02  0.19096935645E+02  0.47787276176E+02  0.20000023398E+02 0.  0.
         12    1    1    2    0    0  0.15795624769E+02  0.35629034727E+02 -0.19096935645E+02  0.43400723824E+02  0.00000000000E+00 0. -1.
         11    1    3    3    0    0 -0.24977235436E+01 -0.22808678104E+02  0.12415844766E+02  0.26088840933E+02  0.51100000000E-03 0.  1.
        -11    1    3    3    0    0 -0.72687713530E+01 -0.43516840477E+01  0.74402018615E+01  0.11275140577E+02  0.51100000000E-03 0. -1.
        -12    1    3    3    0    0 -0.60291298722E+01 -0.84686725753E+01 -0.75911098239E+00  0.10423294666E+02  0.00000000000E+00 0.  1.
</event>
<event>
 7    1  0.2318319E-009  0.4778725E+02  0.7816164E-02  0.1312668E+00
        -11   -1    0    0    0    0  0.00000000000E+00  0.00000000000E+00  0.45593999997E+02  0.45594000000E+02  0.51100000000E-03 0. -1.
         11   -1    0    0    0    0 -0.00000000000E+00 -0.00000000000E+00 -0.45593999997E+02  0.45594000000E+02  0.51100000000E-03 0.  1.
    9900012    2    1    2    0    0 -0.27111931673E+02 -0.41953751789E+01 -0.33629856198E+02  0.47787248396E+02  0.19999896736E+02 0.  0.
         12    1    1    2    0    0  0.27111931673E+02  0.41953751789E+01  0.33629856198E+02  0.43400751604E+02  0.00000000000E+00 0. -1.
         11    1    3    3    0    0 -0.82351666565E+00 -0.40446210114E+01 -0.32999507255E+01  0.52845826587E+01  0.51100000000E-03 0. -1.
        -11    1    3    3    0    0 -0.35628517019E+01  0.14773178673E+00  0.10860575671E+01  0.37276344014E+01  0.51100000000E-03 0.  1.
        -12    1    3    3    0    0 -0.22725563305E+02 -0.29848595430E+00 -0.31415963039E+02  0.38775031336E+02  0.00000000000E+00 0.  1.
</event>
<event>
 7    1  0.2318319E-009  0.4778727E+02  0.7816164E-02  0.1312668E+00
        -11   -1    0    0    0    0  0.00000000000E+00  0.00000000000E+00  0.45593999997E+02  0.45594000000E+02  0.51100000000E-03 0. -1.
         11   -1    0    0    0    0 -0.00000000000E+00 -0.00000000000E+00 -0.45593999997E+02  0.45594000000E+02  0.51100000000E-03 0.  1.
    9900012    2    1    2    0    0  0.27970130212E+02  0.26268301185E+01 -0.33081641871E+02  0.47787269022E+02  0.19999990780E+02 0.  0.
         12    1    1    2    0    0 -0.27970130212E+02 -0.26268301185E+01  0.33081641871E+02  0.43400730978E+02  0.00000000000E+00 0. -1.
         11    1    3    3    0    0  0.63345530157E+01  0.35591175485E+01 -0.20102327022E+02  0.21375159218E+02  0.51100000000E-03 0. -1.
        -11    1    3    3    0    0  0.33670300112E+01  0.21730475944E+01 -0.42637268826E+00  0.40299901829E+01  0.51100000000E-03 0.  1.
        -12    1    3    3    0    0  0.18268547185E+02 -0.31053350243E+01 -0.12552942161E+02  0.22382119621E+02  0.00000000000E+00 0.  1.
</event>
<event>
 7    1  0.2318319E-009  0.4778726E+02  0.7816164E-02  0.1312668E+00
        -11   -1    0    0    0    0  0.00000000000E+00  0.00000000000E+00  0.45593999997E+02  0.45594000000E+02  0.51100000000E-03 0.  1.
         11   -1    0    0    0    0 -0.00000000000E+00 -0.00000000000E+00 -0.45593999997E+02  0.45594000000E+02  0.51100000000E-03 0. -1.
    9900012    2    1    2    0    0  0.31825328204E+02  0.22725496664E+02  0.18823519757E+02  0.47787255652E+02  0.19999929821E+02 0.  0.
         12    1    1    2    0    0 -0.31825328204E+02 -0.22725496664E+02 -0.18823519757E+02  0.43400744348E+02  0.00000000000E+00 0. -1.
         11    1    3    3    0    0  0.31405720435E+02  0.14599793119E+02  0.14683270312E+02  0.37617438276E+02  0.51100000000E-03 0.  1.
        -11    1    3    3    0    0  0.23094073991E+01  0.36650089815E+01  0.11696173931E+01  0.44870545436E+01  0.51100000000E-03 0. -1.
        -12    1    3    3    0    0 -0.18897996299E+01  0.44606945630E+01  0.29706320514E+01  0.56827628325E+01  0.00000000000E+00 0.  1.
</event>
<event>
 7    1  0.2318319E-009  0.4778727E+02  0.7816164E-02  0.1312668E+00
        -11   -1    0    0    0    0  0.00000000000E+00  0.00000000000E+00  0.45593999997E+02  0.45594000000E+02  0.51100000000E-03 0. -1.
         11   -1    0    0    0    0 -0.00000000000E+00 -0.00000000000E+00 -0.45593999997E+02  0.45594000000E+02  0.51100000000E-03 0.  1.
    9900012    2    1    2    0    0 -0.21235677415E+02  0.31637336001E+02 -0.20778556761E+02  0.47787269066E+02  0.19999990978E+02 0.  0.
         12    1    1    2    0    0  0.21235677415E+02 -0.31637336001E+02  0.20778556761E+02  0.43400730934E+02  0.00000000000E+00 0. -1.
         11    1    3    3    0    0  0.39512585660E+00  0.56784853084E+00 -0.10773063454E+00  0.70013037877E+00  0.51100000000E-03 0. -1.
        -11    1    3    3    0    0 -0.18765669287E+02  0.24324406874E+02 -0.68990039342E+01  0.31486876140E+02  0.51100000000E-03 0.  1.
        -12    1    3    3    0    0 -0.28651339850E+01  0.67450805971E+01 -0.13771822193E+02  0.15600262546E+02  0.00000000000E+00 0.  1.
</event>
<event>
 7    1  0.2318319E-009  0.4778727E+02  0.7816164E-02  0.1312668E+00
        -11   -1    0    0    0    0  0.00000000000E+00  0.00000000000E+00  0.45593999997E+02  0.45594000000E+02  0.51100000000E-03 0.  1.
         11   -1    0    0    0    0 -0.00000000000E+00 -0.00000000000E+00 -0.45593999997E+02  0.45594000000E+02  0.51100000000E-03 0. -1.
    9900012    2    1    2    0    0 -0.80069712192E+00 -0.19442927291E+02  0.38793746176E+02  0.47787270976E+02  0.19999999686E+02 0.  0.
         12    1    1    2    0    0  0.80069712192E+00  0.19442927291E+02 -0.38793746176E+02  0.43400729024E+02  0.00000000000E+00 0. -1.
         11    1    3    3    0    0 -0.81883738308E+01 -0.30457446140E+01  0.16121151120E+02  0.18336235708E+02  0.51100000000E-03 0.  1.
        -11    1    3    3    0    0  0.10103785841E+01 -0.20465219163E+01  0.59609117596E+00  0.23589069053E+01  0.51100000000E-03 0. -1.
        -12    1    3    3    0    0  0.63772981248E+01 -0.14350660761E+02  0.22076503879E+02  0.27092128362E+02  0.00000000000E+00 0.  1.
</event>
<event>
 7    1  0.2318319E-009  0.4778727E+02  0.7816164E-02  0.1312668E+00
        -11   -1    0    0    0    0  0.00000000000E+00  0.00000000000E+00  0.45593999997E+02  0.45594000000E+02  0.51100000000E-03 0. -1.
         11   -1    0    0    0    0 -0.00000000000E+00 -0.00000000000E+00 -0.45593999997E+02  0.45594000000E+02  0.51100000000E-03 0.  1.
    9900012    2    1    2    0    0 -0.25465070566E+02  0.17628057081E+02 -0.30404025879E+02  0.47787274142E+02  0.20000014122E+02 0.  0.
         12    1    1    2    0    0  0.25465070566E+02 -0.17628057081E+02  0.30404025879E+02  0.43400725858E+02  0.00000000000E+00 0. -1.
         11    1    3    3    0    0 -0.22954876482E+01  0.81720684327E+01 -0.73530255469E+01  0.11230269408E+02  0.51100000000E-03 0.  1.
        -11    1    3    3    0    0 -0.88591938181E-01  0.10812492125E+01 -0.73123998478E+01  0.73924380407E+01  0.51100000000E-03 0. -1.
         12    1    3    3    0    0 -0.23080990979E+02  0.83747394357E+01 -0.15738600484E+02  0.29164566694E+02  0.00000000000E+00 0. -1.
</event>
<event>
 7    1  0.2318319E-009  0.4778724E+02  0.7816164E-02  0.1312668E+00
        -11   -1    0    0    0    0  0.00000000000E+00  0.00000000000E+00  0.45593999997E+02  0.45594000000E+02  0.51100000000E-03 0.  1.
         11   -1    0    0    0    0 -0.00000000000E+00 -0.00000000000E+00 -0.45593999997E+02  0.45594000000E+02  0.51100000000E-03 0. -1.
    9900012    2    1    2    0    0  0.17835221300E+02 -0.38650954316E+02 -0.84637150572E+01  0.47787241240E+02  0.19999864107E+02 0.  0.
         12    1    1    2    0    0 -0.17835221300E+02  0.38650954316E+02  0.84637150572E+01  0.43400758760E+02  0.00000000000E+00 0. -1.
         11    1    3    3    0    0  0.31642557000E+01 -0.99262194174E+01 -0.63113095687E+01  0.12180926680E+02  0.51100000000E-03 0. -1.
        -11    1    3    3    0    0  0.82001986939E+01 -0.29793474391E+01 -0.24371935007E+01  0.90586799371E+01  0.51100000000E-03 0.  1.
        -12    1    3    3    0    0  0.64707669066E+01 -0.25745387460E+02  0.28478801215E+00  0.26547634622E+02  0.00000000000E+00 0.  1.
</event>
<event>
 7    1  0.2318319E-009  0.4778727E+02  0.7816164E-02  0.1312668E+00
        -11   -1    0    0    0    0  0.00000000000E+00  0.00000000000E+00  0.45593999997E+02  0.45594000000E+02  0.51100000000E-03 0. -1.
         11   -1    0    0    0    0 -0.00000000000E+00 -0.00000000000E+00 -0.45593999997E+02  0.45594000000E+02  0.51100000000E-03 0.  1.
    9900012    2    1    2    0    0  0.21785734216E+01  0.27169090330E+02 -0.33774507721E+02  0.47787273932E+02  0.20000013163E+02 0.  0.
         12    1    1    2    0    0 -0.21785734216E+01 -0.27169090330E+02  0.33774507721E+02  0.43400726068E+02  0.00000000000E+00 0. -1.
         11    1    3    3    0    0 -0.12571392998E+01  0.79734875058E+01 -0.12222710395E+02  0.14647578363E+02  0.51100000000E-03 0. -1.
        -11    1    3    3    0    0 -0.34110069309E+01  0.63876149614E+01 -0.16052537954E+02  0.17610240436E+02  0.51100000000E-03 0.  1.
         12    1    3    3    0    0  0.68467196524E+01  0.12807987863E+02 -0.54992593708E+01  0.15529455133E+02  0.00000000000E+00 0. -1.
</event>
<event>
 7    1  0.2318319E-009  0.4778727E+02  0.7816164E-02  0.1312668E+00
        -11   -1    0    0    0    0  0.00000000000E+00  0.00000000000E+00  0.45593999997E+02  0.45594000000E+02  0.51100000000E-03 0. -1.
         11   -1    0    0    0    0 -0.00000000000E+00 -0.00000000000E+00 -0.45593999997E+02  0.45594000000E+02  0.51100000000E-03 0.  1.
    9900012    2    1    2    0    0  0.37103673077E+02  0.30769122665E+01  0.22304106497E+02  0.47787272915E+02  0.20000008527E+02 0.  0.
         12    1    1    2    0    0 -0.37103673077E+02 -0.30769122665E+01 -0.22304106497E+02  0.43400727085E+02  0.00000000000E+00 0. -1.
         11    1    3    3    0    0  0.73141619630E+01  0.73977738782E+00  0.92624992367E+01  0.11825317255E+02  0.51100000000E-03 0. -1.
        -11    1    3    3    0    0  0.22373941016E+02 -0.21184035313E+01  0.15091935717E+02  0.27071154280E+02  0.51100000000E-03 0.  1.
         12    1    3    3    0    0  0.74155700983E+01  0.44555384099E+01 -0.20503284563E+01  0.88908013803E+01  0.00000000000E+00 0. -1.
</event>
<event>
 7    1  0.2318319E-009  0.4778727E+02  0.7816164E-02  0.1312668E+00
        -11   -1    0    0    0    0  0.00000000000E+00  0.00000000000E+00  0.45593999997E+02  0.45594000000E+02  0.51100000000E-03 0. -1.
         11   -1    0    0    0    0 -0.00000000000E+00 -0.00000000000E+00 -0.45593999997E+02  0.45594000000E+02  0.51100000000E-03 0.  1.
    9900012    2    1    2    0    0  0.71260496328E+01 -0.22847821071E+02 -0.36205249338E+02  0.47787267394E+02  0.19999983358E+02 0.  0.
         12    1    1    2    0    0 -0.71260496328E+01  0.22847821071E+02  0.36205249338E+02  0.43400732606E+02  0.00000000000E+00 0. -1.
         11    1    3    3    0    0  0.34295007069E+01 -0.15295025358E+01 -0.12694934770E+02  0.13238663912E+02  0.51100000000E-03 0. -1.
        -11    1    3    3    0    0  0.39405601649E+01 -0.23241736548E+01 -0.34082147610E+00  0.45875872886E+01  0.51100000000E-03 0.  1.
        -12    1    3    3    0    0 -0.24401123902E+00 -0.18994144880E+02 -0.23169493093E+02  0.29961016194E+02  0.00000000000E+00 0.  1.
</event>
<event>
 7    1  0.2318319E-009  0.4778727E+02  0.7816164E-02  0.1312668E+00
        -11   -1    0    0    0    0  0.00000000000E+00  0.00000000000E+00  0.45593999997E+02  0.45594000000E+02  0.51100000000E-03 0.  1.
         11   -1    0    0    0    0 -0.00000000000E+00 -0.00000000000E+00 -0.45593999997E+02  0.45594000000E+02  0.51100000000E-03 0. -1.
    9900012    2    1    2    0    0  0.78698119468E+01 -0.36247050636E+02  0.22535318517E+02  0.47787271890E+02  0.20000003853E+02 0.  0.
         12    1    1    2    0    0 -0.78698119468E+01  0.36247050636E+02 -0.22535318517E+02  0.43400728110E+02  0.00000000000E+00 0. -1.
         11    1    3    3    0    0  0.22372540619E+01 -0.12679007306E+01  0.40178316874E+01  0.47703091859E+01  0.51100000000E-03 0. -1.
        -11    1    3    3    0    0  0.52794198986E+01 -0.17644054734E+02  0.17876832918E+02  0.25666439125E+02  0.51100000000E-03 0.  1.
         12    1    3    3    0    0  0.35313798629E+00 -0.17335095171E+02  0.64065391190E+00  0.17350523578E+02  0.00000000000E+00 0. -1.
</event>
<event>
 7    1  0.2318319E-009  0.4778727E+02  0.7816164E-02  0.1312668E+00
        -11   -1    0    0    0    0  0.00000000000E+00  0.00000000000E+00  0.45593999997E+02  0.45594000000E+02  0.51100000000E-03 0.  1.
         11   -1    0    0    0    0 -0.00000000000E+00 -0.00000000000E+00 -0.45593999997E+02  0.45594000000E+02  0.51100000000E-03 0. -1.
    9900012    2    1    2    0    0 -0.31655426738E+01  0.17579600445E+02  0.39554527872E+02  0.47787266280E+02  0.19999978278E+02 0.  0.
         12    1    1    2    0    0  0.31655426738E+01 -0.17579600445E+02 -0.39554527872E+02  0.43400733720E+02  0.00000000000E+00 0. -1.
         11    1    3    3    0    0 -0.31893375063E+01 -0.20158574985E+01  0.46341461483E+00  0.38013561461E+01  0.51100000000E-03 0. -1.
        -11    1    3    3    0    0 -0.65284230708E+00  0.33313845401E+01  0.11079845098E+02  0.11588239455E+02  0.51100000000E-03 0.  1.
        -12    1    3    3    0    0  0.67663713960E+00  0.16264073403E+02  0.28011268160E+02  0.32397670679E+02  0.00000000000E+00 0.  1.
</event>
<event>
 7    1  0.2318319E-009  0.4778727E+02  0.7816164E-02  0.1312668E+00
        -11   -1    0    0    0    0  0.00000000000E+00  0.00000000000E+00  0.45593999997E+02  0.45594000000E+02  0.51100000000E-03 0.  1.
         11   -1    0    0    0    0 -0.00000000000E+00 -0.00000000000E+00 -0.45593999997E+02  0.45594000000E+02  0.51100000000E-03 0. -1.
    9900012    2    1    2    0    0  0.42879104224E+02 -0.40148703122E+01  0.53746149276E+01  0.47787271339E+02  0.20000001345E+02 0.  0.
         12    1    1    2    0    0 -0.42879104224E+02  0.40148703122E+01 -0.53746149276E+01  0.43400728661E+02  0.00000000000E+00 0. -1.
         11    1    3    3    0    0  0.18129723003E+01 -0.52080175392E+00  0.33829633696E+01  0.38733118193E+01  0.51100000000E-03 0. -1.
        -11    1    3    3    0    0  0.27078293076E+02 -0.77260709858E+01  0.59342818937E+01  0.28777453512E+02  0.51100000000E-03 0.  1.
         12    1    3    3    0    0  0.13987838847E+02  0.42320024275E+01 -0.39426303357E+01  0.15136506008E+02  0.00000000000E+00 0. -1.
</event>
<event>
 7    1  0.2318319E-009  0.4778727E+02  0.7816164E-02  0.1312668E+00
        -11   -1    0    0    0    0  0.00000000000E+00  0.00000000000E+00  0.45593999997E+02  0.45594000000E+02  0.51100000000E-03 0.  1.
         11   -1    0    0    0    0 -0.00000000000E+00 -0.00000000000E+00 -0.45593999997E+02  0.45594000000E+02  0.51100000000E-03 0. -1.
    9900012    2    1    2    0    0  0.30950885517E+02 -0.19623298127E+02  0.23250643884E+02  0.47787267464E+02  0.19999983674E+02 0.  0.
         12    1    1    2    0    0 -0.30950885517E+02  0.19623298127E+02 -0.23250643884E+02  0.43400732536E+02  0.00000000000E+00 0. -1.
         11    1    3    3    0    0  0.13721448198E+02 -0.12208768897E+02  0.14137173138E+02  0.23177399406E+02  0.51100000000E-03 0.  1.
        -11    1    3    3    0    0  0.13280662848E+00 -0.19108796102E+01  0.61056967417E+01  0.63991117703E+01  0.51100000000E-03 0. -1.
         12    1    3    3    0    0  0.17096630690E+02 -0.55036496198E+01  0.30077740047E+01  0.18210756287E+02  0.00000000000E+00 0. -1.
</event>
<event>
 7    1  0.2318319E-009  0.4778727E+02  0.7816164E-02  0.1312668E+00
        -11   -1    0    0    0    0  0.00000000000E+00  0.00000000000E+00  0.45593999997E+02  0.45594000000E+02  0.51100000000E-03 0.  1.
         11   -1    0    0    0    0 -0.00000000000E+00 -0.00000000000E+00 -0.45593999997E+02  0.45594000000E+02  0.51100000000E-03 0. -1.
    9900012    2    1    2    0    0 -0.27215375395E+02 -0.33760035463E+02 -0.17907798689E+01  0.47787267922E+02  0.19999985765E+02 0.  0.
         12    1    1    2    0    0  0.27215375395E+02  0.33760035463E+02  0.17907798689E+01  0.43400732078E+02  0.00000000000E+00 0. -1.
         11    1    3    3    0    0 -0.20967035472E+01 -0.12398494337E+02  0.97803192718E+00  0.12612508644E+02  0.51100000000E-03 0.  1.
        -11    1    3    3    0    0  0.12429540335E+01 -0.17171174992E+01 -0.70500475628E+00  0.22339335717E+01  0.51100000000E-03 0. -1.
        -12    1    3    3    0    0 -0.26361625881E+02 -0.19644423627E+02 -0.20638070398E+01  0.32940825707E+02  0.00000000000E+00 0.  1.
</event>
<event>
 7    1  0.2318319E-009  0.4778727E+02  0.7816164E-02  0.1312668E+00
        -11   -1    0    0    0    0  0.00000000000E+00  0.00000000000E+00  0.45593999997E+02  0.45594000000E+02  0.51100000000E-03 0. -1.
         11   -1    0    0    0    0 -0.00000000000E+00 -0.00000000000E+00 -0.45593999997E+02  0.45594000000E+02  0.51100000000E-03 0.  1.
    9900012    2    1    2    0    0 -0.23979775086E+02 -0.12919632157E+02  0.33788710829E+02  0.47787268581E+02  0.19999988766E+02 0.  0.
         12    1    1    2    0    0  0.23979775086E+02  0.12919632157E+02 -0.33788710829E+02  0.43400731419E+02  0.00000000000E+00 0. -1.
         11    1    3    3    0    0 -0.11441373585E+02 -0.92683319478E+01  0.26215696300E+02  0.30067752482E+02  0.51100000000E-03 0. -1.
        -11    1    3    3    0    0 -0.22730681968E+01 -0.47659907201E+01  0.45234663262E+01  0.69529313557E+01  0.51100000000E-03 0.  1.
        -12    1    3    3    0    0 -0.10265333304E+02  0.11146905108E+01  0.30495482035E+01  0.10766584743E+02  0.00000000000E+00 0.  1.
</event>
<event>
 7    1  0.2318319E-009  0.4778727E+02  0.7816164E-02  0.1312668E+00
        -11   -1    0    0    0    0  0.00000000000E+00  0.00000000000E+00  0.45593999997E+02  0.45594000000E+02  0.51100000000E-03 0.  1.
         11   -1    0    0    0    0 -0.00000000000E+00 -0.00000000000E+00 -0.45593999997E+02  0.45594000000E+02  0.51100000000E-03 0. -1.
    9900012    2    1    2    0    0  0.22798932833E+02  0.21504631519E+02  0.30023032994E+02  0.47787273909E+02  0.20000013059E+02 0.  0.
         12    1    1    2    0    0 -0.22798932833E+02 -0.21504631519E+02 -0.30023032994E+02  0.43400726091E+02  0.00000000000E+00 0. -1.
         11    1    3    3    0    0  0.13316600053E+02  0.94514191640E+01  0.54058373865E+01  0.17201285978E+02  0.51100000000E-03 0.  1.
        -11    1    3    3    0    0 -0.63791489798E-01  0.31228561338E+01  0.51302183122E+00  0.31653580282E+01  0.51100000000E-03 0. -1.
        -12    1    3    3    0    0  0.95461242696E+01  0.89303562214E+01  0.24104173776E+02  0.27420629902E+02  0.00000000000E+00 0.  1.
</event>
<event>
 7    1  0.2318319E-009  0.4778727E+02  0.7816164E-02  0.1312668E+00
        -11   -1    0    0    0    0  0.00000000000E+00  0.00000000000E+00  0.45593999997E+02  0.45594000000E+02  0.51100000000E-03 0. -1.
         11   -1    0    0    0    0 -0.00000000000E+00 -0.00000000000E+00 -0.45593999997E+02  0.45594000000E+02  0.51100000000E-03 0.  1.
    9900012    2    1    2    0    0 -0.35267766055E+02  0.23838962565E+02 -0.84564626933E+01  0.47787271665E+02  0.20000002829E+02 0.  0.
         12    1    1    2    0    0  0.35267766055E+02 -0.23838962565E+02  0.84564626933E+01  0.43400728335E+02  0.00000000000E+00 0. -1.
         11    1    3    3    0    0  0.24192807502E+00  0.32634733969E+00  0.28045632460E+01  0.28338325712E+01  0.51100000000E-03 0. -1.
        -11    1    3    3    0    0 -0.13806245221E+02  0.12734594543E+02 -0.15453236703E+01  0.18845963249E+02  0.51100000000E-03 0.  1.
        -12    1    3    3    0    0 -0.21703448909E+02  0.10778020682E+02 -0.97157022691E+01  0.26107475844E+02  0.00000000000E+00 0.  1.
</event>
<event>
 7    1  0.2318319E-009  0.4778727E+02  0.7816164E-02  0.1312668E+00
        -11   -1    0    0    0    0  0.00000000000E+00  0.00000000000E+00  0.45593999997E+02  0.45594000000E+02  0.51100000000E-03 0.  1.
         11   -1    0    0    0    0 -0.00000000000E+00 -0.00000000000E+00 -0.45593999997E+02  0.45594000000E+02  0.51100000000E-03 0. -1.
    9900012    2    1    2    0    0  0.10660673784E+02  0.37738935906E+02  0.18594244723E+02  0.47787272061E+02  0.20000004635E+02 0.  0.
         12    1    1    2    0    0 -0.10660673784E+02 -0.37738935906E+02 -0.18594244723E+02  0.43400727939E+02  0.00000000000E+00 0. -1.
         11    1    3    3    0    0  0.78685823282E+01  0.11080351143E+02  0.34053022642E+00  0.13594290361E+02  0.51100000000E-03 0. -1.
        -11    1    3    3    0    0  0.24396656190E+01  0.29352957641E+01 -0.63135338878E+00  0.38686608688E+01  0.51100000000E-03 0.  1.
        -12    1    3    3    0    0  0.35242583669E+00  0.23723288998E+02  0.18885067885E+02  0.30324320832E+02  0.00000000000E+00 0.  1.
</event>
<event>
 7    1  0.2318319E-009  0.4778727E+02  0.7816164E-02  0.1312668E+00
        -11   -1    0    0    0    0  0.00000000000E+00  0.00000000000E+00  0.45593999997E+02  0.45594000000E+02  0.51100000000E-03 0.  1.
         11   -1    0    0    0    0 -0.00000000000E+00 -0.00000000000E+00 -0.45593999997E+02  0.45594000000E+02  0.51100000000E-03 0. -1.
    9900012    2    1    2    0    0  0.30343151381E+02  0.28787260351E+02  0.11584907408E+02  0.47787271044E+02  0.20000000000E+02 0.  0.
         12    1    1    2    0    0 -0.30343151381E+02 -0.28787260351E+02 -0.11584907408E+02  0.43400728956E+02  0.00000000000E+00 0. -1.
         11    1    3    3    0    0  0.20592544214E+01 -0.62243402137E+00 -0.23570112187E+01  0.31911526177E+01  0.51100000000E-03 0. -1.
        -11    1    3    3    0    0  0.69975023315E+01  0.21775765522E+01  0.50697568788E+01  0.89111903577E+01  0.51100000000E-03 0.  1.
         12    1    3    3    0    0  0.21286394628E+02  0.27232117820E+02  0.88721617475E+01  0.35684928069E+02  0.00000000000E+00 0. -1.
</event>
<event>
 7    1  0.2318319E-009  0.4778727E+02  0.7816164E-02  0.1312668E+00
        -11   -1    0    0    0    0  0.00000000000E+00  0.00000000000E+00  0.45593999997E+02  0.45594000000E+02  0.51100000000E-03 0.  1.
         11   -1    0    0    0    0 -0.00000000000E+00 -0.00000000000E+00 -0.45593999997E+02  0.45594000000E+02  0.51100000000E-03 0. -1.
    9900012    2    1    2    0    0  0.31610709656E+02 -0.13072869049E+02  0.26711167727E+02  0.47787270151E+02  0.19999995925E+02 0.  0.
         12    1    1    2    0    0 -0.31610709656E+02  0.13072869049E+02 -0.26711167727E+02  0.43400729849E+02  0.00000000000E+00 0. -1.
         11    1    3    3    0    0 -0.73488258957E+00 -0.13308479136E+01 -0.13930469009E+01  0.20619865467E+01  0.51100000000E-03 0. -1.
        -11    1    3    3    0    0  0.24371102636E+02 -0.12772106655E+02  0.18297269359E+02  0.33043417172E+02  0.51100000000E-03 0.  1.
         12    1    3    3    0    0  0.79744896094E+01  0.10300855204E+01  0.98069452683E+01  0.12681866432E+02  0.00000000000E+00 0. -1.
</event>
<event>
 7    1  0.2318319E-009  0.4778727E+02  0.7816164E-02  0.1312668E+00
        -11   -1    0    0    0    0  0.00000000000E+00  0.00000000000E+00  0.45593999997E+02  0.45594000000E+02  0.51100000000E-03 0.  1.
         11   -1    0    0    0    0 -0.00000000000E+00 -0.00000000000E+00 -0.45593999997E+02  0.45594000000E+02  0.51100000000E-03 0. -1.
    9900012    2    1    2    0    0  0.76335942409E+01  0.40256353307E+02  0.14310046253E+02  0.47787272282E+02  0.20000005645E+02 0.  0.
         12    1    1    2    0    0 -0.76335942409E+01 -0.40256353307E+02 -0.14310046253E+02  0.43400727718E+02  0.00000000000E+00 0. -1.
         11    1    3    3    0    0 -0.39413568310E+01  0.63961751601E+01  0.64373500342E+01  0.98936760646E+01  0.51100000000E-03 0. -1.
        -11    1    3    3    0    0  0.23004145057E+01  0.17409278911E+02  0.34658864889E+00  0.17564026391E+02  0.51100000000E-03 0.  1.
        -12    1    3    3    0    0  0.92745365663E+01  0.16450899236E+02  0.75261075699E+01  0.20329569827E+02  0.00000000000E+00 0.  1.
</event>
<event>
 7    1  0.2318319E-009  0.4778727E+02  0.7816164E-02  0.1312668E+00
        -11   -1    0    0    0    0  0.00000000000E+00  0.00000000000E+00  0.45593999997E+02  0.45594000000E+02  0.51100000000E-03 0.  1.
         11   -1    0    0    0    0 -0.00000000000E+00 -0.00000000000E+00 -0.45593999997E+02  0.45594000000E+02  0.51100000000E-03 0. -1.
    9900012    2    1    2    0    0  0.40656500491E+01  0.43167075722E+02 -0.19228969631E+01  0.47787268791E+02  0.19999989726E+02 0.  0.
         12    1    1    2    0    0 -0.40656500491E+01 -0.43167075722E+02  0.19228969631E+01  0.43400731209E+02  0.00000000000E+00 0. -1.
         11    1    3    3    0    0  0.49597788283E+01  0.40894200442E+01 -0.10166485674E+01  0.65081746207E+01  0.51100000000E-03 0. -1.
        -11    1    3    3    0    0  0.36281768640E+01  0.16326754791E+02 -0.55519309066E+01  0.17622443826E+02  0.51100000000E-03 0.  1.
        -12    1    3    3    0    0 -0.45223056432E+01  0.22750900887E+02  0.46456825108E+01  0.23656650344E+02  0.00000000000E+00 0.  1.
</event>
<event>
 7    1  0.2318319E-009  0.4778724E+02  0.7816164E-02  0.1312668E+00
        -11   -1    0    0    0    0  0.00000000000E+00  0.00000000000E+00  0.45593999997E+02  0.45594000000E+02  0.51100000000E-03 0.  1.
         11   -1    0    0    0    0 -0.00000000000E+00 -0.00000000000E+00 -0.45593999997E+02  0.45594000000E+02  0.51100000000E-03 0. -1.
    9900012    2    1    2    0    0  0.40742606780E+02 -0.14339800405E+02  0.42468631754E+01  0.47787242752E+02  0.19999871004E+02 0.  0.
         12    1    1    2    0    0 -0.40742606780E+02  0.14339800405E+02 -0.42468631754E+01  0.43400757248E+02  0.00000000000E+00 0. -1.
         11    1    3    3    0    0  0.11572996210E+01  0.36186480832E+01  0.10664006816E+01  0.39460318090E+01  0.51100000000E-03 0. -1.
        -11    1    3    3    0    0  0.27150088989E+02 -0.12170072142E+02  0.43749743097E+01  0.30072884606E+02  0.51100000000E-03 0.  1.
        -12    1    3    3    0    0  0.12435218169E+02 -0.57883763466E+01 -0.11945118159E+01  0.13768326337E+02  0.00000000000E+00 0.  1.
</event>
<event>
 7    1  0.2318319E-009  0.4778727E+02  0.7816164E-02  0.1312668E+00
        -11   -1    0    0    0    0  0.00000000000E+00  0.00000000000E+00  0.45593999997E+02  0.45594000000E+02  0.51100000000E-03 0.  1.
         11   -1    0    0    0    0 -0.00000000000E+00 -0.00000000000E+00 -0.45593999997E+02  0.45594000000E+02  0.51100000000E-03 0. -1.
    9900012    2    1    2    0    0 -0.41631357508E+02 -0.11985231539E+02  0.26091034166E+01  0.47787272776E+02  0.20000007893E+02 0.  0.
         12    1    1    2    0    0  0.41631357508E+02  0.11985231539E+02 -0.26091034166E+01  0.43400727224E+02  0.00000000000E+00 0. -1.
         11    1    3    3    0    0 -0.10042500941E+02 -0.85413969253E+01  0.80389918670E+00  0.13208086188E+02  0.51100000000E-03 0. -1.
        -11    1    3    3    0    0 -0.16847120146E+02 -0.75370845538E+01 -0.26469659440E+01  0.18645093986E+02  0.51100000000E-03 0.  1.
         12    1    3    3    0    0 -0.14741736421E+02  0.40932499402E+01  0.44521701740E+01  0.15934092602E+02  0.00000000000E+00 0. -1.
</event>
<event>
 7    1  0.2318319E-009  0.4778727E+02  0.7816164E-02  0.1312668E+00
        -11   -1    0    0    0    0  0.00000000000E+00  0.00000000000E+00  0.45593999997E+02  0.45594000000E+02  0.51100000000E-03 0.  1.
         11   -1    0    0    0    0 -0.00000000000E+00 -0.00000000000E+00 -0.45593999997E+02  0.45594000000E+02  0.51100000000E-03 0. -1.
    9900012    2    1    2    0    0 -0.40395589579E+02 -0.99816433694E+01  0.12336385342E+02  0.47787271146E+02  0.20000000463E+02 0.  0.
         12    1    1    2    0    0  0.40395589579E+02  0.99816433694E+01 -0.12336385342E+02  0.43400728854E+02  0.00000000000E+00 0. -1.
         11    1    3    3    0    0 -0.17129774204E+02 -0.74247080649E+01 -0.97290185663E+00  0.18694972384E+02  0.51100000000E-03 0. -1.
        -11    1    3    3    0    0 -0.13146230646E+02  0.36834239578E+01  0.47993225088E+01  0.14471506109E+02  0.51100000000E-03 0.  1.
        -12    1    3    3    0    0 -0.10119584728E+02 -0.62403592622E+01  0.85099646900E+01  0.14620792654E+02  0.00000000000E+00 0.  1.
</event>
<event>
 7    1  0.2318319E-009  0.4778727E+02  0.7816164E-02  0.1312668E+00
        -11   -1    0    0    0    0  0.00000000000E+00  0.00000000000E+00  0.45593999997E+02  0.45594000000E+02  0.51100000000E-03 0.  1.
         11   -1    0    0    0    0 -0.00000000000E+00 -0.00000000000E+00 -0.45593999997E+02  0.45594000000E+02  0.51100000000E-03 0. -1.
    9900012    2    1    2    0    0 -0.80471127198E+01  0.37292051370E+02  0.20692275325E+02  0.47787269861E+02  0.19999994603E+02 0.  0.
         12    1    1    2    0    0  0.80471127198E+01 -0.37292051370E+02 -0.20692275325E+02  0.43400730139E+02  0.00000000000E+00 0. -1.
         11    1    3    3    0    0 -0.40298150657E+01  0.53184775980E+01  0.30731832117E+01  0.73464323816E+01  0.51100000000E-03 0. -1.
        -11    1    3    3    0    0  0.29217528667E+01  0.27666473843E+02  0.16070048937E+02  0.32128132342E+02  0.51100000000E-03 0.  1.
        -12    1    3    3    0    0 -0.69390505208E+01  0.43070999291E+01  0.15490431761E+01  0.83127051368E+01  0.00000000000E+00 0.  1.
</event>
<event>
 7    1  0.2318319E-009  0.4778727E+02  0.7816164E-02  0.1312668E+00
        -11   -1    0    0    0    0  0.00000000000E+00  0.00000000000E+00  0.45593999997E+02  0.45594000000E+02  0.51100000000E-03 0. -1.
         11   -1    0    0    0    0 -0.00000000000E+00 -0.00000000000E+00 -0.45593999997E+02  0.45594000000E+02  0.51100000000E-03 0.  1.
    9900012    2    1    2    0    0  0.16671394438E+02 -0.37329459777E+02 -0.14567061511E+02  0.47787271425E+02  0.20000001737E+02 0.  0.
         12    1    1    2    0    0 -0.16671394438E+02  0.37329459777E+02  0.14567061511E+02  0.43400728575E+02  0.00000000000E+00 0. -1.
         11    1    3    3    0    0  0.12951584638E+02 -0.23115600992E+02 -0.69307239795E+01  0.27388126789E+02  0.51100000000E-03 0. -1.
        -11    1    3    3    0    0  0.51205400638E+01 -0.15869511970E+02 -0.61644056060E+01  0.17778111189E+02  0.51100000000E-03 0.  1.
         12    1    3    3    0    0 -0.14007302636E+01  0.16556531852E+01 -0.14719319255E+01  0.26210334478E+01  0.00000000000E+00 0. -1.
</event>
<event>
 7    1  0.2318319E-009  0.4778727E+02  0.7816164E-02  0.1312668E+00
        -11   -1    0    0    0    0  0.00000000000E+00  0.00000000000E+00  0.45593999997E+02  0.45594000000E+02  0.51100000000E-03 0.  1.
         11   -1    0    0    0    0 -0.00000000000E+00 -0.00000000000E+00 -0.45593999997E+02  0.45594000000E+02  0.51100000000E-03 0. -1.
    9900012    2    1    2    0    0  0.14621066963E+02 -0.28626671404E+02  0.29160955164E+02  0.47787271654E+02  0.20000002781E+02 0.  0.
         12    1    1    2    0    0 -0.14621066963E+02  0.28626671404E+02 -0.29160955164E+02  0.43400728346E+02  0.00000000000E+00 0. -1.
         11    1    3    3    0    0  0.66433442723E+01 -0.17565461087E+02  0.17017342835E+02  0.25343034620E+02  0.51100000000E-03 0.  1.
        -11    1    3    3    0    0  0.11455538566E+02 -0.96631291133E+01  0.85635711038E+01  0.17260943729E+02  0.51100000000E-03 0. -1.
        -12    1    3    3    0    0 -0.34778158753E+01 -0.13980812037E+01  0.35800412253E+01  0.51832933053E+01  0.00000000000E+00 0.  1.
</event>
<event>
 7    1  0.2318319E-009  0.4778729E+02  0.7816164E-02  0.1312668E+00
        -11   -1    0    0    0    0  0.00000000000E+00  0.00000000000E+00  0.45593999997E+02  0.45594000000E+02  0.51100000000E-03 0. -1.
         11   -1    0    0    0    0 -0.00000000000E+00 -0.00000000000E+00 -0.45593999997E+02  0.45594000000E+02  0.51100000000E-03 0.  1.
    9900012    2    1    2    0    0 -0.27669553040E+02 -0.17104664867E+02 -0.28730614546E+02  0.47787286436E+02  0.20000070175E+02 0.  0.
         12    1    1    2    0    0  0.27669553040E+02  0.17104664867E+02  0.28730614546E+02  0.43400713564E+02  0.00000000000E+00 0. -1.
         11    1    3    3    0    0 -0.77755767305E+01 -0.32511395108E+01 -0.10730064862E+02  0.13644185348E+02  0.51100000000E-03 0. -1.
        -11    1    3    3    0    0 -0.74760677540E+01 -0.75175523926E+01 -0.17167377670E+02  0.20177314969E+02  0.51100000000E-03 0.  1.
         12    1    3    3    0    0 -0.12417908556E+02 -0.63359729635E+01 -0.83317201432E+00  0.13965786118E+02  0.00000000000E+00 0. -1.
</event>
<event>
 7    1  0.2318319E-009  0.4778729E+02  0.7816164E-02  0.1312668E+00
        -11   -1    0    0    0    0  0.00000000000E+00  0.00000000000E+00  0.45593999997E+02  0.45594000000E+02  0.51100000000E-03 0.  1.
         11   -1    0    0    0    0 -0.00000000000E+00 -0.00000000000E+00 -0.45593999997E+02  0.45594000000E+02  0.51100000000E-03 0. -1.
    9900012    2    1    2    0    0  0.10761915939E+02  0.51297209806E+01  0.41731149677E+02  0.47787288884E+02  0.20000081338E+02 0.  0.
         12    1    1    2    0    0 -0.10761915939E+02 -0.51297209806E+01 -0.41731149677E+02  0.43400711116E+02  0.00000000000E+00 0. -1.
         11    1    3    3    0    0  0.61473232976E+01  0.24821684832E+01  0.39499910732E+01  0.77170702889E+01  0.51100000000E-03 0. -1.
        -11    1    3    3    0    0  0.30866294756E+01  0.52522598573E+01  0.76090470388E+01  0.97473643734E+01  0.51100000000E-03 0.  1.
        -12    1    3    3    0    0  0.15279631657E+01 -0.26047073599E+01  0.30172111565E+02  0.30322854222E+02  0.00000000000E+00 0.  1.
</event>
<event>
 7    1  0.2318319E-009  0.4778725E+02  0.7816164E-02  0.1312668E+00
        -11   -1    0    0    0    0  0.00000000000E+00  0.00000000000E+00  0.45593999997E+02  0.45594000000E+02  0.51100000000E-03 0. -1.
         11   -1    0    0    0    0 -0.00000000000E+00 -0.00000000000E+00 -0.45593999997E+02  0.45594000000E+02  0.51100000000E-03 0.  1.
    9900012    2    1    2    0    0  0.13366042418E+02  0.37050341580E+02 -0.18227610180E+02  0.47787254914E+02  0.19999926454E+02 0.  0.
         12    1    1    2    0    0 -0.13366042418E+02 -0.37050341580E+02  0.18227610180E+02  0.43400745086E+02  0.00000000000E+00 0. -1.
         11    1    3    3    0    0  0.71142369549E+01  0.13991923139E+02 -0.66503150565E+01  0.17047374319E+02  0.51100000000E-03 0. -1.
        -11    1    3    3    0    0 -0.99399847399E+00  0.20468772048E+02 -0.64131815749E+01  0.21472949502E+02  0.51100000000E-03 0.  1.
        -12    1    3    3    0    0  0.72458039369E+01  0.25896463936E+01 -0.51641135490E+01  0.92669310930E+01  0.00000000000E+00 0.  1.
</event>
<event>
 7    1  0.2318319E-009  0.4778727E+02  0.7816164E-02  0.1312668E+00
        -11   -1    0    0    0    0  0.00000000000E+00  0.00000000000E+00  0.45593999997E+02  0.45594000000E+02  0.51100000000E-03 0.  1.
         11   -1    0    0    0    0 -0.00000000000E+00 -0.00000000000E+00 -0.45593999997E+02  0.45594000000E+02  0.51100000000E-03 0. -1.
    9900012    2    1    2    0    0  0.16102271770E+02 -0.21273841352E+02  0.34231035726E+02  0.47787270872E+02  0.19999999214E+02 0.  0.
         12    1    1    2    0    0 -0.16102271770E+02  0.21273841352E+02 -0.34231035726E+02  0.43400729128E+02  0.00000000000E+00 0. -1.
         11    1    3    3    0    0  0.37128945186E+01 -0.53066725571E+01  0.23349209845E+01  0.68846361995E+01  0.51100000000E-03 0. -1.
        -11    1    3    3    0    0  0.10075730351E+02 -0.15565873543E+02  0.15015921386E+02  0.23859896408E+02  0.51100000000E-03 0.  1.
        -12    1    3    3    0    0  0.23136469007E+01 -0.40129525148E+00  0.16880193355E+02  0.17042738265E+02  0.00000000000E+00 0.  1.
</event>
<event>
 7    1  0.2318319E-009  0.4778727E+02  0.7816164E-02  0.1312668E+00
        -11   -1    0    0    0    0  0.00000000000E+00  0.00000000000E+00  0.45593999997E+02  0.45594000000E+02  0.51100000000E-03 0.  1.
         11   -1    0    0    0    0 -0.00000000000E+00 -0.00000000000E+00 -0.45593999997E+02  0.45594000000E+02  0.51100000000E-03 0. -1.
    9900012    2    1    2    0    0  0.24162678351E+02  0.30103101459E+01  0.35926681606E+02  0.47787269090E+02  0.19999991090E+02 0.  0.
         12    1    1    2    0    0 -0.24162678351E+02 -0.30103101459E+01 -0.35926681606E+02  0.43400730910E+02  0.00000000000E+00 0. -1.
         11    1    3    3    0    0 -0.21817764813E+01  0.14931738829E+01  0.84605799706E+00  0.27758838690E+01  0.51100000000E-03 0. -1.
        -11    1    3    3    0    0  0.13472367066E+02 -0.12119780093E+01  0.10475122162E+02  0.17108528564E+02  0.51100000000E-03 0.  1.
        -12    1    3    3    0    0  0.12872087767E+02  0.27291142722E+01  0.24605501447E+02  0.27902856657E+02  0.00000000000E+00 0.  1.
</event>
<event>
 7    1  0.2318319E-009  0.4778727E+02  0.7816164E-02  0.1312668E+00
        -11   -1    0    0    0    0  0.00000000000E+00  0.00000000000E+00  0.45593999997E+02  0.45594000000E+02  0.51100000000E-03 0.  1.
         11   -1    0    0    0    0 -0.00000000000E+00 -0.00000000000E+00 -0.45593999997E+02  0.45594000000E+02  0.51100000000E-03 0. -1.
    9900012    2    1    2    0    0 -0.79013836751E+01 -0.20144371071E+02  0.37621748366E+02  0.47787268440E+02  0.19999988126E+02 0.  0.
         12    1    1    2    0    0  0.79013836751E+01  0.20144371071E+02 -0.37621748366E+02  0.43400731560E+02  0.00000000000E+00 0. -1.
         11    1    3    3    0    0 -0.14498411622E+01  0.13859628226E+01  0.16754814167E+01  0.26134595042E+01  0.51100000000E-03 0. -1.
        -11    1    3    3    0    0  0.18126221189E+01 -0.31601151184E+01  0.17451021444E+02  0.17827228506E+02  0.51100000000E-03 0.  1.
        -12    1    3    3    0    0 -0.82641646319E+01 -0.18370218775E+02  0.18495245505E+02  0.27346580430E+02  0.00000000000E+00 0.  1.
</event>
<event>
 7    1  0.2318319E-009  0.4778727E+02  0.7816164E-02  0.1312668E+00
        -11   -1    0    0    0    0  0.00000000000E+00  0.00000000000E+00  0.45593999997E+02  0.45594000000E+02  0.51100000000E-03 0.  1.
         11   -1    0    0    0    0 -0.00000000000E+00 -0.00000000000E+00 -0.45593999997E+02  0.45594000000E+02  0.51100000000E-03 0. -1.
    9900012    2    1    2    0    0 -0.38551383811E+02  0.12025138026E+02  0.15899995792E+02  0.47787274148E+02  0.20000014153E+02 0.  0.
         12    1    1    2    0    0  0.38551383811E+02 -0.12025138026E+02 -0.15899995792E+02  0.43400725852E+02  0.00000000000E+00 0. -1.
         11    1    3    3    0    0 -0.96058568777E+01  0.34541711895E+01 -0.17892084093E+01  0.10363640864E+02  0.51100000000E-03 0. -1.
        -11    1    3    3    0    0 -0.17289682320E+02 -0.16654342833E+01  0.79114168091E+01  0.19086573874E+02  0.51100000000E-03 0.  1.
        -12    1    3    3    0    0 -0.11655844613E+02  0.10236401120E+02  0.97777873920E+01  0.18337059411E+02  0.00000000000E+00 0.  1.
</event>
<event>
 7    1  0.2318319E-009  0.4778727E+02  0.7816164E-02  0.1312668E+00
        -11   -1    0    0    0    0  0.00000000000E+00  0.00000000000E+00  0.45593999997E+02  0.45594000000E+02  0.51100000000E-03 0.  1.
         11   -1    0    0    0    0 -0.00000000000E+00 -0.00000000000E+00 -0.45593999997E+02  0.45594000000E+02  0.51100000000E-03 0. -1.
    9900012    2    1    2    0    0 -0.52855413887E+01  0.17951009495E+02  0.39159259991E+02  0.47787270367E+02  0.19999996911E+02 0.  0.
         12    1    1    2    0    0  0.52855413887E+01 -0.17951009495E+02 -0.39159259991E+02  0.43400729633E+02  0.00000000000E+00 0. -1.
         11    1    3    3    0    0 -0.59440952813E+01  0.14297773668E+02  0.18636097652E+02  0.24229377551E+02  0.51100000000E-03 0. -1.
        -11    1    3    3    0    0 -0.44038889403E+01  0.44685369697E+01  0.92944011530E+01  0.11213739497E+02  0.51100000000E-03 0.  1.
         12    1    3    3    0    0  0.50624428329E+01 -0.81530114256E+00  0.11228761186E+02  0.12344153319E+02  0.00000000000E+00 0. -1.
</event>
<event>
 7    1  0.2318319E-009  0.4778728E+02  0.7816164E-02  0.1312668E+00
        -11   -1    0    0    0    0  0.00000000000E+00  0.00000000000E+00  0.45593999997E+02  0.45594000000E+02  0.51100000000E-03 0.  1.
         11   -1    0    0    0    0 -0.00000000000E+00 -0.00000000000E+00 -0.45593999997E+02  0.45594000000E+02  0.51100000000E-03 0. -1.
    9900012    2    1    2    0    0  0.81097921085E+01 -0.30363313029E+02  0.29931976913E+02  0.47787277102E+02  0.20000027619E+02 0.  0.
         12    1    1    2    0    0 -0.81097921085E+01  0.30363313029E+02 -0.29931976913E+02  0.43400722898E+02  0.00000000000E+00 0. -1.
         11    1    3    3    0    0  0.63146904010E+01 -0.12708257894E+02  0.66498511241E+01  0.15671491754E+02  0.51100000000E-03 0. -1.
        -11    1    3    3    0    0 -0.39776005515E+01 -0.91896696082E+01  0.50813020337E+01  0.11229023300E+02  0.51100000000E-03 0.  1.
         12    1    3    3    0    0  0.57727022590E+01 -0.84653855276E+01  0.18200823755E+02  0.20886762048E+02  0.00000000000E+00 0. -1.
</event>
<event>
 7    1  0.2318319E-009  0.4778728E+02  0.7816164E-02  0.1312668E+00
        -11   -1    0    0    0    0  0.00000000000E+00  0.00000000000E+00  0.45593999997E+02  0.45594000000E+02  0.51100000000E-03 0.  1.
         11   -1    0    0    0    0 -0.00000000000E+00 -0.00000000000E+00 -0.45593999997E+02  0.45594000000E+02  0.51100000000E-03 0. -1.
    9900012    2    1    2    0    0 -0.42909441501E+01  0.34430444117E+02  0.26072116121E+02  0.47787275089E+02  0.20000018441E+02 0.  0.
         12    1    1    2    0    0  0.42909441501E+01 -0.34430444117E+02 -0.26072116121E+02  0.43400724911E+02  0.00000000000E+00 0. -1.
         11    1    3    3    0    0  0.24382246387E+01  0.15797311221E+02  0.68414839879E+01  0.17386945811E+02  0.51100000000E-03 0. -1.
        -11    1    3    3    0    0  0.32735782370E+01  0.83837204632E+01  0.54286417018E+01  0.10510624828E+02  0.51100000000E-03 0.  1.
        -12    1    3    3    0    0 -0.10002747026E+02  0.10249412432E+02  0.13801990431E+02  0.19889704451E+02  0.00000000000E+00 0.  1.
</event>
<event>
 7    1  0.2318319E-009  0.4778727E+02  0.7816164E-02  0.1312668E+00
        -11   -1    0    0    0    0  0.00000000000E+00  0.00000000000E+00  0.45593999997E+02  0.45594000000E+02  0.51100000000E-03 0.  1.
         11   -1    0    0    0    0 -0.00000000000E+00 -0.00000000000E+00 -0.45593999997E+02  0.45594000000E+02  0.51100000000E-03 0. -1.
    9900012    2    1    2    0    0 -0.29341789178E+02 -0.13240172483E+01  0.31951992474E+02  0.47787269166E+02  0.19999991436E+02 0.  0.
         12    1    1    2    0    0  0.29341789178E+02  0.13240172483E+01 -0.31951992474E+02  0.43400730834E+02  0.00000000000E+00 0. -1.
         11    1    3    3    0    0 -0.14100626657E+02  0.33720581875E+01  0.17347194227E+02  0.22608042736E+02  0.51100000000E-03 0. -1.
        -11    1    3    3    0    0 -0.63746932499E+00  0.28741670632E+01  0.58412193928E+01  0.65411809105E+01  0.51100000000E-03 0.  1.
        -12    1    3    3    0    0 -0.14603693196E+02 -0.75702424990E+01  0.87635788544E+01  0.18638045520E+02  0.00000000000E+00 0.  1.
</event>
<event>
 7    1  0.2318319E-009  0.4778725E+02  0.7816164E-02  0.1312668E+00
        -11   -1    0    0    0    0  0.00000000000E+00  0.00000000000E+00  0.45593999997E+02  0.45594000000E+02  0.51100000000E-03 0. -1.
         11   -1    0    0    0    0 -0.00000000000E+00 -0.00000000000E+00 -0.45593999997E+02  0.45594000000E+02  0.51100000000E-03 0.  1.
    9900012    2    1    2    0    0 -0.20066591686E+02 -0.31320217112E+02 -0.22360702913E+02  0.47787249584E+02  0.19999902155E+02 0.  0.
         12    1    1    2    0    0  0.20066591686E+02  0.31320217112E+02  0.22360702913E+02  0.43400750416E+02  0.00000000000E+00 0. -1.
         11    1    3    3    0    0 -0.91417989434E+01 -0.75147208815E+01 -0.68518519666E+01  0.13674479642E+02  0.51100000000E-03 0. -1.
        -11    1    3    3    0    0 -0.13250236194E+02 -0.12588000277E+02 -0.12880293941E+02  0.22359080536E+02  0.51100000000E-03 0.  1.
         12    1    3    3    0    0  0.23254434506E+01 -0.11217495954E+02 -0.26285570054E+01  0.11753689406E+02  0.00000000000E+00 0. -1.
</event>
<event>
 7    1  0.2318319E-009  0.4778726E+02  0.7816164E-02  0.1312668E+00
        -11   -1    0    0    0    0  0.00000000000E+00  0.00000000000E+00  0.45593999997E+02  0.45594000000E+02  0.51100000000E-03 0.  1.
         11   -1    0    0    0    0 -0.00000000000E+00 -0.00000000000E+00 -0.45593999997E+02  0.45594000000E+02  0.51100000000E-03 0. -1.
    9900012    2    1    2    0    0 -0.41247269470E+02  0.70284613167E+01  0.11527678040E+02  0.47787264197E+02  0.19999968781E+02 0.  0.
         12    1    1    2    0    0  0.41247269470E+02 -0.70284613167E+01 -0.11527678040E+02  0.43400735803E+02  0.00000000000E+00 0. -1.
         11    1    3    3    0    0 -0.25078830981E+01 -0.14517975442E+01  0.46685281467E+01  0.54947565060E+01  0.51100000000E-03 0. -1.
        -11    1    3    3    0    0 -0.50622197478E+01  0.44422334243E+01 -0.23719162223E+01  0.71404126910E+01  0.51100000000E-03 0.  1.
        -12    1    3    3    0    0 -0.33677166624E+02  0.40380254365E+01  0.92310661155E+01  0.35152095000E+02  0.00000000000E+00 0.  1.
</event>
<event>
 7    1  0.2318319E-009  0.4778727E+02  0.7816164E-02  0.1312668E+00
        -11   -1    0    0    0    0  0.00000000000E+00  0.00000000000E+00  0.45593999997E+02  0.45594000000E+02  0.51100000000E-03 0.  1.
         11   -1    0    0    0    0 -0.00000000000E+00 -0.00000000000E+00 -0.45593999997E+02  0.45594000000E+02  0.51100000000E-03 0. -1.
    9900012    2    1    2    0    0  0.46206051783E+00  0.38918218645E+02  0.19203696310E+02  0.47787271960E+02  0.20000004175E+02 0.  0.
         12    1    1    2    0    0 -0.46206051783E+00 -0.38918218645E+02 -0.19203696310E+02  0.43400728040E+02  0.00000000000E+00 0. -1.
         11    1    3    3    0    0  0.20685023029E+01  0.16838081216E+02  0.24819157641E+01  0.17145249690E+02  0.51100000000E-03 0. -1.
        -11    1    3    3    0    0  0.55454244640E+00  0.19456086422E+02  0.18458553919E+02  0.26824709304E+02  0.51100000000E-03 0.  1.
         12    1    3    3    0    0 -0.21609842315E+01  0.26240510071E+01 -0.17367733728E+01  0.38173129666E+01  0.00000000000E+00 0. -1.
</event>
<event>
 7    1  0.2318319E-009  0.4778728E+02  0.7816164E-02  0.1312668E+00
        -11   -1    0    0    0    0  0.00000000000E+00  0.00000000000E+00  0.45593999997E+02  0.45594000000E+02  0.51100000000E-03 0.  1.
         11   -1    0    0    0    0 -0.00000000000E+00 -0.00000000000E+00 -0.45593999997E+02  0.45594000000E+02  0.51100000000E-03 0. -1.
    9900012    2    1    2    0    0  0.13305229960E+02  0.34811636152E+02  0.22242823018E+02  0.47787281899E+02  0.20000049490E+02 0.  0.
         12    1    1    2    0    0 -0.13305229960E+02 -0.34811636152E+02 -0.22242823018E+02  0.43400718101E+02  0.00000000000E+00 0. -1.
         11    1    3    3    0    0  0.81391816116E+01  0.26075904684E+02  0.19562133063E+02  0.33598751950E+02  0.51100000000E-03 0. -1.
        -11    1    3    3    0    0  0.84817350773E+00 -0.10460465409E+01  0.32120533531E+01  0.34829439659E+01  0.51100000000E-03 0.  1.
        -12    1    3    3    0    0  0.43178748406E+01  0.97817780097E+01 -0.53136339868E+00  0.10705585983E+02  0.00000000000E+00 0.  1.
</event>
<event>
 7    1  0.2318319E-009  0.4778727E+02  0.7816164E-02  0.1312668E+00
        -11   -1    0    0    0    0  0.00000000000E+00  0.00000000000E+00  0.45593999997E+02  0.45594000000E+02  0.51100000000E-03 0. -1.
         11   -1    0    0    0    0 -0.00000000000E+00 -0.00000000000E+00 -0.45593999997E+02  0.45594000000E+02  0.51100000000E-03 0.  1.
    9900012    2    1    2    0    0 -0.19713780004E+01 -0.48201190789E+01 -0.43087163712E+02  0.47787267796E+02  0.19999985188E+02 0.  0.
         12    1    1    2    0    0  0.19713780004E+01  0.48201190789E+01  0.43087163712E+02  0.43400732204E+02  0.00000000000E+00 0. -1.
         11    1    3    3    0    0  0.51363569826E+00 -0.40810811586E+01 -0.66685932863E-03  0.41132767667E+01  0.51100000000E-03 0. -1.
        -11    1    3    3    0    0 -0.83422389887E+00 -0.13686029236E+01 -0.20629897178E+01  0.26124567581E+01  0.51100000000E-03 0.  1.
        -12    1    3    3    0    0 -0.16507897998E+01  0.62956500339E+00 -0.41023507135E+02  0.41061534271E+02  0.00000000000E+00 0.  1.
</event>
<event>
 7    1  0.2318319E-009  0.4778729E+02  0.7816164E-02  0.1312668E+00
        -11   -1    0    0    0    0  0.00000000000E+00  0.00000000000E+00  0.45593999997E+02  0.45594000000E+02  0.51100000000E-03 0.  1.
         11   -1    0    0    0    0 -0.00000000000E+00 -0.00000000000E+00 -0.45593999997E+02  0.45594000000E+02  0.51100000000E-03 0. -1.
    9900012    2    1    2    0    0 -0.17781249662E+02 -0.35895180012E+02  0.16702845066E+02  0.47787287784E+02  0.20000076321E+02 0.  0.
         12    1    1    2    0    0  0.17781249662E+02  0.35895180012E+02 -0.16702845066E+02  0.43400712216E+02  0.00000000000E+00 0. -1.
         11    1    3    3    0    0 -0.11501499205E+02 -0.23639152773E+02  0.60536024333E+01  0.26976658994E+02  0.51100000000E-03 0.  1.
        -11    1    3    3    0    0 -0.66714171167E-01 -0.11022658205E+02  0.42707282555E+01  0.11821275937E+02  0.51100000000E-03 0. -1.
         12    1    3    3    0    0 -0.62130362856E+01 -0.12333690337E+01  0.63785143769E+01  0.89893528530E+01  0.00000000000E+00 0. -1.
</event>
<event>
 7    1  0.2318319E-009  0.4778728E+02  0.7816164E-02  0.1312668E+00
        -11   -1    0    0    0    0  0.00000000000E+00  0.00000000000E+00  0.45593999997E+02  0.45594000000E+02  0.51100000000E-03 0. -1.
         11   -1    0    0    0    0 -0.00000000000E+00 -0.00000000000E+00 -0.45593999997E+02  0.45594000000E+02  0.51100000000E-03 0.  1.
    9900012    2    1    2    0    0  0.12486525952E+02  0.76443054098E+01 -0.40856743362E+02  0.47787283258E+02  0.20000055687E+02 0.  0.
         12    1    1    2    0    0 -0.12486525952E+02 -0.76443054098E+01  0.40856743362E+02  0.43400716742E+02  0.00000000000E+00 0. -1.
         11    1    3    3    0    0  0.46761565525E+01 -0.13604821075E+01 -0.30447393316E+01  0.57434997629E+01  0.51100000000E-03 0. -1.
        -11    1    3    3    0    0  0.83587328760E+01  0.92668262922E+01 -0.38869670985E+02  0.40823936698E+02  0.51100000000E-03 0.  1.
         12    1    3    3    0    0 -0.54836347638E+00 -0.26203877492E+00  0.10576669542E+01  0.12198467969E+01  0.00000000000E+00 0. -1.
</event>
<event>
 7    1  0.2318319E-009  0.4778727E+02  0.7816164E-02  0.1312668E+00
        -11   -1    0    0    0    0  0.00000000000E+00  0.00000000000E+00  0.45593999997E+02  0.45594000000E+02  0.51100000000E-03 0.  1.
         11   -1    0    0    0    0 -0.00000000000E+00 -0.00000000000E+00 -0.45593999997E+02  0.45594000000E+02  0.51100000000E-03 0. -1.
    9900012    2    1    2    0    0  0.14723098222E+02  0.33928251275E+01  0.40685895255E+02  0.47787274703E+02  0.20000016682E+02 0.  0.
         12    1    1    2    0    0 -0.14723098222E+02 -0.33928251275E+01 -0.40685895255E+02  0.43400725297E+02  0.00000000000E+00 0. -1.
         11    1    3    3    0    0  0.92183995689E+01  0.28816967333E+01  0.93164373140E+01  0.13419354350E+02  0.51100000000E-03 0. -1.
        -11    1    3    3    0    0  0.81839001355E+01  0.38354803523E+01  0.15583799459E+02  0.18015047510E+02  0.51100000000E-03 0.  1.
        -12    1    3    3    0    0 -0.26792014820E+01 -0.33243519581E+01  0.15785658482E+02  0.16352872843E+02  0.00000000000E+00 0.  1.
</event>
<event>
 7    1  0.2318319E-009  0.4778727E+02  0.7816164E-02  0.1312668E+00
        -11   -1    0    0    0    0  0.00000000000E+00  0.00000000000E+00  0.45593999997E+02  0.45594000000E+02  0.51100000000E-03 0.  1.
         11   -1    0    0    0    0 -0.00000000000E+00 -0.00000000000E+00 -0.45593999997E+02  0.45594000000E+02  0.51100000000E-03 0. -1.
    9900012    2    1    2    0    0 -0.84519735164E+01 -0.28495574007E+02  0.31625781782E+02  0.47787266508E+02  0.19999979316E+02 0.  0.
         12    1    1    2    0    0  0.84519735164E+01  0.28495574007E+02 -0.31625781782E+02  0.43400733492E+02  0.00000000000E+00 0. -1.
         11    1    3    3    0    0 -0.59065358454E+01 -0.95842420604E+01  0.13135042908E+02  0.17299543752E+02  0.51100000000E-03 0. -1.
        -11    1    3    3    0    0 -0.65544898275E+01 -0.77939746169E+01  0.15063170428E+02  0.18182587298E+02  0.51100000000E-03 0.  1.
         12    1    3    3    0    0  0.40090521566E+01 -0.11117357330E+02  0.34275684461E+01  0.12305135458E+02  0.00000000000E+00 0. -1.
</event>
<event>
 7    1  0.2318319E-009  0.4778727E+02  0.7816164E-02  0.1312668E+00
        -11   -1    0    0    0    0  0.00000000000E+00  0.00000000000E+00  0.45593999997E+02  0.45594000000E+02  0.51100000000E-03 0.  1.
         11   -1    0    0    0    0 -0.00000000000E+00 -0.00000000000E+00 -0.45593999997E+02  0.45594000000E+02  0.51100000000E-03 0. -1.
    9900012    2    1    2    0    0  0.39039094000E+02 -0.80041077392E+01  0.17190310790E+02  0.47787269751E+02  0.19999994105E+02 0.  0.
         12    1    1    2    0    0 -0.39039094000E+02  0.80041077392E+01 -0.17190310790E+02  0.43400730249E+02  0.00000000000E+00 0. -1.
         11    1    3    3    0    0  0.13152427394E+02 -0.27020752614E+01  0.13853599749E+00  0.13427834879E+02  0.51100000000E-03 0. -1.
        -11    1    3    3    0    0  0.20085171350E+02 -0.85735811489E+01  0.83023995818E+01  0.23363438123E+02  0.51100000000E-03 0.  1.
         12    1    3    3    0    0  0.58014952568E+01  0.32715486711E+01  0.87493752109E+01  0.10995996749E+02  0.00000000000E+00 0. -1.
</event>
<event>
 7    1  0.2318319E-009  0.4778727E+02  0.7816164E-02  0.1312668E+00
        -11   -1    0    0    0    0  0.00000000000E+00  0.00000000000E+00  0.45593999997E+02  0.45594000000E+02  0.51100000000E-03 0. -1.
         11   -1    0    0    0    0 -0.00000000000E+00 -0.00000000000E+00 -0.45593999997E+02  0.45594000000E+02  0.51100000000E-03 0.  1.
    9900012    2    1    2    0    0 -0.40402164023E+02 -0.10171656854E+02 -0.12158361711E+02  0.47787271660E+02  0.20000002809E+02 0.  0.
         12    1    1    2    0    0  0.40402164023E+02  0.10171656854E+02  0.12158361711E+02  0.43400728340E+02  0.00000000000E+00 0. -1.
         11    1    3    3    0    0 -0.94839038467E+01 -0.30197183435E+01  0.32194764124E+01  0.10460791542E+02  0.51100000000E-03 0. -1.
        -11    1    3    3    0    0 -0.18284452229E+02 -0.60657786003E+01 -0.28012672440E+01  0.19466945363E+02  0.51100000000E-03 0.  1.
         12    1    3    3    0    0 -0.12633807948E+02 -0.10861599102E+01 -0.12576570879E+02  0.17859534756E+02  0.00000000000E+00 0. -1.
</event>
<event>
 7    1  0.2318319E-009  0.4778727E+02  0.7816164E-02  0.1312668E+00
        -11   -1    0    0    0    0  0.00000000000E+00  0.00000000000E+00  0.45593999997E+02  0.45594000000E+02  0.51100000000E-03 0.  1.
         11   -1    0    0    0    0 -0.00000000000E+00 -0.00000000000E+00 -0.45593999997E+02  0.45594000000E+02  0.51100000000E-03 0. -1.
    9900012    2    1    2    0    0 -0.15556870533E+02  0.19383494793E+02 -0.35579313958E+02  0.47787266448E+02  0.19999979041E+02 0.  0.
         12    1    1    2    0    0  0.15556870533E+02 -0.19383494793E+02  0.35579313958E+02  0.43400733552E+02  0.00000000000E+00 0. -1.
         11    1    3    3    0    0 -0.72247775840E+01  0.78479780201E+00 -0.88746856049E+01  0.11470543299E+02  0.51100000000E-03 0. -1.
        -11    1    3    3    0    0 -0.96084470192E+01  0.54041101230E+01 -0.91963443097E+01  0.14356162763E+02  0.51100000000E-03 0.  1.
         12    1    3    3    0    0  0.12763540700E+01  0.13194586868E+02 -0.17508284043E+02  0.21960560386E+02  0.00000000000E+00 0. -1.
</event>
<event>
 7    1  0.2318319E-009  0.4778727E+02  0.7816164E-02  0.1312668E+00
        -11   -1    0    0    0    0  0.00000000000E+00  0.00000000000E+00  0.45593999997E+02  0.45594000000E+02  0.51100000000E-03 0. -1.
         11   -1    0    0    0    0 -0.00000000000E+00 -0.00000000000E+00 -0.45593999997E+02  0.45594000000E+02  0.51100000000E-03 0.  1.
    9900012    2    1    2    0    0  0.12980918037E+01 -0.29131932101E+02 -0.32144497788E+02  0.47787271339E+02  0.20000001341E+02 0.  0.
         12    1    1    2    0    0 -0.12980918037E+01  0.29131932101E+02  0.32144497788E+02  0.43400728661E+02  0.00000000000E+00 0. -1.
         11    1    3    3    0    0  0.62205112696E+01 -0.85532222235E+01 -0.13357445047E+02  0.17037420852E+02  0.51100000000E-03 0. -1.
        -11    1    3    3    0    0  0.32033393468E+01 -0.13649843103E+01 -0.26962765957E+01  0.44039156304E+01  0.51100000000E-03 0.  1.
        -12    1    3    3    0    0 -0.81257588127E+01 -0.19213725567E+02 -0.16090776146E+02  0.26345934856E+02  0.00000000000E+00 0.  1.
</event>
<event>
 7    1  0.2318319E-009  0.4778728E+02  0.7816164E-02  0.1312668E+00
        -11   -1    0    0    0    0  0.00000000000E+00  0.00000000000E+00  0.45593999997E+02  0.45594000000E+02  0.51100000000E-03 0.  1.
         11   -1    0    0    0    0 -0.00000000000E+00 -0.00000000000E+00 -0.45593999997E+02  0.45594000000E+02  0.51100000000E-03 0. -1.
    9900012    2    1    2    0    0  0.62455176071E+01 -0.23097821205E+02  0.36209207865E+02  0.47787279168E+02  0.20000037037E+02 0.  0.
         12    1    1    2    0    0 -0.62455176071E+01  0.23097821205E+02 -0.36209207865E+02  0.43400720832E+02  0.00000000000E+00 0. -1.
         11    1    3    3    0    0 -0.59154072396E+00  0.94087712766E+00  0.52133693494E+01  0.53305150250E+01  0.51100000000E-03 0. -1.
        -11    1    3    3    0    0 -0.36783799514E+01 -0.12109101861E+02  0.10063850057E+02  0.16169165260E+02  0.51100000000E-03 0.  1.
        -12    1    3    3    0    0  0.10515438282E+02 -0.11929596471E+02  0.20931988458E+02  0.26287598883E+02  0.00000000000E+00 0.  1.
</event>
<event>
 7    1  0.2318319E-009  0.4778726E+02  0.7816164E-02  0.1312668E+00
        -11   -1    0    0    0    0  0.00000000000E+00  0.00000000000E+00  0.45593999997E+02  0.45594000000E+02  0.51100000000E-03 0.  1.
         11   -1    0    0    0    0 -0.00000000000E+00 -0.00000000000E+00 -0.45593999997E+02  0.45594000000E+02  0.51100000000E-03 0. -1.
    9900012    2    1    2    0    0  0.10386180183E+02  0.18172293383E+02  0.38019983352E+02  0.47787261300E+02  0.19999955573E+02 0.  0.
         12    1    1    2    0    0 -0.10386180183E+02 -0.18172293383E+02 -0.38019983352E+02  0.43400738700E+02  0.00000000000E+00 0. -1.
         11    1    3    3    0    0  0.65094462926E+00  0.65781178658E+01  0.22751382062E+02  0.23692208626E+02  0.51100000000E-03 0. -1.
        -11    1    3    3    0    0  0.20985141085E+01  0.86838464465E+01  0.12701789136E+02  0.15528953541E+02  0.51100000000E-03 0.  1.
        -12    1    3    3    0    0  0.76367214452E+01  0.29103290708E+01  0.25668121538E+01  0.85660991335E+01  0.00000000000E+00 0.  1.
</event>
<event>
 7    1  0.2318319E-009  0.4778726E+02  0.7816164E-02  0.1312668E+00
        -11   -1    0    0    0    0  0.00000000000E+00  0.00000000000E+00  0.45593999997E+02  0.45594000000E+02  0.51100000000E-03 0.  1.
         11   -1    0    0    0    0 -0.00000000000E+00 -0.00000000000E+00 -0.45593999997E+02  0.45594000000E+02  0.51100000000E-03 0. -1.
    9900012    2    1    2    0    0 -0.35203925524E+01 -0.20491821534E+02  0.38096147026E+02  0.47787258858E+02  0.19999944436E+02 0.  0.
         12    1    1    2    0    0  0.35203925524E+01  0.20491821534E+02 -0.38096147026E+02  0.43400741142E+02  0.00000000000E+00 0. -1.
         11    1    3    3    0    0 -0.10534663232E+01  0.12390671916E+01  0.12887524050E+01  0.20750811603E+01  0.51100000000E-03 0. -1.
        -11    1    3    3    0    0 -0.34053757068E+01 -0.10166721324E+01  0.15800509900E+02  0.16195256074E+02  0.51100000000E-03 0.  1.
        -12    1    3    3    0    0  0.93844947763E+00 -0.20714216593E+02  0.21006884720E+02  0.29516921624E+02  0.00000000000E+00 0.  1.
</event>
<event>
 7    1  0.2318319E-009  0.4778727E+02  0.7816164E-02  0.1312668E+00
        -11   -1    0    0    0    0  0.00000000000E+00  0.00000000000E+00  0.45593999997E+02  0.45594000000E+02  0.51100000000E-03 0.  1.
         11   -1    0    0    0    0 -0.00000000000E+00 -0.00000000000E+00 -0.45593999997E+02  0.45594000000E+02  0.51100000000E-03 0. -1.
    9900012    2    1    2    0    0 -0.24289676427E+02  0.23706848601E+02  0.27048483554E+02  0.47787268277E+02  0.19999987380E+02 0.  0.
         12    1    1    2    0    0  0.24289676427E+02 -0.23706848601E+02 -0.27048483554E+02  0.43400731723E+02  0.00000000000E+00 0. -1.
         11    1    3    3    0    0 -0.16098118565E+02  0.15365867214E+02  0.15505186846E+02  0.27123239408E+02  0.51100000000E-03 0. -1.
        -11    1    3    3    0    0 -0.91680731395E+01  0.67333281737E+01  0.27917296905E+01  0.11712601262E+02  0.51100000000E-03 0.  1.
         12    1    3    3    0    0  0.97651527779E+00  0.16076532139E+01  0.87515670176E+01  0.89514276072E+01  0.00000000000E+00 0. -1.
</event>
<event>
 7    1  0.2318319E-009  0.4778728E+02  0.7816164E-02  0.1312668E+00
        -11   -1    0    0    0    0  0.00000000000E+00  0.00000000000E+00  0.45593999997E+02  0.45594000000E+02  0.51100000000E-03 0.  1.
         11   -1    0    0    0    0 -0.00000000000E+00 -0.00000000000E+00 -0.45593999997E+02  0.45594000000E+02  0.51100000000E-03 0. -1.
    9900012    2    1    2    0    0  0.18868010786E+02 -0.56154086530E+01  0.38679298397E+02  0.47787276852E+02  0.20000026477E+02 0.  0.
         12    1    1    2    0    0 -0.18868010786E+02  0.56154086530E+01 -0.38679298397E+02  0.43400723148E+02  0.00000000000E+00 0. -1.
         11    1    3    3    0    0  0.48628055733E+01  0.49764825793E+01  0.33556643860E+01  0.77248133077E+01  0.51100000000E-03 0.  1.
        -11    1    3    3    0    0  0.60448717900E+01 -0.44472794096E+01  0.81059019540E+01  0.11046466216E+02  0.51100000000E-03 0. -1.
        -12    1    3    3    0    0  0.79603334226E+01 -0.61446118228E+01  0.27217732056E+02  0.29015997328E+02  0.00000000000E+00 0.  1.
</event>
<event>
 7    1  0.2318319E-009  0.4778727E+02  0.7816164E-02  0.1312668E+00
        -11   -1    0    0    0    0  0.00000000000E+00  0.00000000000E+00  0.45593999997E+02  0.45594000000E+02  0.51100000000E-03 0.  1.
         11   -1    0    0    0    0 -0.00000000000E+00 -0.00000000000E+00 -0.45593999997E+02  0.45594000000E+02  0.51100000000E-03 0. -1.
    9900012    2    1    2    0    0 -0.33232390977E+02 -0.26538340270E+02  0.86572772080E+01  0.47787265409E+02  0.19999974308E+02 0.  0.
         12    1    1    2    0    0  0.33232390977E+02  0.26538340270E+02 -0.86572772080E+01  0.43400734591E+02  0.00000000000E+00 0. -1.
         11    1    3    3    0    0 -0.98465262529E+01 -0.13028274611E+02  0.12406434666E+01  0.16377704816E+02  0.51100000000E-03 0. -1.
        -11    1    3    3    0    0 -0.21035397853E+02 -0.15352839656E+02  0.31939348145E+01  0.26237356349E+02  0.51100000000E-03 0.  1.
         12    1    3    3    0    0 -0.23504668713E+01  0.18427739965E+01  0.42226989269E+01  0.51722042440E+01  0.00000000000E+00 0. -1.
</event>
<event>
 7    1  0.2318319E-009  0.4778727E+02  0.7816164E-02  0.1312668E+00
        -11   -1    0    0    0    0  0.00000000000E+00  0.00000000000E+00  0.45593999997E+02  0.45594000000E+02  0.51100000000E-03 0.  1.
         11   -1    0    0    0    0 -0.00000000000E+00 -0.00000000000E+00 -0.45593999997E+02  0.45594000000E+02  0.51100000000E-03 0. -1.
    9900012    2    1    2    0    0 -0.28812636515E+02 -0.13998077850E+01  0.32426776659E+02  0.47787270406E+02  0.19999997089E+02 0.  0.
         12    1    1    2    0    0  0.28812636515E+02  0.13998077850E+01 -0.32426776659E+02  0.43400729594E+02  0.00000000000E+00 0. -1.
         11    1    3    3    0    0 -0.56491307696E+01  0.15902696268E+01  0.11120561564E+02  0.12574121270E+02  0.51100000000E-03 0. -1.
        -11    1    3    3    0    0 -0.99132916848E+01  0.34301188757E+01  0.16816696304E+02  0.19820200361E+02  0.51100000000E-03 0.  1.
         12    1    3    3    0    0 -0.13250214061E+02 -0.64201962875E+01  0.44895187915E+01  0.15392948775E+02  0.00000000000E+00 0. -1.
</event>
<event>
 7    1  0.2318319E-009  0.4778727E+02  0.7816164E-02  0.1312668E+00
        -11   -1    0    0    0    0  0.00000000000E+00  0.00000000000E+00  0.45593999997E+02  0.45594000000E+02  0.51100000000E-03 0. -1.
         11   -1    0    0    0    0 -0.00000000000E+00 -0.00000000000E+00 -0.45593999997E+02  0.45594000000E+02  0.51100000000E-03 0.  1.
    9900012    2    1    2    0    0  0.39823086790E+02  0.90835401342E+01 -0.14670878145E+02  0.47787267190E+02  0.19999982428E+02 0.  0.
         12    1    1    2    0    0 -0.39823086790E+02 -0.90835401342E+01  0.14670878145E+02  0.43400732810E+02  0.00000000000E+00 0. -1.
         11    1    3    3    0    0  0.15592633739E+02  0.17045605271E+01  0.76323643216E+00  0.15704084934E+02  0.51100000000E-03 0.  1.
        -11    1    3    3    0    0  0.14456586663E+02  0.71544745654E+01 -0.32372421063E+01  0.16451721520E+02  0.51100000000E-03 0. -1.
         12    1    3    3    0    0  0.97738663884E+01  0.22450504173E+00 -0.12196872471E+02  0.15631460737E+02  0.00000000000E+00 0. -1.
</event>
<event>
 7    1  0.2318319E-009  0.4778727E+02  0.7816164E-02  0.1312668E+00
        -11   -1    0    0    0    0  0.00000000000E+00  0.00000000000E+00  0.45593999997E+02  0.45594000000E+02  0.51100000000E-03 0.  1.
         11   -1    0    0    0    0 -0.00000000000E+00 -0.00000000000E+00 -0.45593999997E+02  0.45594000000E+02  0.51100000000E-03 0. -1.
    9900012    2    1    2    0    0 -0.11081089185E+01 -0.28195138955E+01  0.43294873142E+02  0.47787267237E+02  0.19999982639E+02 0.  0.
         12    1    1    2    0    0  0.11081089185E+01  0.28195138955E+01 -0.43294873142E+02  0.43400732763E+02  0.00000000000E+00 0. -1.
         11    1    3    3    0    0 -0.11111809366E+01  0.13329817593E+01  0.16580142111E+02  0.16670713126E+02  0.51100000000E-03 0. -1.
        -11    1    3    3    0    0 -0.73968937871E+01 -0.39872554082E+01  0.12062764412E+02  0.14701106384E+02  0.51100000000E-03 0.  1.
         12    1    3    3    0    0  0.73999658052E+01 -0.16524024650E+00  0.14651966619E+02  0.16415447727E+02  0.00000000000E+00 0. -1.
</event>
<event>
 7    1  0.2318319E-009  0.4778727E+02  0.7816164E-02  0.1312668E+00
        -11   -1    0    0    0    0  0.00000000000E+00  0.00000000000E+00  0.45593999997E+02  0.45594000000E+02  0.51100000000E-03 0.  1.
         11   -1    0    0    0    0 -0.00000000000E+00 -0.00000000000E+00 -0.45593999997E+02  0.45594000000E+02  0.51100000000E-03 0. -1.
    9900012    2    1    2    0    0  0.35234942305E+01  0.27760011636E+02  0.33175145024E+02  0.47787268382E+02  0.19999987862E+02 0.  0.
         12    1    1    2    0    0 -0.35234942305E+01 -0.27760011636E+02 -0.33175145024E+02  0.43400731618E+02  0.00000000000E+00 0. -1.
         11    1    3    3    0    0  0.56307756859E+01  0.26626734232E+02  0.26648071444E+02  0.38089477847E+02  0.51100000000E-03 0. -1.
        -11    1    3    3    0    0  0.17459400450E+01  0.16495217326E+01  0.49508832837E+01  0.55027696787E+01  0.51100000000E-03 0.  1.
         12    1    3    3    0    0 -0.38532215004E+01 -0.51624432896E+00  0.15761902959E+01  0.41950208566E+01  0.00000000000E+00 0. -1.
</event>
<event>
 7    1  0.2318319E-009  0.4778727E+02  0.7816164E-02  0.1312668E+00
        -11   -1    0    0    0    0  0.00000000000E+00  0.00000000000E+00  0.45593999997E+02  0.45594000000E+02  0.51100000000E-03 0.  1.
         11   -1    0    0    0    0 -0.00000000000E+00 -0.00000000000E+00 -0.45593999997E+02  0.45594000000E+02  0.51100000000E-03 0. -1.
    9900012    2    1    2    0    0 -0.23549612818E+02  0.27192894334E+02  0.24281385950E+02  0.47787268787E+02  0.19999989709E+02 0.  0.
         12    1    1    2    0    0  0.23549612818E+02 -0.27192894334E+02 -0.24281385950E+02  0.43400731213E+02  0.00000000000E+00 0. -1.
         11    1    3    3    0    0 -0.89240193124E+00  0.12565150952E+01  0.15995901568E-01  0.15412551773E+01  0.51100000000E-03 0. -1.
        -11    1    3    3    0    0  0.39160178176E+00  0.12761190932E+02  0.67710378951E+01  0.14451584702E+02  0.51100000000E-03 0.  1.
        -12    1    3    3    0    0 -0.23048812668E+02  0.13175188307E+02  0.17494352153E+02  0.31794428908E+02  0.00000000000E+00 0.  1.
</event>
<event>
 7    1  0.2318319E-009  0.4778726E+02  0.7816164E-02  0.1312668E+00
        -11   -1    0    0    0    0  0.00000000000E+00  0.00000000000E+00  0.45593999997E+02  0.45594000000E+02  0.51100000000E-03 0. -1.
         11   -1    0    0    0    0 -0.00000000000E+00 -0.00000000000E+00 -0.45593999997E+02  0.45594000000E+02  0.51100000000E-03 0.  1.
    9900012    2    1    2    0    0 -0.65596105077E+01  0.40151527975E+02  0.15114567001E+02  0.47787264703E+02  0.19999971085E+02 0.  0.
         12    1    1    2    0    0  0.65596105077E+01 -0.40151527975E+02 -0.15114567001E+02  0.43400735297E+02  0.00000000000E+00 0. -1.
         11    1    3    3    0    0 -0.15737822439E+01  0.16109565482E+02  0.99682258403E+01  0.19009482298E+02  0.51100000000E-03 0. -1.
        -11    1    3    3    0    0 -0.27650569685E+01  0.17954241953E+02  0.99490405963E+01  0.20711922972E+02  0.51100000000E-03 0.  1.
         12    1    3    3    0    0 -0.22207712953E+01  0.60877205399E+01 -0.48026994359E+01  0.80658594328E+01  0.00000000000E+00 0. -1.
</event>
<event>
 7    1  0.2318319E-009  0.4778727E+02  0.7816164E-02  0.1312668E+00
        -11   -1    0    0    0    0  0.00000000000E+00  0.00000000000E+00  0.45593999997E+02  0.45594000000E+02  0.51100000000E-03 0. -1.
         11   -1    0    0    0    0 -0.00000000000E+00 -0.00000000000E+00 -0.45593999997E+02  0.45594000000E+02  0.51100000000E-03 0.  1.
    9900012    2    1    2    0    0  0.11431340482E+02  0.37147816981E+02 -0.19312886301E+02  0.47787269258E+02  0.19999991855E+02 0.  0.
         12    1    1    2    0    0 -0.11431340482E+02 -0.37147816981E+02  0.19312886301E+02  0.43400730742E+02  0.00000000000E+00 0. -1.
         11    1    3    3    0    0  0.48259328444E+01  0.58246071767E+01 -0.71242387049E+01  0.10390883214E+02  0.51100000000E-03 0.  1.
        -11    1    3    3    0    0  0.17127542653E+01  0.22741760757E+02 -0.14789126706E+02  0.27181601838E+02  0.51100000000E-03 0. -1.
         12    1    3    3    0    0  0.48926533719E+01  0.85814490475E+01  0.26004791099E+01  0.10214784206E+02  0.00000000000E+00 0. -1.
</event>
<event>
 7    1  0.2318319E-009  0.4778727E+02  0.7816164E-02  0.1312668E+00
        -11   -1    0    0    0    0  0.00000000000E+00  0.00000000000E+00  0.45593999997E+02  0.45594000000E+02  0.51100000000E-03 0.  1.
         11   -1    0    0    0    0 -0.00000000000E+00 -0.00000000000E+00 -0.45593999997E+02  0.45594000000E+02  0.51100000000E-03 0. -1.
    9900012    2    1    2    0    0 -0.10136879863E+02 -0.10543121035E+02  0.40862079238E+02  0.47787271271E+02  0.20000001035E+02 0.  0.
         12    1    1    2    0    0  0.10136879863E+02  0.10543121035E+02 -0.40862079238E+02  0.43400728729E+02  0.00000000000E+00 0. -1.
         11    1    3    3    0    0 -0.15941763657E+01  0.58503695189E+00  0.14328240275E+02  0.14428518155E+02  0.51100000000E-03 0. -1.
        -11    1    3    3    0    0 -0.36135662842E+01 -0.61586046434E+01  0.25252921047E+02  0.26243023722E+02  0.51100000000E-03 0.  1.
         12    1    3    3    0    0 -0.49291372131E+01 -0.49695533430E+01  0.12809179163E+01  0.71157293936E+01  0.00000000000E+00 0. -1.
</event>
<event>
 7    1  0.2318319E-009  0.4778730E+02  0.7816164E-02  0.1312668E+00
        -11   -1    0    0    0    0  0.00000000000E+00  0.00000000000E+00  0.45593999997E+02  0.45594000000E+02  0.51100000000E-03 0. -1.
         11   -1    0    0    0    0 -0.00000000000E+00 -0.00000000000E+00 -0.45593999997E+02  0.45594000000E+02  0.51100000000E-03 0.  1.
    9900012    2    1    2    0    0 -0.37330880589E+02 -0.13579736868E+02 -0.17481905208E+02  0.47787298293E+02  0.20000124236E+02 0.  0.
         12    1    1    2    0    0  0.37330880589E+02  0.13579736868E+02  0.17481905208E+02  0.43400701707E+02  0.00000000000E+00 0. -1.
         11    1    3    3    0    0 -0.11283561898E+02  0.36692143541E+01 -0.90045537097E+01  0.14895096202E+02  0.51100000000E-03 0. -1.
        -11    1    3    3    0    0 -0.46705649029E+01 -0.35977056140E+01  0.66074615692E+00  0.59324740153E+01  0.51100000000E-03 0.  1.
        -12    1    3    3    0    0 -0.21376753788E+02 -0.13651245608E+02 -0.91380976550E+01  0.26959728076E+02  0.00000000000E+00 0.  1.
</event>
<event>
 7    1  0.2318319E-009  0.4778728E+02  0.7816164E-02  0.1312668E+00
        -11   -1    0    0    0    0  0.00000000000E+00  0.00000000000E+00  0.45593999997E+02  0.45594000000E+02  0.51100000000E-03 0.  1.
         11   -1    0    0    0    0 -0.00000000000E+00 -0.00000000000E+00 -0.45593999997E+02  0.45594000000E+02  0.51100000000E-03 0. -1.
    9900012    2    1    2    0    0  0.37061059364E+02  0.21938010922E+02  0.53688098691E+01  0.47787279225E+02  0.20000037297E+02 0.  0.
         12    1    1    2    0    0 -0.37061059364E+02 -0.21938010922E+02 -0.53688098691E+01  0.43400720775E+02  0.00000000000E+00 0. -1.
         11    1    3    3    0    0  0.13792736266E+01  0.31791563731E+01 -0.35076283514E+00  0.34831689321E+01  0.51100000000E-03 0. -1.
        -11    1    3    3    0    0  0.93369353436E+01 -0.28053124108E+01 -0.18406409841E+00  0.97510009325E+01  0.51100000000E-03 0.  1.
        -12    1    3    3    0    0  0.26344850394E+02  0.21564166960E+02  0.59036368026E+01  0.34553109360E+02  0.00000000000E+00 0.  1.
</event>
<event>
 7    1  0.2318319E-009  0.4778728E+02  0.7816164E-02  0.1312668E+00
        -11   -1    0    0    0    0  0.00000000000E+00  0.00000000000E+00  0.45593999997E+02  0.45594000000E+02  0.51100000000E-03 0. -1.
         11   -1    0    0    0    0 -0.00000000000E+00 -0.00000000000E+00 -0.45593999997E+02  0.45594000000E+02  0.51100000000E-03 0.  1.
    9900012    2    1    2    0    0 -0.13603768942E+02  0.33256925352E+02  0.24342086615E+02  0.47787276573E+02  0.20000025206E+02 0.  0.
         12    1    1    2    0    0  0.13603768942E+02 -0.33256925352E+02 -0.24342086615E+02  0.43400723427E+02  0.00000000000E+00 0. -1.
         11    1    3    3    0    0 -0.64852372951E+01  0.41210761697E+01  0.73557934853E+01  0.10637164548E+02  0.51100000000E-03 0. -1.
        -11    1    3    3    0    0 -0.11388630560E+01 -0.12937073751E+01 -0.13028568155E+00  0.17284855952E+01  0.51100000000E-03 0.  1.
         12    1    3    3    0    0 -0.59796685906E+01  0.30429556557E+02  0.17116578811E+02  0.35421626429E+02  0.00000000000E+00 0. -1.
</event>
<event>
 7    1  0.2318319E-009  0.4778727E+02  0.7816164E-02  0.1312668E+00
        -11   -1    0    0    0    0  0.00000000000E+00  0.00000000000E+00  0.45593999997E+02  0.45594000000E+02  0.51100000000E-03 0.  1.
         11   -1    0    0    0    0 -0.00000000000E+00 -0.00000000000E+00 -0.45593999997E+02  0.45594000000E+02  0.51100000000E-03 0. -1.
    9900012    2    1    2    0    0 -0.49235084902E+01 -0.28741719029E+02  0.32144917047E+02  0.47787273732E+02  0.20000012256E+02 0.  0.
         12    1    1    2    0    0  0.49235084902E+01  0.28741719029E+02 -0.32144917047E+02  0.43400726268E+02  0.00000000000E+00 0. -1.
         11    1    3    3    0    0 -0.78524173942E+01 -0.75416895598E+01  0.14731565920E+02  0.18318203380E+02  0.51100000000E-03 0. -1.
        -11    1    3    3    0    0 -0.33277633153E+01 -0.11204067927E+02  0.63604704312E+01  0.13306416917E+02  0.51100000000E-03 0.  1.
         12    1    3    3    0    0  0.62566722193E+01 -0.99959615420E+01  0.11052880696E+02  0.16162653436E+02  0.00000000000E+00 0. -1.
</event>
<event>
 7    1  0.2318319E-009  0.4778727E+02  0.7816164E-02  0.1312668E+00
        -11   -1    0    0    0    0  0.00000000000E+00  0.00000000000E+00  0.45593999997E+02  0.45594000000E+02  0.51100000000E-03 0.  1.
         11   -1    0    0    0    0 -0.00000000000E+00 -0.00000000000E+00 -0.45593999997E+02  0.45594000000E+02  0.51100000000E-03 0. -1.
    9900012    2    1    2    0    0  0.24255757238E+02 -0.23178897731E+01  0.35915302164E+02  0.47787270723E+02  0.19999998536E+02 0.  0.
         12    1    1    2    0    0 -0.24255757238E+02  0.23178897731E+01 -0.35915302164E+02  0.43400729277E+02  0.00000000000E+00 0. -1.
         11    1    3    3    0    0  0.57307740053E+01  0.57499640661E+00  0.48491167445E+01  0.75290321443E+01  0.51100000000E-03 0. -1.
        -11    1    3    3    0    0  0.98334176650E+01 -0.77896063692E+01  0.73745215872E+01  0.14551894697E+02  0.51100000000E-03 0.  1.
        -12    1    3    3    0    0  0.86915655679E+01  0.48967201895E+01  0.23691663833E+02  0.25706343882E+02  0.00000000000E+00 0.  1.
</event>
<event>
 7    1  0.2318319E-009  0.4778729E+02  0.7816164E-02  0.1312668E+00
        -11   -1    0    0    0    0  0.00000000000E+00  0.00000000000E+00  0.45593999997E+02  0.45594000000E+02  0.51100000000E-03 0.  1.
         11   -1    0    0    0    0 -0.00000000000E+00 -0.00000000000E+00 -0.45593999997E+02  0.45594000000E+02  0.51100000000E-03 0. -1.
    9900012    2    1    2    0    0 -0.20738796554E+02  0.91654114631E+01  0.37007017493E+02  0.47787288099E+02  0.20000077756E+02 0.  0.
         12    1    1    2    0    0  0.20738796554E+02 -0.91654114631E+01 -0.37007017493E+02  0.43400711901E+02  0.00000000000E+00 0. -1.
         11    1    3    3    0    0 -0.28426812660E+01  0.84211402128E+00  0.15964937041E+01  0.33673112736E+01  0.51100000000E-03 0. -1.
        -11    1    3    3    0    0 -0.20095873930E+02  0.20886916229E+01  0.26965559641E+02  0.33694928234E+02  0.51100000000E-03 0.  1.
         12    1    3    3    0    0  0.21997586423E+01  0.62346058189E+01  0.84449641487E+01  0.10725048591E+02  0.00000000000E+00 0. -1.
</event>
<event>
 7    1  0.2318319E-009  0.4778727E+02  0.7816164E-02  0.1312668E+00
        -11   -1    0    0    0    0  0.00000000000E+00  0.00000000000E+00  0.45593999997E+02  0.45594000000E+02  0.51100000000E-03 0.  1.
         11   -1    0    0    0    0 -0.00000000000E+00 -0.00000000000E+00 -0.45593999997E+02  0.45594000000E+02  0.51100000000E-03 0. -1.
    9900012    2    1    2    0    0 -0.19052009210E+02 -0.13604721026E+00  0.38995202156E+02  0.47787270110E+02  0.19999995739E+02 0.  0.
         12    1    1    2    0    0  0.19052009210E+02  0.13604721026E+00 -0.38995202156E+02  0.43400729890E+02  0.00000000000E+00 0. -1.
         11    1    3    3    0    0 -0.13709479040E+02 -0.52102045171E+01  0.24292138590E+02  0.28376117497E+02  0.51100000000E-03 0. -1.
        -11    1    3    3    0    0 -0.76405680496E+01  0.91467894569E+00  0.72529959292E+01  0.10574538662E+02  0.51100000000E-03 0.  1.
        -12    1    3    3    0    0  0.22980378794E+01  0.41594783611E+01  0.74500676367E+01  0.88366139512E+01  0.00000000000E+00 0.  1.
</event>
<event>
 7    1  0.2318319E-009  0.4778727E+02  0.7816164E-02  0.1312668E+00
        -11   -1    0    0    0    0  0.00000000000E+00  0.00000000000E+00  0.45593999997E+02  0.45594000000E+02  0.51100000000E-03 0.  1.
         11   -1    0    0    0    0 -0.00000000000E+00 -0.00000000000E+00 -0.45593999997E+02  0.45594000000E+02  0.51100000000E-03 0. -1.
    9900012    2    1    2    0    0  0.99249253071E+00 -0.29489895753E+02  0.31827412636E+02  0.47787272033E+02  0.20000004507E+02 0.  0.
         12    1    1    2    0    0 -0.99249253071E+00  0.29489895753E+02 -0.31827412636E+02  0.43400727967E+02  0.00000000000E+00 0. -1.
         11    1    3    3    0    0 -0.14790345362E+01 -0.25804111070E+01 -0.13280492704E+01  0.32572656886E+01  0.51100000000E-03 0. -1.
        -11    1    3    3    0    0  0.27629359155E+01 -0.13987205259E+02  0.82555324497E+01  0.16475118880E+02  0.51100000000E-03 0.  1.
        -12    1    3    3    0    0 -0.29140884865E+00 -0.12922279388E+02  0.24899929457E+02  0.28054887464E+02  0.00000000000E+00 0.  1.
</event>
<event>
 7    1  0.2318319E-009  0.4778727E+02  0.7816164E-02  0.1312668E+00
        -11   -1    0    0    0    0  0.00000000000E+00  0.00000000000E+00  0.45593999997E+02  0.45594000000E+02  0.51100000000E-03 0.  1.
         11   -1    0    0    0    0 -0.00000000000E+00 -0.00000000000E+00 -0.45593999997E+02  0.45594000000E+02  0.51100000000E-03 0. -1.
    9900012    2    1    2    0    0  0.13295985348E+02 -0.17602389077E+01  0.41276406084E+02  0.47787269976E+02  0.19999995130E+02 0.  0.
         12    1    1    2    0    0 -0.13295985348E+02  0.17602389077E+01 -0.41276406084E+02  0.43400730024E+02  0.00000000000E+00 0. -1.
         11    1    3    3    0    0 -0.10462703136E+01 -0.12664142894E+00  0.17914019573E+02  0.17944994209E+02  0.51100000000E-03 0. -1.
        -11    1    3    3    0    0  0.48423294013E+01 -0.56758966880E+01  0.14191071380E+02  0.16032793407E+02  0.51100000000E-03 0.  1.
         12    1    3    3    0    0  0.94999262605E+01  0.40422992092E+01  0.91713151301E+01  0.13809482361E+02  0.00000000000E+00 0. -1.
</event>
<event>
 7    1  0.2318319E-009  0.4778727E+02  0.7816164E-02  0.1312668E+00
        -11   -1    0    0    0    0  0.00000000000E+00  0.00000000000E+00  0.45593999997E+02  0.45594000000E+02  0.51100000000E-03 0. -1.
         11   -1    0    0    0    0 -0.00000000000E+00 -0.00000000000E+00 -0.45593999997E+02  0.45594000000E+02  0.51100000000E-03 0.  1.
    9900012    2    1    2    0    0  0.93852264674E+01  0.31051899069E+02 -0.28832629350E+02  0.47787269282E+02  0.19999991966E+02 0.  0.
         12    1    1    2    0    0 -0.93852264674E+01 -0.31051899069E+02  0.28832629350E+02  0.43400730718E+02  0.00000000000E+00 0. -1.
         11    1    3    3    0    0 -0.16209550054E+01 -0.42343144799E+00 -0.68327354123E+00  0.18093237173E+01  0.51100000000E-03 0. -1.
        -11    1    3    3    0    0  0.75569474150E+01  0.39807901165E+01 -0.52102136911E+01  0.10005022296E+02  0.51100000000E-03 0.  1.
        -12    1    3    3    0    0  0.34492340578E+01  0.27494540400E+02 -0.22939142117E+02  0.35972923268E+02  0.00000000000E+00 0.  1.
</event>
<event>
 7    1  0.2318319E-009  0.4778727E+02  0.7816164E-02  0.1312668E+00
        -11   -1    0    0    0    0  0.00000000000E+00  0.00000000000E+00  0.45593999997E+02  0.45594000000E+02  0.51100000000E-03 0. -1.
         11   -1    0    0    0    0 -0.00000000000E+00 -0.00000000000E+00 -0.45593999997E+02  0.45594000000E+02  0.51100000000E-03 0.  1.
    9900012    2    1    2    0    0  0.23726026297E+02  0.29905532951E+02 -0.20648438441E+02  0.47787271493E+02  0.20000002045E+02 0.  0.
         12    1    1    2    0    0 -0.23726026297E+02 -0.29905532951E+02  0.20648438441E+02  0.43400728507E+02  0.00000000000E+00 0. -1.
         11    1    3    3    0    0 -0.14299763611E+01 -0.92762250500E+00 -0.16397444876E+01  0.23651803633E+01  0.51100000000E-03 0. -1.
        -11    1    3    3    0    0  0.71161669166E+01  0.10894401575E+02 -0.11843413014E+02  0.17595290544E+02  0.51100000000E-03 0.  1.
        -12    1    3    3    0    0  0.18039835741E+02  0.19938753880E+02 -0.71652809394E+01  0.27826800585E+02  0.00000000000E+00 0.  1.
</event>
<event>
 7    1  0.2318319E-009  0.4778727E+02  0.7816164E-02  0.1312668E+00
        -11   -1    0    0    0    0  0.00000000000E+00  0.00000000000E+00  0.45593999997E+02  0.45594000000E+02  0.51100000000E-03 0.  1.
         11   -1    0    0    0    0 -0.00000000000E+00 -0.00000000000E+00 -0.45593999997E+02  0.45594000000E+02  0.51100000000E-03 0. -1.
    9900012    2    1    2    0    0  0.10522660806E+02 -0.34150412793E+02  0.24630191602E+02  0.47787269330E+02  0.19999992182E+02 0.  0.
         12    1    1    2    0    0 -0.10522660806E+02  0.34150412793E+02 -0.24630191602E+02  0.43400730670E+02  0.00000000000E+00 0. -1.
         11    1    3    3    0    0  0.12948220942E+02 -0.12713591131E+02  0.93481488692E+01  0.20412734078E+02  0.51100000000E-03 0.  1.
        -11    1    3    3    0    0 -0.16057941073E+01 -0.11645129670E+01  0.31874182519E+01  0.37542376775E+01  0.51100000000E-03 0. -1.
        -12    1    3    3    0    0 -0.81976602844E+00 -0.20272308695E+02  0.12094624481E+02  0.23620297574E+02  0.00000000000E+00 0.  1.
</event>
<event>
 7    1  0.2318319E-009  0.4778727E+02  0.7816164E-02  0.1312668E+00
        -11   -1    0    0    0    0  0.00000000000E+00  0.00000000000E+00  0.45593999997E+02  0.45594000000E+02  0.51100000000E-03 0.  1.
         11   -1    0    0    0    0 -0.00000000000E+00 -0.00000000000E+00 -0.45593999997E+02  0.45594000000E+02  0.51100000000E-03 0. -1.
    9900012    2    1    2    0    0 -0.38299602729E+01  0.23042670926E+02  0.36578547701E+02  0.47787269234E+02  0.19999991743E+02 0.  0.
         12    1    1    2    0    0  0.38299602729E+01 -0.23042670926E+02 -0.36578547701E+02  0.43400730766E+02  0.00000000000E+00 0. -1.
         11    1    3    3    0    0 -0.75521778355E+01  0.51719843804E+01  0.35325429828E+01  0.98114052345E+01  0.51100000000E-03 0. -1.
        -11    1    3    3    0    0 -0.94359362379E-01  0.94499186565E+01  0.17489252656E+02  0.19879230997E+02  0.51100000000E-03 0.  1.
         12    1    3    3    0    0  0.38165769249E+01  0.84207678896E+01  0.15556752062E+02  0.18096633002E+02  0.00000000000E+00 0. -1.
</event>
<event>
 7    1  0.2318319E-009  0.4778727E+02  0.7816164E-02  0.1312668E+00
        -11   -1    0    0    0    0  0.00000000000E+00  0.00000000000E+00  0.45593999997E+02  0.45594000000E+02  0.51100000000E-03 0.  1.
         11   -1    0    0    0    0 -0.00000000000E+00 -0.00000000000E+00 -0.45593999997E+02  0.45594000000E+02  0.51100000000E-03 0. -1.
    9900012    2    1    2    0    0 -0.87436970333E+01 -0.28129677273E+02  0.31873066095E+02  0.47787270472E+02  0.19999997389E+02 0.  0.
         12    1    1    2    0    0  0.87436970333E+01  0.28129677273E+02 -0.31873066095E+02  0.43400729528E+02  0.00000000000E+00 0. -1.
         11    1    3    3    0    0 -0.55803634373E+01 -0.15698336000E+02  0.22066171813E+02  0.27649487301E+02  0.51100000000E-03 0. -1.
        -11    1    3    3    0    0  0.12366107778E+01 -0.12322674437E+02  0.97069095017E+01  0.15735361573E+02  0.51100000000E-03 0.  1.
         12    1    3    3    0    0 -0.43999443739E+01 -0.10866683611E+00  0.99984780795E-01  0.44024215985E+01  0.00000000000E+00 0. -1.
</event>
<event>
 7    1  0.2318319E-009  0.4778727E+02  0.7816164E-02  0.1312668E+00
        -11   -1    0    0    0    0  0.00000000000E+00  0.00000000000E+00  0.45593999997E+02  0.45594000000E+02  0.51100000000E-03 0.  1.
         11   -1    0    0    0    0 -0.00000000000E+00 -0.00000000000E+00 -0.45593999997E+02  0.45594000000E+02  0.51100000000E-03 0. -1.
    9900012    2    1    2    0    0  0.17137998005E+02 -0.13646094722E+01  0.39850346599E+02  0.47787271220E+02  0.20000000800E+02 0.  0.
         12    1    1    2    0    0 -0.17137998005E+02  0.13646094722E+01 -0.39850346599E+02  0.43400728780E+02  0.00000000000E+00 0. -1.
         11    1    3    3    0    0  0.74248693530E+01 -0.12672505963E+01  0.14848451267E+02  0.16649658083E+02  0.51100000000E-03 0.  1.
        -11    1    3    3    0    0  0.99622311874E+01  0.53353500952E+01  0.96828333323E+01  0.14881843719E+02  0.51100000000E-03 0. -1.
         12    1    3    3    0    0 -0.24910253578E+00 -0.54327089711E+01  0.15319061999E+02  0.16255769418E+02  0.00000000000E+00 0. -1.
</event>
<event>
 7    1  0.2318319E-009  0.4778728E+02  0.7816164E-02  0.1312668E+00
        -11   -1    0    0    0    0  0.00000000000E+00  0.00000000000E+00  0.45593999997E+02  0.45594000000E+02  0.51100000000E-03 0.  1.
         11   -1    0    0    0    0 -0.00000000000E+00 -0.00000000000E+00 -0.45593999997E+02  0.45594000000E+02  0.51100000000E-03 0. -1.
    9900012    2    1    2    0    0 -0.29972427384E+02 -0.31278445073E+02  0.26335070261E+01  0.47787275482E+02  0.20000020233E+02 0.  0.
         12    1    1    2    0    0  0.29972427384E+02  0.31278445073E+02 -0.26335070261E+01  0.43400724518E+02  0.00000000000E+00 0. -1.
         11    1    3    3    0    0 -0.14974919686E+02 -0.13068455160E+02 -0.36937646689E+01  0.20215752214E+02  0.51100000000E-03 0.  1.
        -11    1    3    3    0    0 -0.31329034955E+01 -0.10983417478E+02 -0.16683989553E+01  0.11542707617E+02  0.51100000000E-03 0. -1.
         12    1    3    3    0    0 -0.11864604202E+02 -0.72265724348E+01  0.79956706503E+01  0.16028815651E+02  0.00000000000E+00 0. -1.
</event>
<event>
 7    1  0.2318319E-009  0.4778727E+02  0.7816164E-02  0.1312668E+00
        -11   -1    0    0    0    0  0.00000000000E+00  0.00000000000E+00  0.45593999997E+02  0.45594000000E+02  0.51100000000E-03 0.  1.
         11   -1    0    0    0    0 -0.00000000000E+00 -0.00000000000E+00 -0.45593999997E+02  0.45594000000E+02  0.51100000000E-03 0. -1.
    9900012    2    1    2    0    0  0.34051201240E+02  0.87893855326E+01  0.25433955839E+02  0.47787265979E+02  0.19999976906E+02 0.  0.
         12    1    1    2    0    0 -0.34051201240E+02 -0.87893855326E+01 -0.25433955839E+02  0.43400734021E+02  0.00000000000E+00 0. -1.
         11    1    3    3    0    0  0.13473402915E+02  0.20312532317E+01  0.32690917724E+01  0.14012335176E+02  0.51100000000E-03 0. -1.
        -11    1    3    3    0    0  0.10267714152E+02 -0.98991933079E+00  0.31250420825E+01  0.10778301465E+02  0.51100000000E-03 0.  1.
         12    1    3    3    0    0  0.10310084172E+02  0.77480516317E+01  0.19039821984E+02  0.22996629338E+02  0.00000000000E+00 0. -1.
</event>
<event>
 7    1  0.2318319E-009  0.4778727E+02  0.7816164E-02  0.1312668E+00
        -11   -1    0    0    0    0  0.00000000000E+00  0.00000000000E+00  0.45593999997E+02  0.45594000000E+02  0.51100000000E-03 0.  1.
         11   -1    0    0    0    0 -0.00000000000E+00 -0.00000000000E+00 -0.45593999997E+02  0.45594000000E+02  0.51100000000E-03 0. -1.
    9900012    2    1    2    0    0  0.29348044872E+02  0.10727436846E+02  0.30120385662E+02  0.47787271072E+02  0.20000000124E+02 0.  0.
         12    1    1    2    0    0 -0.29348044872E+02 -0.10727436846E+02 -0.30120385662E+02  0.43400728928E+02  0.00000000000E+00 0. -1.
         11    1    3    3    0    0  0.89615170752E+01  0.22375329297E+01  0.14940833354E+01  0.93566889002E+01  0.51100000000E-03 0. -1.
        -11    1    3    3    0    0  0.13538170298E+01 -0.30776447835E+01  0.34744027264E+01  0.48348932283E+01  0.51100000000E-03 0.  1.
        -12    1    3    3    0    0  0.19032710767E+02  0.11567548700E+02  0.25151899600E+02  0.33595688943E+02  0.00000000000E+00 0.  1.
</event>
<event>
 7    1  0.2318319E-009  0.4778727E+02  0.7816164E-02  0.1312668E+00
        -11   -1    0    0    0    0  0.00000000000E+00  0.00000000000E+00  0.45593999997E+02  0.45594000000E+02  0.51100000000E-03 0.  1.
         11   -1    0    0    0    0 -0.00000000000E+00 -0.00000000000E+00 -0.45593999997E+02  0.45594000000E+02  0.51100000000E-03 0. -1.
    9900012    2    1    2    0    0 -0.18762972509E+02  0.37279988683E+02  0.11906988804E+02  0.47787273325E+02  0.20000010397E+02 0.  0.
         12    1    1    2    0    0  0.18762972509E+02 -0.37279988683E+02 -0.11906988804E+02  0.43400726675E+02  0.00000000000E+00 0. -1.
         11    1    3    3    0    0  0.12327480960E+01  0.21515427205E+01  0.18124073788E+01  0.30714206345E+01  0.51100000000E-03 0. -1.
        -11    1    3    3    0    0 -0.14404970677E+02  0.12839050415E+02  0.10005084478E+02  0.21735825529E+02  0.51100000000E-03 0.  1.
         12    1    3    3    0    0 -0.55907499276E+01  0.22289395547E+02  0.89496947802E-01  0.22980027161E+02  0.00000000000E+00 0. -1.
</event>
<event>
 7    1  0.2318319E-009  0.4778727E+02  0.7816164E-02  0.1312668E+00
        -11   -1    0    0    0    0  0.00000000000E+00  0.00000000000E+00  0.45593999997E+02  0.45594000000E+02  0.51100000000E-03 0.  1.
         11   -1    0    0    0    0 -0.00000000000E+00 -0.00000000000E+00 -0.45593999997E+02  0.45594000000E+02  0.51100000000E-03 0. -1.
    9900012    2    1    2    0    0  0.30144680561E+02  0.12902010176E+02  0.28433423672E+02  0.47787271730E+02  0.20000003124E+02 0.  0.
         12    1    1    2    0    0 -0.30144680561E+02 -0.12902010176E+02 -0.28433423672E+02  0.43400728270E+02  0.00000000000E+00 0. -1.
         11    1    3    3    0    0  0.34434502098E+01  0.53197992903E+01  0.75277990629E+01  0.98399884568E+01  0.51100000000E-03 0. -1.
        -11    1    3    3    0    0  0.50559500643E+00  0.48364725194E+01  0.10819997108E+01  0.49817483253E+01  0.51100000000E-03 0.  1.
        -12    1    3    3    0    0  0.26195635344E+02  0.27457383660E+01  0.19823624898E+02  0.32965534948E+02  0.00000000000E+00 0.  1.
</event>
<event>
 7    1  0.2318319E-009  0.4778729E+02  0.7816164E-02  0.1312668E+00
        -11   -1    0    0    0    0  0.00000000000E+00  0.00000000000E+00  0.45593999997E+02  0.45594000000E+02  0.51100000000E-03 0.  1.
         11   -1    0    0    0    0 -0.00000000000E+00 -0.00000000000E+00 -0.45593999997E+02  0.45594000000E+02  0.51100000000E-03 0. -1.
    9900012    2    1    2    0    0 -0.21311716339E+02  0.28901438387E+02  0.24374970821E+02  0.47787290366E+02  0.20000088096E+02 0.  0.
         12    1    1    2    0    0  0.21311716339E+02 -0.28901438387E+02 -0.24374970821E+02  0.43400709634E+02  0.00000000000E+00 0. -1.
         11    1    3    3    0    0 -0.14980976245E+02  0.92387969839E+01  0.13996056203E+02  0.22487209886E+02  0.51100000000E-03 0. -1.
        -11    1    3    3    0    0 -0.17871070417E+01 -0.28564216121E+00  0.30905359424E+01  0.35814460341E+01  0.51100000000E-03 0.  1.
         12    1    3    3    0    0 -0.45436330526E+01  0.19948283564E+02  0.72883786761E+01  0.21718634446E+02  0.00000000000E+00 0. -1.
</event>
<event>
 7    1  0.2318319E-009  0.4778727E+02  0.7816164E-02  0.1312668E+00
        -11   -1    0    0    0    0  0.00000000000E+00  0.00000000000E+00  0.45593999997E+02  0.45594000000E+02  0.51100000000E-03 0. -1.
         11   -1    0    0    0    0 -0.00000000000E+00 -0.00000000000E+00 -0.45593999997E+02  0.45594000000E+02  0.51100000000E-03 0.  1.
    9900012    2    1    2    0    0 -0.20878232288E+02 -0.38579479013E+01 -0.37852859814E+02  0.47787270264E+02  0.19999996442E+02 0.  0.
         12    1    1    2    0    0  0.20878232288E+02  0.38579479013E+01  0.37852859814E+02  0.43400729736E+02  0.00000000000E+00 0. -1.
         11    1    3    3    0    0 -0.16414242356E+02  0.52401066076E+01 -0.20037244474E+02  0.26426827954E+02  0.51100000000E-03 0. -1.
        -11    1    3    3    0    0 -0.40067169157E+01 -0.34599684223E+01 -0.47086547748E+01  0.70849553262E+01  0.51100000000E-03 0.  1.
        -12    1    3    3    0    0 -0.45727301677E+00 -0.56380860866E+01 -0.13106960566E+02  0.14275486983E+02  0.00000000000E+00 0.  1.
</event>
<event>
 7    1  0.2318319E-009  0.4778727E+02  0.7816164E-02  0.1312668E+00
        -11   -1    0    0    0    0  0.00000000000E+00  0.00000000000E+00  0.45593999997E+02  0.45594000000E+02  0.51100000000E-03 0. -1.
         11   -1    0    0    0    0 -0.00000000000E+00 -0.00000000000E+00 -0.45593999997E+02  0.45594000000E+02  0.51100000000E-03 0.  1.
    9900012    2    1    2    0    0  0.26965952822E+02 -0.32979294801E+02  0.82961982235E+01  0.47787269567E+02  0.19999993264E+02 0.  0.
         12    1    1    2    0    0 -0.26965952822E+02  0.32979294801E+02 -0.82961982235E+01  0.43400730433E+02  0.00000000000E+00 0. -1.
         11    1    3    3    0    0 -0.10918651557E+00 -0.25587708759E+00  0.16536019384E+01  0.16768406039E+01  0.51100000000E-03 0. -1.
        -11    1    3    3    0    0  0.98638401843E+01 -0.81297384017E+01  0.95443968200E+01  0.15952539001E+02  0.51100000000E-03 0.  1.
         12    1    3    3    0    0  0.17211299153E+02 -0.24593679312E+02 -0.29018005348E+01  0.30157889962E+02  0.00000000000E+00 0. -1.
</event>
<event>
 7    1  0.2318319E-009  0.4778728E+02  0.7816164E-02  0.1312668E+00
        -11   -1    0    0    0    0  0.00000000000E+00  0.00000000000E+00  0.45593999997E+02  0.45594000000E+02  0.51100000000E-03 0. -1.
         11   -1    0    0    0    0 -0.00000000000E+00 -0.00000000000E+00 -0.45593999997E+02  0.45594000000E+02  0.51100000000E-03 0.  1.
    9900012    2    1    2    0    0  0.77954386024E+01 -0.36036952876E+02 -0.22895228416E+02  0.47787282036E+02  0.20000050113E+02 0.  0.
         12    1    1    2    0    0 -0.77954386024E+01  0.36036952876E+02  0.22895228416E+02  0.43400717964E+02  0.00000000000E+00 0. -1.
         11    1    3    3    0    0  0.13733647444E+01 -0.55901403055E+01 -0.16955240360E+01  0.60008833828E+01  0.51100000000E-03 0. -1.
        -11    1    3    3    0    0  0.88439312903E+01 -0.28719991986E+02 -0.12419589218E+02  0.32516138408E+02  0.51100000000E-03 0.  1.
         12    1    3    3    0    0 -0.24218574323E+01 -0.17268205846E+01 -0.87801151619E+01  0.92702602450E+01  0.00000000000E+00 0. -1.
</event>
<event>
 7    1  0.2318319E-009  0.4778728E+02  0.7816164E-02  0.1312668E+00
        -11   -1    0    0    0    0  0.00000000000E+00  0.00000000000E+00  0.45593999997E+02  0.45594000000E+02  0.51100000000E-03 0.  1.
         11   -1    0    0    0    0 -0.00000000000E+00 -0.00000000000E+00 -0.45593999997E+02  0.45594000000E+02  0.51100000000E-03 0. -1.
    9900012    2    1    2    0    0  0.37871305077E+01 -0.34631482296E+02  0.25883218038E+02  0.47787275358E+02  0.20000019665E+02 0.  0.
         12    1    1    2    0    0 -0.37871305077E+01  0.34631482296E+02 -0.25883218038E+02  0.43400724642E+02  0.00000000000E+00 0. -1.
         11    1    3    3    0    0 -0.50948089369E+01 -0.92213776438E+01  0.53968624955E+01  0.11837103058E+02  0.51100000000E-03 0. -1.
        -11    1    3    3    0    0 -0.64151495552E-01 -0.10513348027E+02  0.22324106100E+01  0.10747942107E+02  0.51100000000E-03 0.  1.
        -12    1    3    3    0    0  0.89460909402E+01 -0.14896756625E+02  0.18253944933E+02  0.25202230192E+02  0.00000000000E+00 0.  1.
</event>
<event>
 7    1  0.2318319E-009  0.4778726E+02  0.7816164E-02  0.1312668E+00
        -11   -1    0    0    0    0  0.00000000000E+00  0.00000000000E+00  0.45593999997E+02  0.45594000000E+02  0.51100000000E-03 0. -1.
         11   -1    0    0    0    0 -0.00000000000E+00 -0.00000000000E+00 -0.45593999997E+02  0.45594000000E+02  0.51100000000E-03 0.  1.
    9900012    2    1    2    0    0 -0.25719946611E+02  0.34674220028E+02 -0.44505193525E+01  0.47787259099E+02  0.19999945536E+02 0.  0.
         12    1    1    2    0    0  0.25719946611E+02 -0.34674220028E+02  0.44505193525E+01  0.43400740901E+02  0.00000000000E+00 0. -1.
         11    1    3    3    0    0  0.25694559523E+01  0.20598051858E+01  0.20604078593E+01  0.38846083589E+01  0.51100000000E-03 0.  1.
        -11    1    3    3    0    0 -0.34762307245E+00 -0.71460093124E-01 -0.28050360248E+00  0.45236144568E+00  0.51100000000E-03 0. -1.
        -12    1    3    3    0    0 -0.27941779491E+02  0.32685874936E+02 -0.62304236093E+01  0.43450289294E+02  0.00000000000E+00 0.  1.
</event>
<event>
 7    1  0.2318319E-009  0.4778727E+02  0.7816164E-02  0.1312668E+00
        -11   -1    0    0    0    0  0.00000000000E+00  0.00000000000E+00  0.45593999997E+02  0.45594000000E+02  0.51100000000E-03 0.  1.
         11   -1    0    0    0    0 -0.00000000000E+00 -0.00000000000E+00 -0.45593999997E+02  0.45594000000E+02  0.51100000000E-03 0. -1.
    9900012    2    1    2    0    0 -0.23162435633E+02  0.14275818834E+02  0.33813100744E+02  0.47787271783E+02  0.20000003367E+02 0.  0.
         12    1    1    2    0    0  0.23162435633E+02 -0.14275818834E+02 -0.33813100744E+02  0.43400728217E+02  0.00000000000E+00 0. -1.
         11    1    3    3    0    0 -0.24266452176E+01  0.46369539375E+01  0.17972706716E+01  0.55335459661E+01  0.51100000000E-03 0. -1.
        -11    1    3    3    0    0 -0.21258151136E+02  0.11986222348E+02  0.31405137749E+02  0.39772618636E+02  0.51100000000E-03 0.  1.
        -12    1    3    3    0    0  0.52236071975E+00 -0.23473574518E+01  0.61069232317E+00  0.24811071806E+01  0.00000000000E+00 0.  1.
</event>
<event>
 7    1  0.2318319E-009  0.4778727E+02  0.7816164E-02  0.1312668E+00
        -11   -1    0    0    0    0  0.00000000000E+00  0.00000000000E+00  0.45593999997E+02  0.45594000000E+02  0.51100000000E-03 0.  1.
         11   -1    0    0    0    0 -0.00000000000E+00 -0.00000000000E+00 -0.45593999997E+02  0.45594000000E+02  0.51100000000E-03 0. -1.
    9900012    2    1    2    0    0 -0.13881152511E+01  0.29672521827E+02  0.31642343523E+02  0.47787270523E+02  0.19999997621E+02 0.  0.
         12    1    1    2    0    0  0.13881152511E+01 -0.29672521827E+02 -0.31642343523E+02  0.43400729477E+02  0.00000000000E+00 0. -1.
         11    1    3    3    0    0 -0.52346473368E+01  0.19344595867E+02  0.17744575413E+02  0.26767235174E+02  0.51100000000E-03 0. -1.
        -11    1    3    3    0    0  0.34444192841E+01  0.12008405200E+02  0.79061017283E+01  0.14784189679E+02  0.51100000000E-03 0.  1.
         12    1    3    3    0    0  0.40211280159E+00 -0.16804792410E+01  0.59916663819E+01  0.62358456698E+01  0.00000000000E+00 0. -1.
</event>
<event>
 7    1  0.2318319E-009  0.4778727E+02  0.7816164E-02  0.1312668E+00
        -11   -1    0    0    0    0  0.00000000000E+00  0.00000000000E+00  0.45593999997E+02  0.45594000000E+02  0.51100000000E-03 0.  1.
         11   -1    0    0    0    0 -0.00000000000E+00 -0.00000000000E+00 -0.45593999997E+02  0.45594000000E+02  0.51100000000E-03 0. -1.
    9900012    2    1    2    0    0  0.16883395567E+02  0.39834199729E+02 -0.34366944144E+01  0.47787269794E+02  0.19999994297E+02 0.  0.
         12    1    1    2    0    0 -0.16883395567E+02 -0.39834199729E+02  0.34366944144E+01  0.43400730206E+02  0.00000000000E+00 0. -1.
         11    1    3    3    0    0  0.27966325377E+01 -0.11729427841E+01 -0.28718829570E-01  0.30327831044E+01  0.51100000000E-03 0. -1.
        -11    1    3    3    0    0  0.58941662283E+01  0.10551082375E+02  0.32618210082E+01  0.12518227166E+02  0.51100000000E-03 0.  1.
        -12    1    3    3    0    0  0.81925968008E+01  0.30456060138E+02 -0.66697965930E+01  0.32236259524E+02  0.00000000000E+00 0.  1.
</event>
<event>
 7    1  0.2318319E-009  0.4778727E+02  0.7816164E-02  0.1312668E+00
        -11   -1    0    0    0    0  0.00000000000E+00  0.00000000000E+00  0.45593999997E+02  0.45594000000E+02  0.51100000000E-03 0. -1.
         11   -1    0    0    0    0 -0.00000000000E+00 -0.00000000000E+00 -0.45593999997E+02  0.45594000000E+02  0.51100000000E-03 0.  1.
    9900012    2    1    2    0    0 -0.27265089953E+02  0.30165173284E+02 -0.15175645685E+02  0.47787273838E+02  0.20000012737E+02 0.  0.
         12    1    1    2    0    0  0.27265089953E+02 -0.30165173284E+02  0.15175645685E+02  0.43400726162E+02  0.00000000000E+00 0. -1.
         11    1    3    3    0    0 -0.74710971091E+00 -0.19453970659E+01 -0.37791768784E+01  0.43156599499E+01  0.51100000000E-03 0. -1.
        -11    1    3    3    0    0 -0.38233509473E+01  0.75993302785E+01 -0.15562967086E+01  0.86481149885E+01  0.51100000000E-03 0.  1.
         12    1    3    3    0    0 -0.22694629295E+02  0.24511240072E+02 -0.98401720982E+01  0.34823498900E+02  0.00000000000E+00 0. -1.
</event>
<event>
 7    1  0.2318319E-009  0.4778727E+02  0.7816164E-02  0.1312668E+00
        -11   -1    0    0    0    0  0.00000000000E+00  0.00000000000E+00  0.45593999997E+02  0.45594000000E+02  0.51100000000E-03 0.  1.
         11   -1    0    0    0    0 -0.00000000000E+00 -0.00000000000E+00 -0.45593999997E+02  0.45594000000E+02  0.51100000000E-03 0. -1.
    9900012    2    1    2    0    0 -0.34126756245E+02 -0.25812064838E+02  0.72611995818E+01  0.47787271868E+02  0.20000003754E+02 0.  0.
         12    1    1    2    0    0  0.34126756245E+02  0.25812064838E+02 -0.72611995818E+01  0.43400728132E+02  0.00000000000E+00 0. -1.
         11    1    3    3    0    0 -0.97152130861E+01 -0.13913900226E+01  0.23695136472E+01  0.10096332338E+02  0.51100000000E-03 0. -1.
        -11    1    3    3    0    0 -0.23406860156E+02 -0.14833678757E+02  0.30709107798E+01  0.27880990318E+02  0.51100000000E-03 0.  1.
         12    1    3    3    0    0 -0.10046830032E+01 -0.95869960586E+01  0.18207751548E+01  0.98099492113E+01  0.00000000000E+00 0. -1.
</event>
<event>
 7    1  0.2318319E-009  0.4778727E+02  0.7816164E-02  0.1312668E+00
        -11   -1    0    0    0    0  0.00000000000E+00  0.00000000000E+00  0.45593999997E+02  0.45594000000E+02  0.51100000000E-03 0.  1.
         11   -1    0    0    0    0 -0.00000000000E+00 -0.00000000000E+00 -0.45593999997E+02  0.45594000000E+02  0.51100000000E-03 0. -1.
    9900012    2    1    2    0    0 -0.16213999723E+02  0.39133234401E+02  0.94508856709E+01  0.47787273489E+02  0.20000011145E+02 0.  0.
         12    1    1    2    0    0  0.16213999723E+02 -0.39133234401E+02 -0.94508856709E+01  0.43400726511E+02  0.00000000000E+00 0. -1.
         11    1    3    3    0    0 -0.18531987159E+01  0.12572286096E+02 -0.20187240329E+01  0.12867477225E+02  0.51100000000E-03 0. -1.
        -11    1    3    3    0    0  0.10815501874E+01 -0.32393552406E+00  0.23419285064E+01  0.25998681547E+01  0.51100000000E-03 0.  1.
        -12    1    3    3    0    0 -0.15442351194E+02  0.26884883830E+02  0.91276811974E+01  0.32319928109E+02  0.00000000000E+00 0.  1.
</event>
<event>
 7    1  0.2318319E-009  0.4778727E+02  0.7816164E-02  0.1312668E+00
        -11   -1    0    0    0    0  0.00000000000E+00  0.00000000000E+00  0.45593999997E+02  0.45594000000E+02  0.51100000000E-03 0. -1.
         11   -1    0    0    0    0 -0.00000000000E+00 -0.00000000000E+00 -0.45593999997E+02  0.45594000000E+02  0.51100000000E-03 0.  1.
    9900012    2    1    2    0    0 -0.11882504269E+02 -0.40097029167E+02  0.11604208431E+02  0.47787270639E+02  0.19999998152E+02 0.  0.
         12    1    1    2    0    0  0.11882504269E+02  0.40097029167E+02 -0.11604208431E+02  0.43400729361E+02  0.00000000000E+00 0. -1.
         11    1    3    3    0    0  0.16732906538E+01 -0.10604370718E+02 -0.21400920919E+00  0.10737708328E+02  0.51100000000E-03 0. -1.
        -11    1    3    3    0    0  0.52889703090E+00 -0.10867745101E+02  0.51657121578E-02  0.10880608559E+02  0.51100000000E-03 0.  1.
         12    1    3    3    0    0 -0.14084691953E+02 -0.18624913348E+02  0.11813051928E+02  0.26168953753E+02  0.00000000000E+00 0. -1.
</event>
<event>
 7    1  0.2318319E-009  0.4778730E+02  0.7816164E-02  0.1312668E+00
        -11   -1    0    0    0    0  0.00000000000E+00  0.00000000000E+00  0.45593999997E+02  0.45594000000E+02  0.51100000000E-03 0. -1.
         11   -1    0    0    0    0 -0.00000000000E+00 -0.00000000000E+00 -0.45593999997E+02  0.45594000000E+02  0.51100000000E-03 0.  1.
    9900012    2    1    2    0    0  0.14066372506E+02  0.17754319572E+02 -0.37020830921E+02  0.47787301607E+02  0.20000139345E+02 0.  0.
         12    1    1    2    0    0 -0.14066372506E+02 -0.17754319572E+02  0.37020830921E+02  0.43400698393E+02  0.00000000000E+00 0. -1.
         11    1    3    3    0    0  0.69583961047E+01 -0.19510473665E+01 -0.17200371345E+02  0.18656865676E+02  0.51100000000E-03 0. -1.
        -11    1    3    3    0    0  0.12698311963E+01  0.27049176713E+01 -0.11179152593E+01  0.31904209227E+01  0.51100000000E-03 0.  1.
         12    1    3    3    0    0  0.58381452049E+01  0.17000449267E+02 -0.18702544317E+02  0.25940015008E+02  0.00000000000E+00 0. -1.
</event>
<event>
 7    1  0.2318319E-009  0.4778727E+02  0.7816164E-02  0.1312668E+00
        -11   -1    0    0    0    0  0.00000000000E+00  0.00000000000E+00  0.45593999997E+02  0.45594000000E+02  0.51100000000E-03 0.  1.
         11   -1    0    0    0    0 -0.00000000000E+00 -0.00000000000E+00 -0.45593999997E+02  0.45594000000E+02  0.51100000000E-03 0. -1.
    9900012    2    1    2    0    0  0.20976625085E+02 -0.13073688802E+01  0.37972296864E+02  0.47787270254E+02  0.19999996396E+02 0.  0.
         12    1    1    2    0    0 -0.20976625085E+02  0.13073688802E+01 -0.37972296864E+02  0.43400729746E+02  0.00000000000E+00 0. -1.
         11    1    3    3    0    0 -0.18067031301E+01  0.29636594919E+01  0.64090473044E+01  0.72885760883E+01  0.51100000000E-03 0. -1.
        -11    1    3    3    0    0  0.27182307327E+01  0.25423632055E+01  0.23226273358E+01  0.43871388156E+01  0.51100000000E-03 0.  1.
        -12    1    3    3    0    0  0.20065097483E+02 -0.68133915776E+01  0.29240622224E+02  0.36111555350E+02  0.00000000000E+00 0.  1.
</event>
<event>
 7    1  0.2318319E-009  0.4778727E+02  0.7816164E-02  0.1312668E+00
        -11   -1    0    0    0    0  0.00000000000E+00  0.00000000000E+00  0.45593999997E+02  0.45594000000E+02  0.51100000000E-03 0. -1.
         11   -1    0    0    0    0 -0.00000000000E+00 -0.00000000000E+00 -0.45593999997E+02  0.45594000000E+02  0.51100000000E-03 0.  1.
    9900012    2    1    2    0    0  0.28071229779E+02 -0.27471811214E+02  0.18464259885E+02  0.47787271368E+02  0.20000001475E+02 0.  0.
         12    1    1    2    0    0 -0.28071229779E+02  0.27471811214E+02 -0.18464259885E+02  0.43400728632E+02  0.00000000000E+00 0. -1.
         11    1    3    3    0    0  0.13461005529E+02 -0.41734928154E+01 -0.32499457324E+00  0.14096890929E+02  0.51100000000E-03 0. -1.
        -11    1    3    3    0    0  0.82251846811E+01 -0.95758715630E+01  0.65256668659E+01  0.14210394348E+02  0.51100000000E-03 0.  1.
        -12    1    3    3    0    0  0.63850395691E+01 -0.13722446836E+02  0.12263587593E+02  0.19479986091E+02  0.00000000000E+00 0.  1.
</event>
<event>
 7    1  0.2318319E-009  0.4778727E+02  0.7816164E-02  0.1312668E+00
        -11   -1    0    0    0    0  0.00000000000E+00  0.00000000000E+00  0.45593999997E+02  0.45594000000E+02  0.51100000000E-03 0. -1.
         11   -1    0    0    0    0 -0.00000000000E+00 -0.00000000000E+00 -0.45593999997E+02  0.45594000000E+02  0.51100000000E-03 0.  1.
    9900012    2    1    2    0    0  0.96482484034E+01 -0.13121815754E+02 -0.40228752945E+02  0.47787270635E+02  0.19999998133E+02 0.  0.
         12    1    1    2    0    0 -0.96482484034E+01  0.13121815754E+02  0.40228752945E+02  0.43400729365E+02  0.00000000000E+00 0. -1.
         11    1    3    3    0    0  0.25063564380E+01 -0.27587594578E+01 -0.50105116764E+01  0.62448221641E+01  0.51100000000E-03 0. -1.
        -11    1    3    3    0    0  0.43921669115E+01 -0.19563664225E+01 -0.31636501379E+02  0.31999792492E+02  0.51100000000E-03 0.  1.
         12    1    3    3    0    0  0.27497250539E+01 -0.84066898733E+01 -0.35817398891E+01  0.95426559789E+01  0.00000000000E+00 0. -1.
</event>
<event>
 7    1  0.2318319E-009  0.4778727E+02  0.7816164E-02  0.1312668E+00
        -11   -1    0    0    0    0  0.00000000000E+00  0.00000000000E+00  0.45593999997E+02  0.45594000000E+02  0.51100000000E-03 0.  1.
         11   -1    0    0    0    0 -0.00000000000E+00 -0.00000000000E+00 -0.45593999997E+02  0.45594000000E+02  0.51100000000E-03 0. -1.
    9900012    2    1    2    0    0 -0.15435550262E+02 -0.15217287758E+02  0.37600547976E+02  0.47787271127E+02  0.20000000375E+02 0.  0.
         12    1    1    2    0    0  0.15435550262E+02  0.15217287758E+02 -0.37600547976E+02  0.43400728873E+02  0.00000000000E+00 0. -1.
         11    1    3    3    0    0 -0.90862466262E+01 -0.33301135328E+00  0.75025899408E+01  0.11788113946E+02  0.51100000000E-03 0. -1.
        -11    1    3    3    0    0  0.88078146239E+00  0.13297545713E+01  0.50642960881E+01  0.53095308958E+01  0.51100000000E-03 0.  1.
         12    1    3    3    0    0 -0.72300850983E+01 -0.16214030976E+02  0.25033661948E+02  0.30689626285E+02  0.00000000000E+00 0. -1.
</event>
<event>
 7    1  0.2318319E-009  0.4778730E+02  0.7816164E-02  0.1312668E+00
        -11   -1    0    0    0    0  0.00000000000E+00  0.00000000000E+00  0.45593999997E+02  0.45594000000E+02  0.51100000000E-03 0.  1.
         11   -1    0    0    0    0 -0.00000000000E+00 -0.00000000000E+00 -0.45593999997E+02  0.45594000000E+02  0.51100000000E-03 0. -1.
    9900012    2    1    2    0    0 -0.13253221105E+02 -0.20234828521E+02  0.36035042450E+02  0.47787303701E+02  0.20000148893E+02 0.  0.
         12    1    1    2    0    0  0.13253221105E+02  0.20234828521E+02 -0.36035042450E+02  0.43400696299E+02  0.00000000000E+00 0. -1.
         11    1    3    3    0    0  0.13931073680E+01 -0.49072554924E+00  0.78658303877E+01  0.80033022967E+01  0.51100000000E-03 0.  1.
        -11    1    3    3    0    0 -0.12223392242E+02 -0.21365324676E+02  0.27263434056E+02  0.36731229944E+02  0.51100000000E-03 0. -1.
         12    1    3    3    0    0 -0.24229362309E+01  0.16212217043E+01  0.90577800622E+00  0.30527714605E+01  0.00000000000E+00 0. -1.
</event>
<event>
 7    1  0.2318319E-009  0.4778724E+02  0.7816164E-02  0.1312668E+00
        -11   -1    0    0    0    0  0.00000000000E+00  0.00000000000E+00  0.45593999997E+02  0.45594000000E+02  0.51100000000E-03 0. -1.
         11   -1    0    0    0    0 -0.00000000000E+00 -0.00000000000E+00 -0.45593999997E+02  0.45594000000E+02  0.51100000000E-03 0.  1.
    9900012    2    1    2    0    0  0.28584004184E+02  0.86772394385E+01 -0.31484691611E+02  0.47787244416E+02  0.19999878590E+02 0.  0.
         12    1    1    2    0    0 -0.28584004184E+02 -0.86772394385E+01  0.31484691611E+02  0.43400755584E+02  0.00000000000E+00 0. -1.
         11    1    3    3    0    0  0.75146084803E+01 -0.35584010070E+01 -0.78488255152E+01  0.11433967840E+02  0.51100000000E-03 0. -1.
        -11    1    3    3    0    0  0.71059524640E+01  0.11532001008E+02 -0.13130824297E+02  0.18865316182E+02  0.51100000000E-03 0.  1.
         12    1    3    3    0    0  0.13963443239E+02  0.70363943768E+00 -0.10505041798E+02  0.17487960394E+02  0.00000000000E+00 0. -1.
</event>
<event>
 7    1  0.2318319E-009  0.4778726E+02  0.7816164E-02  0.1312668E+00
        -11   -1    0    0    0    0  0.00000000000E+00  0.00000000000E+00  0.45593999997E+02  0.45594000000E+02  0.51100000000E-03 0.  1.
         11   -1    0    0    0    0 -0.00000000000E+00 -0.00000000000E+00 -0.45593999997E+02  0.45594000000E+02  0.51100000000E-03 0. -1.
    9900012    2    1    2    0    0 -0.11978645872E+02 -0.30454562615E+02  0.28507113554E+02  0.47787264243E+02  0.19999968992E+02 0.  0.
         12    1    1    2    0    0  0.11978645872E+02  0.30454562615E+02 -0.28507113554E+02  0.43400735757E+02  0.00000000000E+00 0. -1.
         11    1    3    3    0    0  0.29516634173E+01 -0.40765400790E+01  0.81183541609E+01  0.95518673822E+01  0.51100000000E-03 0.  1.
        -11    1    3    3    0    0 -0.19629328686E+01 -0.13706266702E+02  0.11712599489E+02  0.18135595921E+02  0.51100000000E-03 0. -1.
         12    1    3    3    0    0 -0.12967376421E+02 -0.12671755835E+02  0.86761599040E+01  0.20099800941E+02  0.00000000000E+00 0. -1.
</event>
<event>
 7    1  0.2318319E-009  0.4778727E+02  0.7816164E-02  0.1312668E+00
        -11   -1    0    0    0    0  0.00000000000E+00  0.00000000000E+00  0.45593999997E+02  0.45594000000E+02  0.51100000000E-03 0.  1.
         11   -1    0    0    0    0 -0.00000000000E+00 -0.00000000000E+00 -0.45593999997E+02  0.45594000000E+02  0.51100000000E-03 0. -1.
    9900012    2    1    2    0    0  0.37354389927E+02 -0.79599040776E+00  0.22082557550E+02  0.47787269644E+02  0.19999993613E+02 0.  0.
         12    1    1    2    0    0 -0.37354389927E+02  0.79599040776E+00 -0.22082557550E+02  0.43400730356E+02  0.00000000000E+00 0. -1.
         11    1    3    3    0    0  0.82995661722E+01 -0.50604320211E+01  0.43539826067E+01  0.10651194097E+02  0.51100000000E-03 0. -1.
        -11    1    3    3    0    0  0.81097449597E+01 -0.42651206306E+01  0.91478474075E+01  0.12947676616E+02  0.51100000000E-03 0.  1.
         12    1    3    3    0    0  0.20945078795E+02  0.85295622440E+01  0.85807275356E+01  0.24188398931E+02  0.00000000000E+00 0. -1.
</event>
<event>
 7    1  0.2318319E-009  0.4778727E+02  0.7816164E-02  0.1312668E+00
        -11   -1    0    0    0    0  0.00000000000E+00  0.00000000000E+00  0.45593999997E+02  0.45594000000E+02  0.51100000000E-03 0.  1.
         11   -1    0    0    0    0 -0.00000000000E+00 -0.00000000000E+00 -0.45593999997E+02  0.45594000000E+02  0.51100000000E-03 0. -1.
    9900012    2    1    2    0    0  0.11453549805E+02  0.21202078028E+01  0.41808422810E+02  0.47787270719E+02  0.19999998516E+02 0.  0.
         12    1    1    2    0    0 -0.11453549805E+02 -0.21202078028E+01 -0.41808422810E+02  0.43400729281E+02  0.00000000000E+00 0. -1.
         11    1    3    3    0    0 -0.33230805489E+01 -0.34515473694E+00  0.45581405523E+01  0.56514282870E+01  0.51100000000E-03 0. -1.
        -11    1    3    3    0    0  0.16789381846E+02  0.26546547103E+01  0.35853046502E+02  0.39678350244E+02  0.51100000000E-03 0.  1.
        -12    1    3    3    0    0 -0.20127514920E+01 -0.18929217058E+00  0.13972357561E+01  0.24574921876E+01  0.00000000000E+00 0.  1.
</event>
<event>
 7    1  0.2318319E-009  0.4778727E+02  0.7816164E-02  0.1312668E+00
        -11   -1    0    0    0    0  0.00000000000E+00  0.00000000000E+00  0.45593999997E+02  0.45594000000E+02  0.51100000000E-03 0.  1.
         11   -1    0    0    0    0 -0.00000000000E+00 -0.00000000000E+00 -0.45593999997E+02  0.45594000000E+02  0.51100000000E-03 0. -1.
    9900012    2    1    2    0    0 -0.26855712414E+02  0.27927127861E+02  0.19556819196E+02  0.47787274927E+02  0.20000017703E+02 0.  0.
         12    1    1    2    0    0  0.26855712414E+02 -0.27927127861E+02 -0.19556819196E+02  0.43400725073E+02  0.00000000000E+00 0. -1.
         11    1    3    3    0    0 -0.63886978164E+01  0.10300657051E+02  0.33854700950E+01  0.12584927632E+02  0.51100000000E-03 0. -1.
        -11    1    3    3    0    0 -0.35754461282E+01  0.13259013169E+02  0.84410033865E+01  0.16119422560E+02  0.51100000000E-03 0.  1.
        -12    1    3    3    0    0 -0.16891568469E+02  0.43674576400E+01  0.77303457147E+01  0.19082924735E+02  0.00000000000E+00 0.  1.
</event>
<event>
 7    1  0.2318319E-009  0.4778727E+02  0.7816164E-02  0.1312668E+00
        -11   -1    0    0    0    0  0.00000000000E+00  0.00000000000E+00  0.45593999997E+02  0.45594000000E+02  0.51100000000E-03 0.  1.
         11   -1    0    0    0    0 -0.00000000000E+00 -0.00000000000E+00 -0.45593999997E+02  0.45594000000E+02  0.51100000000E-03 0. -1.
    9900012    2    1    2    0    0  0.37081549471E+02 -0.22322017484E+02 -0.32108389912E+01  0.47787271172E+02  0.20000000582E+02 0.  0.
         12    1    1    2    0    0 -0.37081549471E+02  0.22322017484E+02  0.32108389912E+01  0.43400728828E+02  0.00000000000E+00 0. -1.
         11    1    3    3    0    0  0.87233284155E+01 -0.55074413146E+00  0.32746474590E+01  0.93339752509E+01  0.51100000000E-03 0. -1.
        -11    1    3    3    0    0 -0.15330590503E+00 -0.16692343639E+01 -0.29449259294E+01  0.33885741918E+01  0.51100000000E-03 0.  1.
        -12    1    3    3    0    0  0.28511526961E+02 -0.20102038989E+02 -0.35405605208E+01  0.35064721729E+02  0.00000000000E+00 0.  1.
</event>
<event>
 7    1  0.2318319E-009  0.4778726E+02  0.7816164E-02  0.1312668E+00
        -11   -1    0    0    0    0  0.00000000000E+00  0.00000000000E+00  0.45593999997E+02  0.45594000000E+02  0.51100000000E-03 0.  1.
         11   -1    0    0    0    0 -0.00000000000E+00 -0.00000000000E+00 -0.45593999997E+02  0.45594000000E+02  0.51100000000E-03 0. -1.
    9900012    2    1    2    0    0  0.16096523903E+02  0.30370244180E+02  0.26498572092E+02  0.47787261109E+02  0.19999954702E+02 0.  0.
         12    1    1    2    0    0 -0.16096523903E+02 -0.30370244180E+02 -0.26498572092E+02  0.43400738891E+02  0.00000000000E+00 0. -1.
         11    1    3    3    0    0  0.33723438874E+01  0.87629319579E+01  0.99296311389E+01  0.13665988973E+02  0.51100000000E-03 0. -1.
        -11    1    3    3    0    0  0.76072329983E+00  0.16339304971E+02  0.11950242705E+02  0.20257341579E+02  0.51100000000E-03 0.  1.
         12    1    3    3    0    0  0.11963456716E+02  0.52680072511E+01  0.46186982484E+01  0.13863930558E+02  0.00000000000E+00 0. -1.
</event>
<event>
 7    1  0.2318319E-009  0.4778727E+02  0.7816164E-02  0.1312668E+00
        -11   -1    0    0    0    0  0.00000000000E+00  0.00000000000E+00  0.45593999997E+02  0.45594000000E+02  0.51100000000E-03 0. -1.
         11   -1    0    0    0    0 -0.00000000000E+00 -0.00000000000E+00 -0.45593999997E+02  0.45594000000E+02  0.51100000000E-03 0.  1.
    9900012    2    1    2    0    0  0.22873626842E+02  0.35134450945E+02 -0.11224570466E+02  0.47787269243E+02  0.19999991787E+02 0.  0.
         12    1    1    2    0    0 -0.22873626842E+02 -0.35134450945E+02  0.11224570466E+02  0.43400730757E+02  0.00000000000E+00 0. -1.
         11    1    3    3    0    0  0.14096453361E+02  0.26011069155E+02 -0.50266508217E+01  0.30009214163E+02  0.51100000000E-03 0. -1.
        -11    1    3    3    0    0  0.49637866342E+01  0.39438284862E+01  0.26231594458E+01  0.68610441347E+01  0.51100000000E-03 0.  1.
        -12    1    3    3    0    0  0.38133868459E+01  0.51795533037E+01 -0.88210790904E+01  0.10917010945E+02  0.00000000000E+00 0.  1.
</event>
<event>
 7    1  0.2318319E-009  0.4778728E+02  0.7816164E-02  0.1312668E+00
        -11   -1    0    0    0    0  0.00000000000E+00  0.00000000000E+00  0.45593999997E+02  0.45594000000E+02  0.51100000000E-03 0.  1.
         11   -1    0    0    0    0 -0.00000000000E+00 -0.00000000000E+00 -0.45593999997E+02  0.45594000000E+02  0.51100000000E-03 0. -1.
    9900012    2    1    2    0    0  0.23678617888E+02 -0.76134387966E+01  0.35566569731E+02  0.47787282519E+02  0.20000052319E+02 0.  0.
         12    1    1    2    0    0 -0.23678617888E+02  0.76134387966E+01 -0.35566569731E+02  0.43400717481E+02  0.00000000000E+00 0. -1.
         11    1    3    3    0    0  0.99661054469E+01 -0.31628867437E+00  0.47392634815E+01  0.11040104842E+02  0.51100000000E-03 0. -1.
        -11    1    3    3    0    0 -0.77603296013E+00  0.23889135538E+01  0.49081437404E+01  0.55135297551E+01  0.51100000000E-03 0.  1.
        -12    1    3    3    0    0  0.14488545401E+02 -0.96860636760E+01  0.25919162509E+02  0.31233647923E+02  0.00000000000E+00 0.  1.
</event>
<event>
 7    1  0.2318319E-009  0.4778725E+02  0.7816164E-02  0.1312668E+00
        -11   -1    0    0    0    0  0.00000000000E+00  0.00000000000E+00  0.45593999997E+02  0.45594000000E+02  0.51100000000E-03 0. -1.
         11   -1    0    0    0    0 -0.00000000000E+00 -0.00000000000E+00 -0.45593999997E+02  0.45594000000E+02  0.51100000000E-03 0.  1.
    9900012    2    1    2    0    0  0.36010445742E+02 -0.23931008125E+02 -0.37656328280E+01  0.47787247207E+02  0.19999891316E+02 0.  0.
         12    1    1    2    0    0 -0.36010445742E+02  0.23931008125E+02  0.37656328280E+01  0.43400752793E+02  0.00000000000E+00 0. -1.
         11    1    3    3    0    0  0.96499451235E+01  0.17085693089E+01 -0.38029753783E+01  0.10512053651E+02  0.51100000000E-03 0.  1.
        -11    1    3    3    0    0  0.47735312216E+01 -0.46968214019E+01 -0.23669063255E+01  0.71027443583E+01  0.51100000000E-03 0. -1.
        -12    1    3    3    0    0  0.21586969396E+02 -0.20942756032E+02  0.24042488758E+01  0.30172449198E+02  0.00000000000E+00 0.  1.
</event>
<event>
 7    1  0.2318319E-009  0.4778727E+02  0.7816164E-02  0.1312668E+00
        -11   -1    0    0    0    0  0.00000000000E+00  0.00000000000E+00  0.45593999997E+02  0.45594000000E+02  0.51100000000E-03 0.  1.
         11   -1    0    0    0    0 -0.00000000000E+00 -0.00000000000E+00 -0.45593999997E+02  0.45594000000E+02  0.51100000000E-03 0. -1.
    9900012    2    1    2    0    0  0.68678086316E+01  0.40314642000E+02  0.14532251023E+02  0.47787268730E+02  0.19999989445E+02 0.  0.
         12    1    1    2    0    0 -0.68678086316E+01 -0.40314642000E+02 -0.14532251023E+02  0.43400731270E+02  0.00000000000E+00 0. -1.
         11    1    3    3    0    0  0.81509052254E+01  0.11781672768E+02  0.55225911335E+01  0.15353959824E+02  0.51100000000E-03 0. -1.
        -11    1    3    3    0    0  0.55189652763E+01  0.15235467576E+02  0.52115839483E+01  0.17021723106E+02  0.51100000000E-03 0.  1.
        -12    1    3    3    0    0 -0.68020618701E+01  0.13297501656E+02  0.37980759409E+01  0.15411585799E+02  0.00000000000E+00 0.  1.
</event>
<event>
 7    1  0.2318319E-009  0.4778727E+02  0.7816164E-02  0.1312668E+00
        -11   -1    0    0    0    0  0.00000000000E+00  0.00000000000E+00  0.45593999997E+02  0.45594000000E+02  0.51100000000E-03 0.  1.
         11   -1    0    0    0    0 -0.00000000000E+00 -0.00000000000E+00 -0.45593999997E+02  0.45594000000E+02  0.51100000000E-03 0. -1.
    9900012    2    1    2    0    0  0.40094217256E+02  0.15698974502E+02 -0.54423247592E+01  0.47787274700E+02  0.20000016665E+02 0.  0.
         12    1    1    2    0    0 -0.40094217256E+02 -0.15698974502E+02  0.54423247592E+01  0.43400725300E+02  0.00000000000E+00 0. -1.
         11    1    3    3    0    0  0.85035275403E+01  0.28082568274E+01  0.66378007306E+01  0.11147048302E+02  0.51100000000E-03 0. -1.
        -11    1    3    3    0    0  0.41695019532E+01  0.39606407196E+01 -0.21607899669E+01  0.61433244249E+01  0.51100000000E-03 0.  1.
        -12    1    3    3    0    0  0.27421187763E+02  0.89300769552E+01 -0.99193355228E+01  0.30496901973E+02  0.00000000000E+00 0.  1.
</event>
<event>
 7    1  0.2318319E-009  0.4778727E+02  0.7816164E-02  0.1312668E+00
        -11   -1    0    0    0    0  0.00000000000E+00  0.00000000000E+00  0.45593999997E+02  0.45594000000E+02  0.51100000000E-03 0.  1.
         11   -1    0    0    0    0 -0.00000000000E+00 -0.00000000000E+00 -0.45593999997E+02  0.45594000000E+02  0.51100000000E-03 0. -1.
    9900012    2    1    2    0    0 -0.19103941799E+02 -0.28283733044E+02  0.26808448737E+02  0.47787273383E+02  0.20000010664E+02 0.  0.
         12    1    1    2    0    0  0.19103941799E+02  0.28283733044E+02 -0.26808448737E+02  0.43400726617E+02  0.00000000000E+00 0. -1.
         11    1    3    3    0    0 -0.12771029336E+01 -0.16181354421E+02  0.95157916969E+01  0.18815353164E+02  0.51100000000E-03 0. -1.
        -11    1    3    3    0    0 -0.25435462625E+01 -0.17164537523E+01  0.74026280339E+01  0.80134102068E+01  0.51100000000E-03 0.  1.
        -12    1    3    3    0    0 -0.15283292603E+02 -0.10385924870E+02  0.98900290064E+01  0.20958510013E+02  0.00000000000E+00 0.  1.
</event>
<event>
 7    1  0.2318319E-009  0.4778727E+02  0.7816164E-02  0.1312668E+00
        -11   -1    0    0    0    0  0.00000000000E+00  0.00000000000E+00  0.45593999997E+02  0.45594000000E+02  0.51100000000E-03 0.  1.
         11   -1    0    0    0    0 -0.00000000000E+00 -0.00000000000E+00 -0.45593999997E+02  0.45594000000E+02  0.51100000000E-03 0. -1.
    9900012    2    1    2    0    0 -0.95667260333E+01  0.12014915399E+02  0.40592399313E+02  0.47787270501E+02  0.19999997521E+02 0.  0.
         12    1    1    2    0    0  0.95667260333E+01 -0.12014915399E+02 -0.40592399313E+02  0.43400729499E+02  0.00000000000E+00 0. -1.
         11    1    3    3    0    0 -0.71335593351E+01  0.34421481157E+01  0.15476866761E+02  0.17385898235E+02  0.51100000000E-03 0. -1.
        -11    1    3    3    0    0 -0.30994668797E+01 -0.33424249913E+00 -0.60367443815E+00  0.31753481817E+01  0.51100000000E-03 0.  1.
        -12    1    3    3    0    0  0.66630018156E+00  0.89070097827E+01  0.25719206991E+02  0.27226024084E+02  0.00000000000E+00 0.  1.
</event>
<event>
 7    1  0.2318319E-009  0.4778727E+02  0.7816164E-02  0.1312668E+00
        -11   -1    0    0    0    0  0.00000000000E+00  0.00000000000E+00  0.45593999997E+02  0.45594000000E+02  0.51100000000E-03 0. -1.
         11   -1    0    0    0    0 -0.00000000000E+00 -0.00000000000E+00 -0.45593999997E+02  0.45594000000E+02  0.51100000000E-03 0.  1.
    9900012    2    1    2    0    0 -0.37736276205E+02 -0.21412500781E+02  0.10495508029E+01  0.47787270877E+02  0.19999999238E+02 0.  0.
         12    1    1    2    0    0  0.37736276205E+02  0.21412500781E+02 -0.10495508029E+01  0.43400729123E+02  0.00000000000E+00 0. -1.
         11    1    3    3    0    0 -0.19021157776E+01  0.77539881160E+00  0.13032868209E+01  0.24326620289E+01  0.51100000000E-03 0. -1.
        -11    1    3    3    0    0 -0.34102726582E+02 -0.13846783634E+02 -0.83232701099E+00  0.36816058261E+02  0.51100000000E-03 0.  1.
         12    1    3    3    0    0 -0.17314338448E+01 -0.83411159587E+01  0.57859099305E+00  0.85385505874E+01  0.00000000000E+00 0. -1.
</event>
<event>
 7    1  0.2318319E-009  0.4778727E+02  0.7816164E-02  0.1312668E+00
        -11   -1    0    0    0    0  0.00000000000E+00  0.00000000000E+00  0.45593999997E+02  0.45594000000E+02  0.51100000000E-03 0.  1.
         11   -1    0    0    0    0 -0.00000000000E+00 -0.00000000000E+00 -0.45593999997E+02  0.45594000000E+02  0.51100000000E-03 0. -1.
    9900012    2    1    2    0    0 -0.18898482137E+02  0.32140661246E+02  0.22213711347E+02  0.47787266087E+02  0.19999977395E+02 0.  0.
         12    1    1    2    0    0  0.18898482137E+02 -0.32140661246E+02 -0.22213711347E+02  0.43400733913E+02  0.00000000000E+00 0. -1.
         11    1    3    3    0    0 -0.23715922216E+01 -0.34807103694E+00  0.20215864506E+01  0.31356682143E+01  0.51100000000E-03 0. -1.
        -11    1    3    3    0    0 -0.10035921759E+00 -0.11325506611E+01 -0.11137670853E+01  0.15916093597E+01  0.51100000000E-03 0.  1.
        -12    1    3    3    0    0 -0.16426530698E+02  0.33621282944E+02  0.21305891981E+02  0.43059988513E+02  0.00000000000E+00 0.  1.
</event>
<event>
 7    1  0.2318319E-009  0.4778727E+02  0.7816164E-02  0.1312668E+00
        -11   -1    0    0    0    0  0.00000000000E+00  0.00000000000E+00  0.45593999997E+02  0.45594000000E+02  0.51100000000E-03 0. -1.
         11   -1    0    0    0    0 -0.00000000000E+00 -0.00000000000E+00 -0.45593999997E+02  0.45594000000E+02  0.51100000000E-03 0.  1.
    9900012    2    1    2    0    0 -0.12214415743E+02  0.32501221141E+02 -0.26040394774E+02  0.47787268582E+02  0.19999988774E+02 0.  0.
         12    1    1    2    0    0  0.12214415743E+02 -0.32501221141E+02  0.26040394774E+02  0.43400731418E+02  0.00000000000E+00 0. -1.
         11    1    3    3    0    0 -0.27146876488E+01  0.19199633993E+01 -0.10426681777E+02  0.10944015791E+02  0.51100000000E-03 0. -1.
        -11    1    3    3    0    0  0.13320045470E+01  0.61197564293E+01 -0.51821762689E+01  0.81289978478E+01  0.51100000000E-03 0.  1.
        -12    1    3    3    0    0 -0.10831732641E+02  0.24461501312E+02 -0.10431536728E+02  0.28714254944E+02  0.00000000000E+00 0.  1.
</event>
<event>
 7    1  0.2318319E-009  0.4778729E+02  0.7816164E-02  0.1312668E+00
        -11   -1    0    0    0    0  0.00000000000E+00  0.00000000000E+00  0.45593999997E+02  0.45594000000E+02  0.51100000000E-03 0.  1.
         11   -1    0    0    0    0 -0.00000000000E+00 -0.00000000000E+00 -0.45593999997E+02  0.45594000000E+02  0.51100000000E-03 0. -1.
    9900012    2    1    2    0    0 -0.24631791157E+02 -0.22891802427E+02  0.27438326133E+02  0.47787291539E+02  0.20000093444E+02 0.  0.
         12    1    1    2    0    0  0.24631791157E+02  0.22891802427E+02 -0.27438326133E+02  0.43400708461E+02  0.00000000000E+00 0. -1.
         11    1    3    3    0    0 -0.21141792071E+02 -0.14565329367E+02  0.13133811683E+02  0.28837843212E+02  0.51100000000E-03 0. -1.
        -11    1    3    3    0    0 -0.23544974812E+01  0.19742173778E+00  0.12485499411E+00  0.23660563734E+01  0.51100000000E-03 0.  1.
        -12    1    3    3    0    0 -0.11355016045E+01 -0.85238947976E+01  0.14179659456E+02  0.16583391954E+02  0.00000000000E+00 0.  1.
</event>
<event>
 7    1  0.2318319E-009  0.4778727E+02  0.7816164E-02  0.1312668E+00
        -11   -1    0    0    0    0  0.00000000000E+00  0.00000000000E+00  0.45593999997E+02  0.45594000000E+02  0.51100000000E-03 0. -1.
         11   -1    0    0    0    0 -0.00000000000E+00 -0.00000000000E+00 -0.45593999997E+02  0.45594000000E+02  0.51100000000E-03 0.  1.
    9900012    2    1    2    0    0  0.18313195254E+01  0.10310120996E+02 -0.42118531722E+02  0.47787273732E+02  0.20000012253E+02 0.  0.
         12    1    1    2    0    0 -0.18313195254E+01 -0.10310120996E+02  0.42118531722E+02  0.43400726268E+02  0.00000000000E+00 0. -1.
         11    1    3    3    0    0 -0.46312009723E+01  0.17426359760E+01 -0.25823817773E+01  0.55815319130E+01  0.51100000000E-03 0. -1.
        -11    1    3    3    0    0 -0.27051504789E+01  0.26414580066E+01 -0.12128589155E+02  0.12704243963E+02  0.51100000000E-03 0.  1.
         12    1    3    3    0    0  0.91676709766E+01  0.59260270133E+01 -0.27407560790E+02  0.29501497856E+02  0.00000000000E+00 0. -1.
</event>
<event>
 7    1  0.2333061E-009  0.4778727E+02  0.7816164E-02  0.1312668E+00
        -11   -1    0    0    0    0  0.00000000000E+00  0.00000000000E+00  0.45593999997E+02  0.45594000000E+02  0.51100000000E-03 0. -1.
         11   -1    0    0    0    0 -0.00000000000E+00 -0.00000000000E+00 -0.45593999997E+02  0.45594000000E+02  0.51100000000E-03 0.  1.
    9900012    2    1    2    0    0 -0.23212702679E+02  0.25299964307E+02 -0.26546288122E+02  0.47787272211E+02  0.20000005318E+02 0.  0.
         12    1    1    2    0    0  0.23212702679E+02 -0.25299964307E+02  0.26546288122E+02  0.43400727789E+02  0.00000000000E+00 0. -1.
         11    1    3    3    0    0 -0.80464995197E+01  0.11600048543E+02 -0.71035931142E+01  0.15804060115E+02  0.51100000000E-03 0. -1.
        -11    1    3    3    0    0 -0.11973454329E+02  0.15549188537E+02 -0.20257431040E+02  0.28204687293E+02  0.51100000000E-03 0.  1.
         12    1    3    3    0    0 -0.31927488304E+01 -0.18492727730E+01  0.81473603220E+00  0.37785248027E+01  0.00000000000E+00 0. -1.
</event>
<event>
 7    1  0.2318319E-009  0.4778727E+02  0.7816164E-02  0.1312668E+00
        -11   -1    0    0    0    0  0.00000000000E+00  0.00000000000E+00  0.45593999997E+02  0.45594000000E+02  0.51100000000E-03 0. -1.
         11   -1    0    0    0    0 -0.00000000000E+00 -0.00000000000E+00 -0.45593999997E+02  0.45594000000E+02  0.51100000000E-03 0.  1.
    9900012    2    1    2    0    0 -0.21903551365E+02  0.20605376101E+01 -0.37411386571E+02  0.47787271633E+02  0.20000002682E+02 0.  0.
         12    1    1    2    0    0  0.21903551365E+02 -0.20605376101E+01  0.37411386571E+02  0.43400728367E+02  0.00000000000E+00 0. -1.
         11    1    3    3    0    0  0.25698183234E+00 -0.28156165334E+01 -0.40889746000E+01  0.49712623815E+01  0.51100000000E-03 0. -1.
        -11    1    3    3    0    0 -0.18119197354E+02 -0.26659240076E+01 -0.23361870689E+02  0.29684835622E+02  0.51100000000E-03 0.  1.
         12    1    3    3    0    0 -0.40413358425E+01  0.75420781510E+01 -0.99605412828E+01  0.13131173629E+02  0.00000000000E+00 0. -1.
</event>
<event>
 7    1  0.2318319E-009  0.4778727E+02  0.7816164E-02  0.1312668E+00
        -11   -1    0    0    0    0  0.00000000000E+00  0.00000000000E+00  0.45593999997E+02  0.45594000000E+02  0.51100000000E-03 0. -1.
         11   -1    0    0    0    0 -0.00000000000E+00 -0.00000000000E+00 -0.45593999997E+02  0.45594000000E+02  0.51100000000E-03 0.  1.
    9900012    2    1    2    0    0  0.26986387456E+02  0.12691269245E+02 -0.31532362947E+02  0.47787270329E+02  0.19999996737E+02 0.  0.
         12    1    1    2    0    0 -0.26986387456E+02 -0.12691269245E+02  0.31532362947E+02  0.43400729671E+02  0.00000000000E+00 0. -1.
         11    1    3    3    0    0  0.13361504314E+02  0.17360984654E+01 -0.19645373361E+02  0.23821933804E+02  0.51100000000E-03 0. -1.
        -11    1    3    3    0    0  0.75242700712E+01 -0.79855121433E+00 -0.42533667735E+01  0.86800606748E+01  0.51100000000E-03 0.  1.
        -12    1    3    3    0    0  0.61006130710E+01  0.11753721994E+02 -0.76336228124E+01  0.15285275850E+02  0.00000000000E+00 0.  1.
</event>
<event>
 7    1  0.2318319E-009  0.4778727E+02  0.7816164E-02  0.1312668E+00
        -11   -1    0    0    0    0  0.00000000000E+00  0.00000000000E+00  0.45593999997E+02  0.45594000000E+02  0.51100000000E-03 0.  1.
         11   -1    0    0    0    0 -0.00000000000E+00 -0.00000000000E+00 -0.45593999997E+02  0.45594000000E+02  0.51100000000E-03 0. -1.
    9900012    2    1    2    0    0  0.19572910243E+02  0.52209318686E+01  0.38383155403E+02  0.47787267706E+02  0.19999984779E+02 0.  0.
         12    1    1    2    0    0 -0.19572910243E+02 -0.52209318686E+01 -0.38383155403E+02  0.43400732294E+02  0.00000000000E+00 0. -1.
         11    1    3    3    0    0  0.27832883899E+01 -0.84592356791E+00 -0.43816845971E-02  0.29090033352E+01  0.51100000000E-03 0.  1.
        -11    1    3    3    0    0  0.23348810258E+01 -0.46327086705E+01  0.10176979081E+02  0.11422983958E+02  0.51100000000E-03 0. -1.
        -12    1    3    3    0    0  0.14454740828E+02  0.10699564107E+02  0.28210558007E+02  0.33455280413E+02  0.00000000000E+00 0.  1.
</event>
<event>
 7    1  0.2318319E-009  0.4778728E+02  0.7816164E-02  0.1312668E+00
        -11   -1    0    0    0    0  0.00000000000E+00  0.00000000000E+00  0.45593999997E+02  0.45594000000E+02  0.51100000000E-03 0.  1.
         11   -1    0    0    0    0 -0.00000000000E+00 -0.00000000000E+00 -0.45593999997E+02  0.45594000000E+02  0.51100000000E-03 0. -1.
    9900012    2    1    2    0    0 -0.12402179088E+02  0.19288869637E+02  0.36847630080E+02  0.47787281336E+02  0.20000046925E+02 0.  0.
         12    1    1    2    0    0  0.12402179088E+02 -0.19288869637E+02 -0.36847630080E+02  0.43400718664E+02  0.00000000000E+00 0. -1.
         11    1    3    3    0    0  0.18347840047E+01  0.77284584372E+00  0.25936314691E+01  0.32696555630E+01  0.51100000000E-03 0. -1.
        -11    1    3    3    0    0  0.35583478440E+01  0.16939767747E+01  0.44643919340E+01  0.59550140465E+01  0.51100000000E-03 0.  1.
        -12    1    3    3    0    0 -0.17795310937E+02  0.16822047019E+02  0.29789606677E+02  0.38562611727E+02  0.00000000000E+00 0.  1.
</event>
<event>
 7    1  0.2318319E-009  0.4778727E+02  0.7816164E-02  0.1312668E+00
        -11   -1    0    0    0    0  0.00000000000E+00  0.00000000000E+00  0.45593999997E+02  0.45594000000E+02  0.51100000000E-03 0. -1.
         11   -1    0    0    0    0 -0.00000000000E+00 -0.00000000000E+00 -0.45593999997E+02  0.45594000000E+02  0.51100000000E-03 0.  1.
    9900012    2    1    2    0    0 -0.26637233173E+02  0.21716738818E+02 -0.26504045477E+02  0.47787270021E+02  0.19999995335E+02 0.  0.
         12    1    1    2    0    0  0.26637233173E+02 -0.21716738818E+02  0.26504045477E+02  0.43400729979E+02  0.00000000000E+00 0. -1.
         11    1    3    3    0    0 -0.36904453453E+00  0.17319109913E+01 -0.38583260807E+01  0.42452785487E+01  0.51100000000E-03 0. -1.
        -11    1    3    3    0    0 -0.21664937592E+02  0.17924441810E+02 -0.25315539275E+02  0.37835587271E+02  0.51100000000E-03 0.  1.
         12    1    3    3    0    0 -0.46032510467E+01  0.20603860167E+01  0.26698198782E+01  0.57064042022E+01  0.00000000000E+00 0. -1.
</event>
<event>
 7    1  0.2318319E-009  0.4778727E+02  0.7816164E-02  0.1312668E+00
        -11   -1    0    0    0    0  0.00000000000E+00  0.00000000000E+00  0.45593999997E+02  0.45594000000E+02  0.51100000000E-03 0. -1.
         11   -1    0    0    0    0 -0.00000000000E+00 -0.00000000000E+00 -0.45593999997E+02  0.45594000000E+02  0.51100000000E-03 0.  1.
    9900012    2    1    2    0    0  0.14777943395E+02 -0.16296665375E+02 -0.37411953963E+02  0.47787271750E+02  0.20000003215E+02 0.  0.
         12    1    1    2    0    0 -0.14777943395E+02  0.16296665375E+02  0.37411953963E+02  0.43400728250E+02  0.00000000000E+00 0. -1.
         11    1    3    3    0    0  0.63381298070E+01 -0.66431018341E+00 -0.39615659803E+01  0.75038125475E+01  0.51100000000E-03 0. -1.
        -11    1    3    3    0    0 -0.27039432221E+01 -0.17004220100E+01 -0.11710782903E+01  0.34020829772E+01  0.51100000000E-03 0.  1.
        -12    1    3    3    0    0  0.11143756810E+02 -0.13931933181E+02 -0.32279309693E+02  0.36881376225E+02  0.00000000000E+00 0.  1.
</event>
<event>
 7    1  0.2318319E-009  0.4778727E+02  0.7816164E-02  0.1312668E+00
        -11   -1    0    0    0    0  0.00000000000E+00  0.00000000000E+00  0.45593999997E+02  0.45594000000E+02  0.51100000000E-03 0. -1.
         11   -1    0    0    0    0 -0.00000000000E+00 -0.00000000000E+00 -0.45593999997E+02  0.45594000000E+02  0.51100000000E-03 0.  1.
    9900012    2    1    2    0    0  0.29302611991E+02  0.31097780572E+02 -0.76097291183E+01  0.47787274163E+02  0.20000014217E+02 0.  0.
         12    1    1    2    0    0 -0.29302611991E+02 -0.31097780572E+02  0.76097291183E+01  0.43400725837E+02  0.00000000000E+00 0. -1.
         11    1    3    3    0    0  0.46427081910E+00  0.48329006211E+01 -0.15325361508E+01  0.50912810884E+01  0.51100000000E-03 0. -1.
        -11    1    3    3    0    0  0.56513880648E+01 -0.17006253491E+01 -0.14274572452E+01  0.60718982274E+01  0.51100000000E-03 0.  1.
        -12    1    3    3    0    0  0.23186953107E+02  0.27965505300E+02 -0.46497357224E+01  0.36624094847E+02  0.00000000000E+00 0.  1.
</event>
<event>
 7    1  0.2318319E-009  0.4778727E+02  0.7816164E-02  0.1312668E+00
        -11   -1    0    0    0    0  0.00000000000E+00  0.00000000000E+00  0.45593999997E+02  0.45594000000E+02  0.51100000000E-03 0. -1.
         11   -1    0    0    0    0 -0.00000000000E+00 -0.00000000000E+00 -0.45593999997E+02  0.45594000000E+02  0.51100000000E-03 0.  1.
    9900012    2    1    2    0    0  0.24989314423E+02  0.75295757224E+01 -0.34676549511E+02  0.47787269224E+02  0.19999991700E+02 0.  0.
         12    1    1    2    0    0 -0.24989314423E+02 -0.75295757224E+01  0.34676549511E+02  0.43400730776E+02  0.00000000000E+00 0. -1.
         11    1    3    3    0    0  0.21441205918E+01 -0.10584048230E+01 -0.12551673696E-01  0.23911569766E+01  0.51100000000E-03 0. -1.
        -11    1    3    3    0    0  0.15261856189E+02 -0.24135992754E+01 -0.14387280056E+02  0.21112639425E+02  0.51100000000E-03 0.  1.
         12    1    3    3    0    0  0.75833376420E+01  0.11001579821E+02 -0.20276717782E+02  0.24283472823E+02  0.00000000000E+00 0. -1.
</event>
<event>
 7    1  0.2318319E-009  0.4778727E+02  0.7816164E-02  0.1312668E+00
        -11   -1    0    0    0    0  0.00000000000E+00  0.00000000000E+00  0.45593999997E+02  0.45594000000E+02  0.51100000000E-03 0.  1.
         11   -1    0    0    0    0 -0.00000000000E+00 -0.00000000000E+00 -0.45593999997E+02  0.45594000000E+02  0.51100000000E-03 0. -1.
    9900012    2    1    2    0    0  0.42980426041E+02 -0.23241135379E+01 -0.55591878425E+01  0.47787273095E+02  0.20000009350E+02 0.  0.
         12    1    1    2    0    0 -0.42980426041E+02  0.23241135379E+01  0.55591878425E+01  0.43400726905E+02  0.00000000000E+00 0. -1.
         11    1    3    3    0    0  0.89191754917E+01 -0.47086263097E+01 -0.41451345608E+01  0.10904356651E+02  0.51100000000E-03 0. -1.
        -11    1    3    3    0    0  0.13411776470E+02 -0.43011165540E+01 -0.48740070688E+01  0.14904069809E+02  0.51100000000E-03 0.  1.
        -12    1    3    3    0    0  0.20649474079E+02  0.66856293259E+01  0.34599537870E+01  0.21978846636E+02  0.00000000000E+00 0.  1.
</event>
<event>
 7    1  0.2318319E-009  0.4778727E+02  0.7816164E-02  0.1312668E+00
        -11   -1    0    0    0    0  0.00000000000E+00  0.00000000000E+00  0.45593999997E+02  0.45594000000E+02  0.51100000000E-03 0. -1.
         11   -1    0    0    0    0 -0.00000000000E+00 -0.00000000000E+00 -0.45593999997E+02  0.45594000000E+02  0.51100000000E-03 0.  1.
    9900012    2    1    2    0    0 -0.51824406635E+01  0.26523164283E+02 -0.33960085016E+02  0.47787270639E+02  0.19999998151E+02 0.  0.
         12    1    1    2    0    0  0.51824406635E+01 -0.26523164283E+02  0.33960085016E+02  0.43400729361E+02  0.00000000000E+00 0. -1.
         11    1    3    3    0    0  0.19173330564E+01  0.97011543181E+01 -0.16142467989E+02  0.18930605754E+02  0.51100000000E-03 0. -1.
        -11    1    3    3    0    0  0.38184824155E+01  0.37897200613E+01 -0.23453911396E+01  0.58688709271E+01  0.51100000000E-03 0.  1.
        -12    1    3    3    0    0 -0.10918256135E+02  0.13032289904E+02 -0.15472225887E+02  0.22987793958E+02  0.00000000000E+00 0.  1.
</event>
<event>
 7    1  0.2318319E-009  0.4778727E+02  0.7816164E-02  0.1312668E+00
        -11   -1    0    0    0    0  0.00000000000E+00  0.00000000000E+00  0.45593999997E+02  0.45594000000E+02  0.51100000000E-03 0.  1.
         11   -1    0    0    0    0 -0.00000000000E+00 -0.00000000000E+00 -0.45593999997E+02  0.45594000000E+02  0.51100000000E-03 0. -1.
    9900012    2    1    2    0    0  0.22385166974E+00 -0.37209430041E+02 -0.22339009839E+02  0.47787272423E+02  0.20000006287E+02 0.  0.
         12    1    1    2    0    0 -0.22385166974E+00  0.37209430041E+02  0.22339009839E+02  0.43400727577E+02  0.00000000000E+00 0. -1.
         11    1    3    3    0    0  0.48934126219E+01 -0.59574174430E+01 -0.28919822397E+01  0.82340677197E+01  0.51100000000E-03 0.  1.
        -11    1    3    3    0    0  0.36146383387E+01 -0.25440430338E+01 -0.13543820892E+01  0.46229986353E+01  0.51100000000E-03 0. -1.
        -12    1    3    3    0    0 -0.82841992908E+01 -0.28707969565E+02 -0.18092645510E+02  0.34930206068E+02  0.00000000000E+00 0.  1.
</event>
<event>
 7    1  0.2318319E-009  0.4778728E+02  0.7816164E-02  0.1312668E+00
        -11   -1    0    0    0    0  0.00000000000E+00  0.00000000000E+00  0.45593999997E+02  0.45594000000E+02  0.51100000000E-03 0.  1.
         11   -1    0    0    0    0 -0.00000000000E+00 -0.00000000000E+00 -0.45593999997E+02  0.45594000000E+02  0.51100000000E-03 0. -1.
    9900012    2    1    2    0    0  0.39575881884E+02 -0.48366555639E+01 -0.17145822709E+02  0.47787275348E+02  0.20000019620E+02 0.  0.
         12    1    1    2    0    0 -0.39575881884E+02  0.48366555639E+01  0.17145822709E+02  0.43400724652E+02  0.00000000000E+00 0. -1.
         11    1    3    3    0    0  0.63854648967E+01  0.25927146567E+01  0.22243838468E+01  0.72418378190E+01  0.51100000000E-03 0. -1.
        -11    1    3    3    0    0  0.15151342042E+01 -0.26052880445E+01 -0.40018807265E+01  0.50098110804E+01  0.51100000000E-03 0.  1.
        -12    1    3    3    0    0  0.31675282783E+02 -0.48240821760E+01 -0.15368325830E+02  0.35535626448E+02  0.00000000000E+00 0.  1.
</event>
<event>
 7    1  0.2318319E-009  0.4778727E+02  0.7816164E-02  0.1312668E+00
        -11   -1    0    0    0    0  0.00000000000E+00  0.00000000000E+00  0.45593999997E+02  0.45594000000E+02  0.51100000000E-03 0.  1.
         11   -1    0    0    0    0 -0.00000000000E+00 -0.00000000000E+00 -0.45593999997E+02  0.45594000000E+02  0.51100000000E-03 0. -1.
    9900012    2    1    2    0    0  0.65528478228E+01 -0.30279177152E+02  0.30394981703E+02  0.47787270786E+02  0.19999998820E+02 0.  0.
         12    1    1    2    0    0 -0.65528478228E+01  0.30279177152E+02 -0.30394981703E+02  0.43400729214E+02  0.00000000000E+00 0. -1.
         11    1    3    3    0    0 -0.11929745677E+01  0.14715582902E+01 -0.83968836938E+00  0.20721363226E+01  0.51100000000E-03 0. -1.
        -11    1    3    3    0    0  0.14010521134E+01 -0.79355529695E+00  0.64641343921E+00  0.17350872108E+01  0.51100000000E-03 0.  1.
        -12    1    3    3    0    0  0.63447702771E+01 -0.30957180146E+02  0.30588256633E+02  0.43980047252E+02  0.00000000000E+00 0.  1.
</event>
<event>
 7    1  0.2318319E-009  0.4778727E+02  0.7816164E-02  0.1312668E+00
        -11   -1    0    0    0    0  0.00000000000E+00  0.00000000000E+00  0.45593999997E+02  0.45594000000E+02  0.51100000000E-03 0. -1.
         11   -1    0    0    0    0 -0.00000000000E+00 -0.00000000000E+00 -0.45593999997E+02  0.45594000000E+02  0.51100000000E-03 0.  1.
    9900012    2    1    2    0    0  0.22204544323E+02  0.13729337092E+02 -0.34671125343E+02  0.47787269383E+02  0.19999992423E+02 0.  0.
         12    1    1    2    0    0 -0.22204544323E+02 -0.13729337092E+02  0.34671125343E+02  0.43400730617E+02  0.00000000000E+00 0. -1.
         11    1    3    3    0    0  0.40511311880E+01  0.35658433126E+01 -0.70441633115E+01  0.88739584996E+01  0.51100000000E-03 0. -1.
        -11    1    3    3    0    0  0.97346531272E+01 -0.19816291076E+00 -0.22669392721E+02  0.24671929528E+02  0.51100000000E-03 0.  1.
         12    1    3    3    0    0  0.84187600075E+01  0.10361656690E+02 -0.49575693107E+01  0.14241381355E+02  0.00000000000E+00 0. -1.
</event>
<event>
 7    1  0.2318319E-009  0.4778732E+02  0.7816164E-02  0.1312668E+00
        -11   -1    0    0    0    0  0.00000000000E+00  0.00000000000E+00  0.45593999997E+02  0.45594000000E+02  0.51100000000E-03 0.  1.
         11   -1    0    0    0    0 -0.00000000000E+00 -0.00000000000E+00 -0.45593999997E+02  0.45594000000E+02  0.51100000000E-03 0. -1.
    9900012    2    1    2    0    0  0.64942569953E+01  0.42837381127E+02 -0.25303732645E+01  0.47787315851E+02  0.20000204289E+02 0.  0.
         12    1    1    2    0    0 -0.64942569953E+01 -0.42837381127E+02  0.25303732645E+01  0.43400684149E+02  0.00000000000E+00 0. -1.
         11    1    3    3    0    0  0.13409016460E+01  0.11661104898E+02  0.81582649455E+01  0.14294637870E+02  0.51100000000E-03 0.  1.
        -11    1    3    3    0    0  0.13369484876E+01  0.62157944746E+01 -0.94684404520E+00  0.64280670590E+01  0.51100000000E-03 0. -1.
        -12    1    3    3    0    0  0.38164068617E+01  0.24960481755E+02 -0.97417941648E+01  0.27064610921E+02  0.00000000000E+00 0.  1.
</event>
<event>
 7    1  0.2318319E-009  0.4778728E+02  0.7816164E-02  0.1312668E+00
        -11   -1    0    0    0    0  0.00000000000E+00  0.00000000000E+00  0.45593999997E+02  0.45594000000E+02  0.51100000000E-03 0. -1.
         11   -1    0    0    0    0 -0.00000000000E+00 -0.00000000000E+00 -0.45593999997E+02  0.45594000000E+02  0.51100000000E-03 0.  1.
    9900012    2    1    2    0    0  0.16612111019E+02 -0.35356549464E+01 -0.39939451514E+02  0.47787275632E+02  0.20000020916E+02 0.  0.
         12    1    1    2    0    0 -0.16612111019E+02  0.35356549464E+01  0.39939451514E+02  0.43400724368E+02  0.00000000000E+00 0. -1.
         11    1    3    3    0    0  0.28784799506E+01 -0.32300487515E+01 -0.64804087656E+01  0.77919548121E+01  0.51100000000E-03 0. -1.
        -11    1    3    3    0    0  0.16167412585E+01  0.34935904931E+01 -0.23618515674E+02  0.23930175714E+02  0.51100000000E-03 0.  1.
        -12    1    3    3    0    0  0.12116889810E+02 -0.37991966879E+01 -0.98405270751E+01  0.16065145105E+02  0.00000000000E+00 0.  1.
</event>
<event>
 7    1  0.2318319E-009  0.4778727E+02  0.7816164E-02  0.1312668E+00
        -11   -1    0    0    0    0  0.00000000000E+00  0.00000000000E+00  0.45593999997E+02  0.45594000000E+02  0.51100000000E-03 0. -1.
         11   -1    0    0    0    0 -0.00000000000E+00 -0.00000000000E+00 -0.45593999997E+02  0.45594000000E+02  0.51100000000E-03 0.  1.
    9900012    2    1    2    0    0 -0.81156457612E+01 -0.37741815660E+02 -0.19832177963E+02  0.47787266848E+02  0.19999980866E+02 0.  0.
         12    1    1    2    0    0  0.81156457612E+01  0.37741815660E+02  0.19832177963E+02  0.43400733152E+02  0.00000000000E+00 0. -1.
         11    1    3    3    0    0  0.53494507705E+01 -0.67434053647E+01 -0.58180907262E+01  0.10389433065E+02  0.51100000000E-03 0. -1.
        -11    1    3    3    0    0 -0.10865778584E+01 -0.10601570524E+02 -0.27098795498E+01  0.10996244652E+02  0.51100000000E-03 0.  1.
         12    1    3    3    0    0 -0.12378518673E+02 -0.20396839771E+02 -0.11304207687E+02  0.26401589131E+02  0.00000000000E+00 0. -1.
</event>
<event>
 7    1  0.2318319E-009  0.4778727E+02  0.7816164E-02  0.1312668E+00
        -11   -1    0    0    0    0  0.00000000000E+00  0.00000000000E+00  0.45593999997E+02  0.45594000000E+02  0.51100000000E-03 0. -1.
         11   -1    0    0    0    0 -0.00000000000E+00 -0.00000000000E+00 -0.45593999997E+02  0.45594000000E+02  0.51100000000E-03 0.  1.
    9900012    2    1    2    0    0  0.36820724296E+02  0.66164447629E+01 -0.22001819584E+02  0.47787272541E+02  0.20000006822E+02 0.  0.
         12    1    1    2    0    0 -0.36820724296E+02 -0.66164447629E+01  0.22001819584E+02  0.43400727459E+02  0.00000000000E+00 0. -1.
         11    1    3    3    0    0  0.60452587293E+01 -0.29282852783E+01  0.53596012249E+00  0.67384910246E+01  0.51100000000E-03 0. -1.
        -11    1    3    3    0    0  0.29945904055E+01 -0.17115077404E+00 -0.73321642988E+01  0.79219630048E+01  0.51100000000E-03 0.  1.
        -12    1    3    3    0    0  0.27780875161E+02  0.97158808152E+01 -0.15205615407E+02  0.33126818511E+02  0.00000000000E+00 0.  1.
</event>
<event>
 7    1  0.2318319E-009  0.4778727E+02  0.7816164E-02  0.1312668E+00
        -11   -1    0    0    0    0  0.00000000000E+00  0.00000000000E+00  0.45593999997E+02  0.45594000000E+02  0.51100000000E-03 0. -1.
         11   -1    0    0    0    0 -0.00000000000E+00 -0.00000000000E+00 -0.45593999997E+02  0.45594000000E+02  0.51100000000E-03 0.  1.
    9900012    2    1    2    0    0 -0.17267703829E+02 -0.30311126838E+02 -0.25820245495E+02  0.47787273242E+02  0.20000010019E+02 0.  0.
         12    1    1    2    0    0  0.17267703829E+02  0.30311126838E+02  0.25820245495E+02  0.43400726758E+02  0.00000000000E+00 0. -1.
         11    1    3    3    0    0 -0.49529466887E+01 -0.87572615433E+01 -0.82795148276E+01  0.13029646069E+02  0.51100000000E-03 0. -1.
        -11    1    3    3    0    0 -0.12658430909E+02 -0.77235180643E+01 -0.39084636163E+01  0.15335080452E+02  0.51100000000E-03 0.  1.
         12    1    3    3    0    0  0.34367376900E+00 -0.13830347231E+02 -0.13632267051E+02  0.19422546721E+02  0.00000000000E+00 0. -1.
</event>
<event>
 7    1  0.2318319E-009  0.4778727E+02  0.7816164E-02  0.1312668E+00
        -11   -1    0    0    0    0  0.00000000000E+00  0.00000000000E+00  0.45593999997E+02  0.45594000000E+02  0.51100000000E-03 0. -1.
         11   -1    0    0    0    0 -0.00000000000E+00 -0.00000000000E+00 -0.45593999997E+02  0.45594000000E+02  0.51100000000E-03 0.  1.
    9900012    2    1    2    0    0  0.14610437624E+02 -0.39273904864E+02 -0.11301280085E+02  0.47787269334E+02  0.19999992201E+02 0.  0.
         12    1    1    2    0    0 -0.14610437624E+02  0.39273904864E+02  0.11301280085E+02  0.43400730666E+02  0.00000000000E+00 0. -1.
         11    1    3    3    0    0  0.22914306797E+01 -0.97525582738E+01 -0.11529189405E+02  0.15273678536E+02  0.51100000000E-03 0. -1.
        -11    1    3    3    0    0  0.29580964460E+01 -0.31874605069E+01  0.13187080288E+01  0.45441424046E+01  0.51100000000E-03 0.  1.
         12    1    3    3    0    0  0.93609104980E+01 -0.26333886083E+02 -0.10907987092E+01  0.27969448393E+02  0.00000000000E+00 0. -1.
</event>
<event>
 7    1  0.2318319E-009  0.4778726E+02  0.7816164E-02  0.1312668E+00
        -11   -1    0    0    0    0  0.00000000000E+00  0.00000000000E+00  0.45593999997E+02  0.45594000000E+02  0.51100000000E-03 0.  1.
         11   -1    0    0    0    0 -0.00000000000E+00 -0.00000000000E+00 -0.45593999997E+02  0.45594000000E+02  0.51100000000E-03 0. -1.
    9900012    2    1    2    0    0 -0.24791574200E+01  0.20971550230E+02  0.37916641083E+02  0.47787264850E+02  0.19999971757E+02 0.  0.
         12    1    1    2    0    0  0.24791574200E+01 -0.20971550230E+02 -0.37916641083E+02  0.43400735150E+02  0.00000000000E+00 0. -1.
         11    1    3    3    0    0 -0.67936376597E+01  0.22328621725E+01  0.17332173062E+02  0.18749490912E+02  0.51100000000E-03 0. -1.
        -11    1    3    3    0    0 -0.15756551277E+01  0.22862529416E+01  0.14796743771E+01  0.31462800444E+01  0.51100000000E-03 0.  1.
        -12    1    3    3    0    0  0.58901353674E+01  0.16452435116E+02  0.19104793643E+02  0.25891493894E+02  0.00000000000E+00 0.  1.
</event>
<event>
 7    1  0.2318319E-009  0.4778727E+02  0.7816164E-02  0.1312668E+00
        -11   -1    0    0    0    0  0.00000000000E+00  0.00000000000E+00  0.45593999997E+02  0.45594000000E+02  0.51100000000E-03 0.  1.
         11   -1    0    0    0    0 -0.00000000000E+00 -0.00000000000E+00 -0.45593999997E+02  0.45594000000E+02  0.51100000000E-03 0. -1.
    9900012    2    1    2    0    0 -0.40753125590E+00  0.38614633296E+02  0.19808260224E+02  0.47787272363E+02  0.20000006010E+02 0.  0.
         12    1    1    2    0    0  0.40753125590E+00 -0.38614633296E+02 -0.19808260224E+02  0.43400727637E+02  0.00000000000E+00 0. -1.
         11    1    3    3    0    0 -0.16919903970E+01  0.13185128576E+02  0.16609715158E+01  0.13396614263E+02  0.51100000000E-03 0. -1.
        -11    1    3    3    0    0 -0.21282694193E+01  0.27158647347E+01 -0.18690403174E+01  0.39241258832E+01  0.51100000000E-03 0.  1.
        -12    1    3    3    0    0  0.34127285604E+01  0.22713639985E+02  0.20016329026E+02  0.30466532216E+02  0.00000000000E+00 0.  1.
</event>
<event>
 7    1  0.2318319E-009  0.4778727E+02  0.7816164E-02  0.1312668E+00
        -11   -1    0    0    0    0  0.00000000000E+00  0.00000000000E+00  0.45593999997E+02  0.45594000000E+02  0.51100000000E-03 0. -1.
         11   -1    0    0    0    0 -0.00000000000E+00 -0.00000000000E+00 -0.45593999997E+02  0.45594000000E+02  0.51100000000E-03 0.  1.
    9900012    2    1    2    0    0 -0.30424604136E+02 -0.30140014305E+02 -0.70389187169E+01  0.47787269870E+02  0.19999994643E+02 0.  0.
         12    1    1    2    0    0  0.30424604136E+02  0.30140014305E+02  0.70389187169E+01  0.43400730130E+02  0.00000000000E+00 0. -1.
         11    1    3    3    0    0 -0.17620551978E+02 -0.13931809985E+02 -0.74455852569E+01  0.23664655534E+02  0.51100000000E-03 0. -1.
        -11    1    3    3    0    0 -0.10951118610E+02 -0.38486926543E+01  0.60378887659E+00  0.11623424419E+02  0.51100000000E-03 0.  1.
         12    1    3    3    0    0 -0.18529335481E+01 -0.12359511666E+02 -0.19712233664E+00  0.12499189916E+02  0.00000000000E+00 0. -1.
</event>
<event>
 7    1  0.2318319E-009  0.4778727E+02  0.7816164E-02  0.1312668E+00
        -11   -1    0    0    0    0  0.00000000000E+00  0.00000000000E+00  0.45593999997E+02  0.45594000000E+02  0.51100000000E-03 0.  1.
         11   -1    0    0    0    0 -0.00000000000E+00 -0.00000000000E+00 -0.45593999997E+02  0.45594000000E+02  0.51100000000E-03 0. -1.
    9900012    2    1    2    0    0 -0.18186085159E+02 -0.28494064814E+02  0.27220917264E+02  0.47787265447E+02  0.19999974479E+02 0.  0.
         12    1    1    2    0    0  0.18186085159E+02  0.28494064814E+02 -0.27220917264E+02  0.43400734553E+02  0.00000000000E+00 0. -1.
         11    1    3    3    0    0  0.16439244257E-01 -0.15848314507E+00 -0.91829000223E+00  0.93201070023E+00  0.51100000000E-03 0. -1.
        -11    1    3    3    0    0 -0.68804372822E+01 -0.24528935625E+02  0.18085220430E+02  0.31242347836E+02  0.51100000000E-03 0.  1.
        -12    1    3    3    0    0 -0.11322087121E+02 -0.38066460445E+01  0.10053986836E+02  0.15612906910E+02  0.00000000000E+00 0.  1.
</event>
<event>
 7    1  0.2318319E-009  0.4778727E+02  0.7816164E-02  0.1312668E+00
        -11   -1    0    0    0    0  0.00000000000E+00  0.00000000000E+00  0.45593999997E+02  0.45594000000E+02  0.51100000000E-03 0.  1.
         11   -1    0    0    0    0 -0.00000000000E+00 -0.00000000000E+00 -0.45593999997E+02  0.45594000000E+02  0.51100000000E-03 0. -1.
    9900012    2    1    2    0    0  0.26872446564E+02 -0.21681693674E+02  0.26294471693E+02  0.47787268825E+02  0.19999989880E+02 0.  0.
         12    1    1    2    0    0 -0.26872446564E+02  0.21681693674E+02 -0.26294471693E+02  0.43400731175E+02  0.00000000000E+00 0. -1.
         11    1    3    3    0    0  0.15142260403E+02 -0.66187976078E+01  0.55643778189E+01  0.17437282835E+02  0.51100000000E-03 0. -1.
        -11    1    3    3    0    0  0.10857234856E+02 -0.57289449225E+01  0.14918778558E+02  0.19320204776E+02  0.51100000000E-03 0.  1.
        -12    1    3    3    0    0  0.87295130479E+00 -0.93339511438E+01  0.58113153157E+01  0.11029781214E+02  0.00000000000E+00 0.  1.
</event>
<event>
 7    1  0.2318319E-009  0.4778727E+02  0.7816164E-02  0.1312668E+00
        -11   -1    0    0    0    0  0.00000000000E+00  0.00000000000E+00  0.45593999997E+02  0.45594000000E+02  0.51100000000E-03 0. -1.
         11   -1    0    0    0    0 -0.00000000000E+00 -0.00000000000E+00 -0.45593999997E+02  0.45594000000E+02  0.51100000000E-03 0.  1.
    9900012    2    1    2    0    0 -0.32277660422E+02  0.18146440436E+02 -0.22638079886E+02  0.47787270470E+02  0.19999997380E+02 0.  0.
         12    1    1    2    0    0  0.32277660422E+02 -0.18146440436E+02  0.22638079886E+02  0.43400729530E+02  0.00000000000E+00 0. -1.
         11    1    3    3    0    0 -0.15880871684E+01  0.13465221650E+01 -0.19824734042E-01  0.20821950140E+01  0.51100000000E-03 0. -1.
        -11    1    3    3    0    0 -0.26463868018E+02  0.78489613643E+01 -0.93342580831E+01  0.29138820828E+02  0.51100000000E-03 0.  1.
        -12    1    3    3    0    0 -0.42257052356E+01  0.89509569063E+01 -0.13283997069E+02  0.16566254628E+02  0.00000000000E+00 0.  1.
</event>
<event>
 7    1  0.2318319E-009  0.4778729E+02  0.7816164E-02  0.1312668E+00
        -11   -1    0    0    0    0  0.00000000000E+00  0.00000000000E+00  0.45593999997E+02  0.45594000000E+02  0.51100000000E-03 0. -1.
         11   -1    0    0    0    0 -0.00000000000E+00 -0.00000000000E+00 -0.45593999997E+02  0.45594000000E+02  0.51100000000E-03 0.  1.
    9900012    2    1    2    0    0 -0.13034969639E+02  0.27606684671E+02  0.30847725344E+02  0.47787289972E+02  0.20000086299E+02 0.  0.
         12    1    1    2    0    0  0.13034969639E+02 -0.27606684671E+02 -0.30847725344E+02  0.43400710028E+02  0.00000000000E+00 0. -1.
         11    1    3    3    0    0 -0.10456761546E+02  0.92599777952E+01  0.14212467074E+02  0.19926998555E+02  0.51100000000E-03 0. -1.
        -11    1    3    3    0    0 -0.99733160971E+00  0.15947379239E+02  0.63716572901E+01  0.17202081032E+02  0.51100000000E-03 0.  1.
         12    1    3    3    0    0 -0.15808764830E+01  0.23993276369E+01  0.10263600979E+02  0.10658210386E+02  0.00000000000E+00 0. -1.
</event>
<event>
 7    1  0.2318319E-009  0.4778727E+02  0.7816164E-02  0.1312668E+00
        -11   -1    0    0    0    0  0.00000000000E+00  0.00000000000E+00  0.45593999997E+02  0.45594000000E+02  0.51100000000E-03 0.  1.
         11   -1    0    0    0    0 -0.00000000000E+00 -0.00000000000E+00 -0.45593999997E+02  0.45594000000E+02  0.51100000000E-03 0. -1.
    9900012    2    1    2    0    0  0.36600087511E+01 -0.33385877580E+02  0.27488379096E+02  0.47787268771E+02  0.19999989635E+02 0.  0.
         12    1    1    2    0    0 -0.36600087511E+01  0.33385877580E+02 -0.27488379096E+02  0.43400731229E+02  0.00000000000E+00 0. -1.
         11    1    3    3    0    0 -0.29454145802E+00 -0.53685720530E+01 -0.79809843570E+00  0.54355571870E+01  0.51100000000E-03 0.  1.
        -11    1    3    3    0    0 -0.26923307549E+01  0.29813336698E-02  0.29612336739E+01  0.40021942625E+01  0.51100000000E-03 0. -1.
        -12    1    3    3    0    0  0.66468809640E+01 -0.28020286861E+02  0.25325243858E+02  0.38349517322E+02  0.00000000000E+00 0.  1.
</event>
<event>
 7    1  0.2318319E-009  0.4778727E+02  0.7816164E-02  0.1312668E+00
        -11   -1    0    0    0    0  0.00000000000E+00  0.00000000000E+00  0.45593999997E+02  0.45594000000E+02  0.51100000000E-03 0.  1.
         11   -1    0    0    0    0 -0.00000000000E+00 -0.00000000000E+00 -0.45593999997E+02  0.45594000000E+02  0.51100000000E-03 0. -1.
    9900012    2    1    2    0    0 -0.10190769887E+02 -0.23736440816E+02  0.34876254651E+02  0.47787267841E+02  0.19999985392E+02 0.  0.
         12    1    1    2    0    0  0.10190769887E+02  0.23736440816E+02 -0.34876254651E+02  0.43400732159E+02  0.00000000000E+00 0. -1.
         11    1    3    3    0    0 -0.88554792384E+00 -0.92053222179E+01  0.91390705182E+01  0.13001721519E+02  0.51100000000E-03 0. -1.
        -11    1    3    3    0    0  0.11817926270E+01 -0.92303891192E+01  0.19206544518E+02  0.21342166471E+02  0.51100000000E-03 0.  1.
         12    1    3    3    0    0 -0.10487014590E+02 -0.53007294785E+01  0.65306396150E+01  0.13443379850E+02  0.00000000000E+00 0. -1.
</event>
<event>
 7    1  0.2318319E-009  0.4778727E+02  0.7816164E-02  0.1312668E+00
        -11   -1    0    0    0    0  0.00000000000E+00  0.00000000000E+00  0.45593999997E+02  0.45594000000E+02  0.51100000000E-03 0.  1.
         11   -1    0    0    0    0 -0.00000000000E+00 -0.00000000000E+00 -0.45593999997E+02  0.45594000000E+02  0.51100000000E-03 0. -1.
    9900012    2    1    2    0    0  0.69882031276E+01 -0.41001798754E+02  0.12395209212E+02  0.47787266188E+02  0.19999977857E+02 0.  0.
         12    1    1    2    0    0 -0.69882031276E+01  0.41001798754E+02 -0.12395209212E+02  0.43400733812E+02  0.00000000000E+00 0. -1.
         11    1    3    3    0    0 -0.22003369418E+01 -0.22074333433E+01  0.32956001002E+01  0.45359921631E+01  0.51100000000E-03 0. -1.
        -11    1    3    3    0    0  0.50089665317E+01 -0.28304676639E+02  0.12663756764E+02  0.31410431404E+02  0.51100000000E-03 0.  1.
        -12    1    3    3    0    0  0.41795735377E+01 -0.10489688772E+02 -0.35641476516E+01  0.11840842621E+02  0.00000000000E+00 0.  1.
</event>
<event>
 7    1  0.2318319E-009  0.4778727E+02  0.7816164E-02  0.1312668E+00
        -11   -1    0    0    0    0  0.00000000000E+00  0.00000000000E+00  0.45593999997E+02  0.45594000000E+02  0.51100000000E-03 0. -1.
         11   -1    0    0    0    0 -0.00000000000E+00 -0.00000000000E+00 -0.45593999997E+02  0.45594000000E+02  0.51100000000E-03 0.  1.
    9900012    2    1    2    0    0  0.18712748873E+02  0.19023899396E+01 -0.39113136880E+02  0.47787268042E+02  0.19999986311E+02 0.  0.
         12    1    1    2    0    0 -0.18712748873E+02 -0.19023899396E+01  0.39113136880E+02  0.43400731958E+02  0.00000000000E+00 0. -1.
         11    1    3    3    0    0  0.59280142596E+01 -0.26760455126E+01 -0.26761185087E+02  0.27540217867E+02  0.51100000000E-03 0. -1.
        -11    1    3    3    0    0  0.94490986145E+01  0.22002518205E+01 -0.12870685726E+02  0.16117727011E+02  0.51100000000E-03 0.  1.
        -12    1    3    3    0    0  0.33356359985E+01  0.23781836316E+01  0.51873393199E+00  0.41293231640E+01  0.00000000000E+00 0.  1.
</event>
<event>
 7    1  0.2318319E-009  0.4778727E+02  0.7816164E-02  0.1312668E+00
        -11   -1    0    0    0    0  0.00000000000E+00  0.00000000000E+00  0.45593999997E+02  0.45594000000E+02  0.51100000000E-03 0. -1.
         11   -1    0    0    0    0 -0.00000000000E+00 -0.00000000000E+00 -0.45593999997E+02  0.45594000000E+02  0.51100000000E-03 0.  1.
    9900012    2    1    2    0    0  0.26937756843E+02 -0.12662878475E+02 -0.31585313552E+02  0.47787271122E+02  0.20000000352E+02 0.  0.
         12    1    1    2    0    0 -0.26937756843E+02  0.12662878475E+02  0.31585313552E+02  0.43400728878E+02  0.00000000000E+00 0. -1.
         11    1    3    3    0    0  0.41439562563E+01 -0.51253169350E+01 -0.42909473997E+01  0.78646981498E+01  0.51100000000E-03 0. -1.
        -11    1    3    3    0    0  0.38772429262E+01 -0.90861979083E+01 -0.68207471453E+01  0.12004773926E+02  0.51100000000E-03 0.  1.
        -12    1    3    3    0    0  0.18916557660E+02  0.15486363683E+01 -0.20473619007E+02  0.27917799046E+02  0.00000000000E+00 0.  1.
</event>
<event>
 7    1  0.2318319E-009  0.4778730E+02  0.7816164E-02  0.1312668E+00
        -11   -1    0    0    0    0  0.00000000000E+00  0.00000000000E+00  0.45593999997E+02  0.45594000000E+02  0.51100000000E-03 0.  1.
         11   -1    0    0    0    0 -0.00000000000E+00 -0.00000000000E+00 -0.45593999997E+02  0.45594000000E+02  0.51100000000E-03 0. -1.
    9900012    2    1    2    0    0  0.40456778523E+02 -0.10525685876E+02 -0.11665327118E+02  0.47787298988E+02  0.20000127404E+02 0.  0.
         12    1    1    2    0    0 -0.40456778523E+02  0.10525685876E+02  0.11665327118E+02  0.43400701012E+02  0.00000000000E+00 0. -1.
         11    1    3    3    0    0  0.36702102057E+01 -0.45911851079E+01 -0.92726209309E+00  0.59505662671E+01  0.51100000000E-03 0. -1.
        -11    1    3    3    0    0  0.29965017212E+01 -0.58960088599E+01 -0.11534913261E+01  0.67136045119E+01  0.51100000000E-03 0.  1.
        -12    1    3    3    0    0  0.33790066596E+02 -0.38491907823E-01 -0.95845736983E+01  0.35123128209E+02  0.00000000000E+00 0.  1.
</event>
<event>
 7    1  0.2318319E-009  0.4778727E+02  0.7816164E-02  0.1312668E+00
        -11   -1    0    0    0    0  0.00000000000E+00  0.00000000000E+00  0.45593999997E+02  0.45594000000E+02  0.51100000000E-03 0.  1.
         11   -1    0    0    0    0 -0.00000000000E+00 -0.00000000000E+00 -0.45593999997E+02  0.45594000000E+02  0.51100000000E-03 0. -1.
    9900012    2    1    2    0    0  0.26588387392E+02 -0.34115445462E+02  0.35801017273E+01  0.47787273145E+02  0.20000009577E+02 0.  0.
         12    1    1    2    0    0 -0.26588387392E+02  0.34115445462E+02 -0.35801017273E+01  0.43400726855E+02  0.00000000000E+00 0. -1.
         11    1    3    3    0    0  0.12450089925E+02 -0.16688019766E+02 -0.98376256653E+00  0.20843764821E+02  0.51100000000E-03 0. -1.
        -11    1    3    3    0    0  0.79524950151E+01 -0.15643577824E+02  0.83932971708E+01  0.19452792647E+02  0.51100000000E-03 0.  1.
         12    1    3    3    0    0  0.61858024513E+01 -0.17838478718E+01 -0.38294328770E+01  0.74907156771E+01  0.00000000000E+00 0. -1.
</event>
<event>
 7    1  0.2318319E-009  0.4778727E+02  0.7816164E-02  0.1312668E+00
        -11   -1    0    0    0    0  0.00000000000E+00  0.00000000000E+00  0.45593999997E+02  0.45594000000E+02  0.51100000000E-03 0.  1.
         11   -1    0    0    0    0 -0.00000000000E+00 -0.00000000000E+00 -0.45593999997E+02  0.45594000000E+02  0.51100000000E-03 0. -1.
    9900012    2    1    2    0    0 -0.28045944768E+02  0.33121677940E+02 -0.51883261563E-01  0.47787271212E+02  0.20000000765E+02 0.  0.
         12    1    1    2    0    0  0.28045944768E+02 -0.33121677940E+02  0.51883261563E-01  0.43400728788E+02  0.00000000000E+00 0. -1.
         11    1    3    3    0    0 -0.10289662030E+02  0.16167102387E+02 -0.23490977126E+01  0.19307268181E+02  0.51100000000E-03 0.  1.
        -11    1    3    3    0    0 -0.15404976429E+02  0.90021485946E+01  0.67389379620E+01  0.19072631261E+02  0.51100000000E-03 0. -1.
         12    1    3    3    0    0 -0.23513063085E+01  0.79524269580E+01 -0.44417235110E+01  0.94073717705E+01  0.00000000000E+00 0. -1.
</event>
<event>
 7    1  0.2318319E-009  0.4778727E+02  0.7816164E-02  0.1312668E+00
        -11   -1    0    0    0    0  0.00000000000E+00  0.00000000000E+00  0.45593999997E+02  0.45594000000E+02  0.51100000000E-03 0.  1.
         11   -1    0    0    0    0 -0.00000000000E+00 -0.00000000000E+00 -0.45593999997E+02  0.45594000000E+02  0.51100000000E-03 0. -1.
    9900012    2    1    2    0    0  0.41162870359E+02 -0.55567612377E+01  0.12584263313E+02  0.47787272186E+02  0.20000005206E+02 0.  0.
         12    1    1    2    0    0 -0.41162870359E+02  0.55567612377E+01 -0.12584263313E+02  0.43400727814E+02  0.00000000000E+00 0. -1.
         11    1    3    3    0    0  0.18750885311E+01 -0.48926219088E+01  0.35152680204E+00  0.52514071919E+01  0.51100000000E-03 0. -1.
        -11    1    3    3    0    0  0.14518365450E+02 -0.42098666457E+01  0.81804203747E+01  0.17187937348E+02  0.51100000000E-03 0.  1.
        -12    1    3    3    0    0  0.24769416378E+02  0.35457273168E+01  0.40523161360E+01  0.25347927646E+02  0.00000000000E+00 0.  1.
</event>
<event>
 7    1  0.2318319E-009  0.4778727E+02  0.7816164E-02  0.1312668E+00
        -11   -1    0    0    0    0  0.00000000000E+00  0.00000000000E+00  0.45593999997E+02  0.45594000000E+02  0.51100000000E-03 0.  1.
         11   -1    0    0    0    0 -0.00000000000E+00 -0.00000000000E+00 -0.45593999997E+02  0.45594000000E+02  0.51100000000E-03 0. -1.
    9900012    2    1    2    0    0 -0.28954756033E+02  0.19115862313E+02  0.26073537162E+02  0.47787269257E+02  0.19999991850E+02 0.  0.
         12    1    1    2    0    0  0.28954756033E+02 -0.19115862313E+02 -0.26073537162E+02  0.43400730743E+02  0.00000000000E+00 0. -1.
         11    1    3    3    0    0 -0.23993248175E+01  0.95924717935E+00  0.60475843579E+01  0.65764877829E+01  0.51100000000E-03 0. -1.
        -11    1    3    3    0    0 -0.95159423380E+01  0.14967414294E+02  0.54297473282E+01  0.18548822214E+02  0.51100000000E-03 0.  1.
        -12    1    3    3    0    0 -0.17039488877E+02  0.31892008398E+01  0.14596205476E+02  0.22661959260E+02  0.00000000000E+00 0.  1.
</event>
<event>
 7    1  0.2318319E-009  0.4778727E+02  0.7816164E-02  0.1312668E+00
        -11   -1    0    0    0    0  0.00000000000E+00  0.00000000000E+00  0.45593999997E+02  0.45594000000E+02  0.51100000000E-03 0. -1.
         11   -1    0    0    0    0 -0.00000000000E+00 -0.00000000000E+00 -0.45593999997E+02  0.45594000000E+02  0.51100000000E-03 0.  1.
    9900012    2    1    2    0    0 -0.17686842244E+02  0.21869201910E+02 -0.33053542050E+02  0.47787273937E+02  0.20000013188E+02 0.  0.
         12    1    1    2    0    0  0.17686842244E+02 -0.21869201910E+02  0.33053542050E+02  0.43400726063E+02  0.00000000000E+00 0. -1.
         11    1    3    3    0    0 -0.33991069603E+01  0.62317587664E+01 -0.27524810454E+00  0.71038375003E+01  0.51100000000E-03 0. -1.
        -11    1    3    3    0    0 -0.45855961899E+01  0.83171664202E+00 -0.17834573154E+01  0.49900065377E+01  0.51100000000E-03 0.  1.
        -12    1    3    3    0    0 -0.97021390942E+01  0.14805726502E+02 -0.30994836630E+02  0.35693429899E+02  0.00000000000E+00 0.  1.
</event>
<event>
 7    1  0.2318319E-009  0.4778727E+02  0.7816164E-02  0.1312668E+00
        -11   -1    0    0    0    0  0.00000000000E+00  0.00000000000E+00  0.45593999997E+02  0.45594000000E+02  0.51100000000E-03 0. -1.
         11   -1    0    0    0    0 -0.00000000000E+00 -0.00000000000E+00 -0.45593999997E+02  0.45594000000E+02  0.51100000000E-03 0.  1.
    9900012    2    1    2    0    0 -0.34092900060E+02  0.21426519851E+02 -0.16192643864E+02  0.47787270712E+02  0.19999998484E+02 0.  0.
         12    1    1    2    0    0  0.34092900060E+02 -0.21426519851E+02  0.16192643864E+02  0.43400729288E+02  0.00000000000E+00 0. -1.
         11    1    3    3    0    0 -0.13364285956E+02  0.98708056803E+01 -0.17314605755E+02  0.23996510509E+02  0.51100000000E-03 0. -1.
        -11    1    3    3    0    0 -0.51464473806E+01  0.23091797274E+01  0.46149172780E+00  0.56596118710E+01  0.51100000000E-03 0.  1.
         12    1    3    3    0    0 -0.15582166724E+02  0.92465344427E+01  0.66047016278E+00  0.18131148332E+02  0.00000000000E+00 0. -1.
</event>
<event>
 7    1  0.2318319E-009  0.4778730E+02  0.7816164E-02  0.1312668E+00
        -11   -1    0    0    0    0  0.00000000000E+00  0.00000000000E+00  0.45593999997E+02  0.45594000000E+02  0.51100000000E-03 0.  1.
         11   -1    0    0    0    0 -0.00000000000E+00 -0.00000000000E+00 -0.45593999997E+02  0.45594000000E+02  0.51100000000E-03 0. -1.
    9900012    2    1    2    0    0  0.14431780231E+02  0.37581079940E+02  0.16217485507E+02  0.47787300855E+02  0.20000135919E+02 0.  0.
         12    1    1    2    0    0 -0.14431780231E+02 -0.37581079940E+02 -0.16217485507E+02  0.43400699145E+02  0.00000000000E+00 0. -1.
         11    1    3    3    0    0  0.28635745385E+01  0.24926979003E+01  0.36024033844E+01  0.52336328076E+01  0.51100000000E-03 0. -1.
        -11    1    3    3    0    0  0.12011831934E+02  0.26309648275E+02  0.16096342140E+02  0.33099455121E+02  0.51100000000E-03 0.  1.
         12    1    3    3    0    0 -0.44362624090E+00  0.87787337641E+01 -0.34812600178E+01  0.94542129262E+01  0.00000000000E+00 0. -1.
</event>
<event>
 7    1  0.2318319E-009  0.4778727E+02  0.7816164E-02  0.1312668E+00
        -11   -1    0    0    0    0  0.00000000000E+00  0.00000000000E+00  0.45593999997E+02  0.45594000000E+02  0.51100000000E-03 0. -1.
         11   -1    0    0    0    0 -0.00000000000E+00 -0.00000000000E+00 -0.45593999997E+02  0.45594000000E+02  0.51100000000E-03 0.  1.
    9900012    2    1    2    0    0 -0.21417631022E+02 -0.23924027809E+02 -0.29198449563E+02  0.47787268646E+02  0.19999989063E+02 0.  0.
         12    1    1    2    0    0  0.21417631022E+02  0.23924027809E+02  0.29198449563E+02  0.43400731354E+02  0.00000000000E+00 0. -1.
         11    1    3    3    0    0 -0.38927214491E-01 -0.97831060688E+01 -0.14294636352E+02  0.17321873697E+02  0.51100000000E-03 0. -1.
        -11    1    3    3    0    0 -0.91770141329E+00 -0.28246313381E+01 -0.52462659128E+00  0.30159495025E+01  0.51100000000E-03 0.  1.
        -12    1    3    3    0    0 -0.20461002394E+02 -0.11316290402E+02 -0.14379186621E+02  0.27449445446E+02  0.00000000000E+00 0.  1.
</event>
<event>
 7    1  0.2318319E-009  0.4778731E+02  0.7816164E-02  0.1312668E+00
        -11   -1    0    0    0    0  0.00000000000E+00  0.00000000000E+00  0.45593999997E+02  0.45594000000E+02  0.51100000000E-03 0. -1.
         11   -1    0    0    0    0 -0.00000000000E+00 -0.00000000000E+00 -0.45593999997E+02  0.45594000000E+02  0.51100000000E-03 0.  1.
    9900012    2    1    2    0    0 -0.34391702300E+01  0.33960978099E+02 -0.26803809995E+02  0.47787306969E+02  0.20000163792E+02 0.  0.
         12    1    1    2    0    0  0.34391702300E+01 -0.33960978099E+02  0.26803809995E+02  0.43400693031E+02  0.00000000000E+00 0. -1.
         11    1    3    3    0    0 -0.30521134810E+01  0.31949485077E+01  0.18672499789E+01  0.47968443181E+01  0.51100000000E-03 0. -1.
        -11    1    3    3    0    0 -0.85964468628E+00  0.24585525758E+00  0.26338002725E+00  0.93209607563E+00  0.51100000000E-03 0.  1.
        -12    1    3    3    0    0  0.47258793725E+00  0.30520174334E+02 -0.28934440001E+02  0.42058366575E+02  0.00000000000E+00 0.  1.
</event>
<event>
 7    1  0.2534067E-009  0.4778727E+02  0.7816164E-02  0.1312668E+00
        -11   -1    0    0    0    0  0.00000000000E+00  0.00000000000E+00  0.45593999997E+02  0.45594000000E+02  0.51100000000E-03 0. -1.
         11   -1    0    0    0    0 -0.00000000000E+00 -0.00000000000E+00 -0.45593999997E+02  0.45594000000E+02  0.51100000000E-03 0.  1.
    9900012    2    1    2    0    0 -0.30322257618E+00 -0.12289943168E+02 -0.41623175886E+02  0.47787269386E+02  0.19999992438E+02 0.  0.
         12    1    1    2    0    0  0.30322257618E+00  0.12289943168E+02  0.41623175886E+02  0.43400730614E+02  0.00000000000E+00 0. -1.
         11    1    3    3    0    0  0.49106900272E+01 -0.27793698846E+01 -0.61767879892E+01  0.83661510638E+01  0.51100000000E-03 0. -1.
        -11    1    3    3    0    0 -0.30743857996E+01 -0.11101424894E+02 -0.15576733987E+02  0.19373387022E+02  0.51100000000E-03 0.  1.
        -12    1    3    3    0    0 -0.21395268037E+01  0.15908516111E+01 -0.19869653910E+02  0.20047731300E+02  0.00000000000E+00 0.  1.
</event>
<event>
 7    1  0.2318319E-009  0.4778727E+02  0.7816164E-02  0.1312668E+00
        -11   -1    0    0    0    0  0.00000000000E+00  0.00000000000E+00  0.45593999997E+02  0.45594000000E+02  0.51100000000E-03 0.  1.
         11   -1    0    0    0    0 -0.00000000000E+00 -0.00000000000E+00 -0.45593999997E+02  0.45594000000E+02  0.51100000000E-03 0. -1.
    9900012    2    1    2    0    0  0.47544805100E+01 -0.42457568048E+02 -0.76402202526E+01  0.47787272645E+02  0.20000007297E+02 0.  0.
         12    1    1    2    0    0 -0.47544805100E+01  0.42457568048E+02  0.76402202526E+01  0.43400727355E+02  0.00000000000E+00 0. -1.
         11    1    3    3    0    0  0.64070093232E+00  0.56093409866E-01 -0.55437268920E+00  0.84910158106E+00  0.51100000000E-03 0. -1.
        -11    1    3    3    0    0 -0.40597193146E+01 -0.34745309138E+02 -0.69264573716E+01  0.35660813788E+02  0.51100000000E-03 0.  1.
        -12    1    3    3    0    0  0.81734988923E+01 -0.77683523196E+01 -0.15939019181E+00  0.11277357276E+02  0.00000000000E+00 0.  1.
</event>
<event>
 7    1  0.2318319E-009  0.4778726E+02  0.7816164E-02  0.1312668E+00
        -11   -1    0    0    0    0  0.00000000000E+00  0.00000000000E+00  0.45593999997E+02  0.45594000000E+02  0.51100000000E-03 0.  1.
         11   -1    0    0    0    0 -0.00000000000E+00 -0.00000000000E+00 -0.45593999997E+02  0.45594000000E+02  0.51100000000E-03 0. -1.
    9900012    2    1    2    0    0  0.63671895951E+01 -0.27411587941E+02  0.33040704099E+02  0.47787258253E+02  0.19999941680E+02 0.  0.
         12    1    1    2    0    0 -0.63671895951E+01  0.27411587941E+02 -0.33040704099E+02  0.43400741747E+02  0.00000000000E+00 0. -1.
         11    1    3    3    0    0 -0.14417446505E+01 -0.77678887688E+00  0.13407383723E+02  0.13507033988E+02  0.51100000000E-03 0. -1.
        -11    1    3    3    0    0  0.24361778868E+01 -0.39824706978E+01  0.46824457806E+01  0.66121353816E+01  0.51100000000E-03 0.  1.
        -12    1    3    3    0    0  0.53727563588E+01 -0.22652328366E+02  0.14950874596E+02  0.27668088884E+02  0.00000000000E+00 0.  1.
</event>
<event>
 7    1  0.2318319E-009  0.4778727E+02  0.7816164E-02  0.1312668E+00
        -11   -1    0    0    0    0  0.00000000000E+00  0.00000000000E+00  0.45593999997E+02  0.45594000000E+02  0.51100000000E-03 0.  1.
         11   -1    0    0    0    0 -0.00000000000E+00 -0.00000000000E+00 -0.45593999997E+02  0.45594000000E+02  0.51100000000E-03 0. -1.
    9900012    2    1    2    0    0  0.10513872367E+02  0.21594377064E+02  0.36149198649E+02  0.47787271943E+02  0.20000004095E+02 0.  0.
         12    1    1    2    0    0 -0.10513872367E+02 -0.21594377064E+02 -0.36149198649E+02  0.43400728057E+02  0.00000000000E+00 0. -1.
         11    1    3    3    0    0  0.75477752285E+01  0.26722014100E+01  0.15438359331E+02  0.17391161846E+02  0.51100000000E-03 0. -1.
        -11    1    3    3    0    0  0.64733076706E+01  0.17084488871E+02  0.16529440905E+02  0.24637489504E+02  0.51100000000E-03 0.  1.
        -12    1    3    3    0    0 -0.35072105321E+01  0.18376867831E+01  0.41813984138E+01  0.57586205921E+01  0.00000000000E+00 0.  1.
</event>
<event>
 7    1  0.2318319E-009  0.4778727E+02  0.7816164E-02  0.1312668E+00
        -11   -1    0    0    0    0  0.00000000000E+00  0.00000000000E+00  0.45593999997E+02  0.45594000000E+02  0.51100000000E-03 0. -1.
         11   -1    0    0    0    0 -0.00000000000E+00 -0.00000000000E+00 -0.45593999997E+02  0.45594000000E+02  0.51100000000E-03 0.  1.
    9900012    2    1    2    0    0 -0.18902955093E+02  0.30407945886E+02 -0.24528724400E+02  0.47787271838E+02  0.20000003620E+02 0.  0.
         12    1    1    2    0    0  0.18902955093E+02 -0.30407945886E+02  0.24528724400E+02  0.43400728162E+02  0.00000000000E+00 0. -1.
         11    1    3    3    0    0  0.29443863553E+01  0.40443369850E+01  0.30486277463E+00  0.50118872922E+01  0.51100000000E-03 0. -1.
        -11    1    3    3    0    0 -0.11577379722E+01  0.36161322672E+01 -0.11641662029E+01  0.39714044110E+01  0.51100000000E-03 0.  1.
        -12    1    3    3    0    0 -0.20689603476E+02  0.22747476634E+02 -0.23669420972E+02  0.38803980135E+02  0.00000000000E+00 0.  1.
</event>
<event>
 7    1  0.2318319E-009  0.4778728E+02  0.7816164E-02  0.1312668E+00
        -11   -1    0    0    0    0  0.00000000000E+00  0.00000000000E+00  0.45593999997E+02  0.45594000000E+02  0.51100000000E-03 0.  1.
         11   -1    0    0    0    0 -0.00000000000E+00 -0.00000000000E+00 -0.45593999997E+02  0.45594000000E+02  0.51100000000E-03 0. -1.
    9900012    2    1    2    0    0  0.13993779150E+02 -0.40037459495E+02  0.92086005847E+01  0.47787281775E+02  0.20000048925E+02 0.  0.
         12    1    1    2    0    0 -0.13993779150E+02  0.40037459495E+02 -0.92086005847E+01  0.43400718225E+02  0.00000000000E+00 0. -1.
         11    1    3    3    0    0 -0.64153926177E+00 -0.22683480864E+01 -0.11198393639E+01  0.26097923534E+01  0.51100000000E-03 0. -1.
        -11    1    3    3    0    0  0.15528907127E+02 -0.17946015599E+02  0.25671327487E+01  0.23870412716E+02  0.51100000000E-03 0.  1.
         12    1    3    3    0    0 -0.89358871568E+00 -0.19823095810E+02  0.77613071999E+01  0.21307076705E+02  0.00000000000E+00 0. -1.
</event>
<event>
 7    1  0.2318319E-009  0.4778726E+02  0.7816164E-02  0.1312668E+00
        -11   -1    0    0    0    0  0.00000000000E+00  0.00000000000E+00  0.45593999997E+02  0.45594000000E+02  0.51100000000E-03 0.  1.
         11   -1    0    0    0    0 -0.00000000000E+00 -0.00000000000E+00 -0.45593999997E+02  0.45594000000E+02  0.51100000000E-03 0. -1.
    9900012    2    1    2    0    0 -0.31007810576E+02 -0.50998029864E+01  0.29935456735E+02  0.47787264095E+02  0.19999968313E+02 0.  0.
         12    1    1    2    0    0  0.31007810576E+02  0.50998029864E+01 -0.29935456735E+02  0.43400735905E+02  0.00000000000E+00 0. -1.
         11    1    3    3    0    0 -0.13355902790E+02 -0.99247706613E+00  0.69551712589E+01  0.15091042295E+02  0.51100000000E-03 0. -1.
        -11    1    3    3    0    0 -0.65538458152E+01 -0.58028102490E+01  0.21199267144E+01  0.90066415101E+01  0.51100000000E-03 0.  1.
        -12    1    3    3    0    0 -0.11098061971E+02  0.16954843288E+01  0.20860358761E+02  0.23689580289E+02  0.00000000000E+00 0.  1.
</event>
<event>
 7    1  0.2318319E-009  0.4778727E+02  0.7816164E-02  0.1312668E+00
        -11   -1    0    0    0    0  0.00000000000E+00  0.00000000000E+00  0.45593999997E+02  0.45594000000E+02  0.51100000000E-03 0.  1.
         11   -1    0    0    0    0 -0.00000000000E+00 -0.00000000000E+00 -0.45593999997E+02  0.45594000000E+02  0.51100000000E-03 0. -1.
    9900012    2    1    2    0    0  0.26412940035E+02 -0.75362714744E+01  0.33603340557E+02  0.47787270909E+02  0.19999999381E+02 0.  0.
         12    1    1    2    0    0 -0.26412940035E+02  0.75362714744E+01 -0.33603340557E+02  0.43400729091E+02  0.00000000000E+00 0. -1.
         11    1    3    3    0    0  0.63495029223E+01 -0.69792500639E+01  0.14601720996E+02  0.17384946796E+02  0.51100000000E-03 0. -1.
        -11    1    3    3    0    0  0.10238975150E+02  0.16482033616E+01  0.17329281388E+02  0.20195474249E+02  0.51100000000E-03 0.  1.
         12    1    3    3    0    0  0.98244619635E+01 -0.22052247721E+01  0.16723381732E+01  0.10206849863E+02  0.00000000000E+00 0. -1.
</event>
<event>
 7    1  0.2318319E-009  0.4778727E+02  0.7816164E-02  0.1312668E+00
        -11   -1    0    0    0    0  0.00000000000E+00  0.00000000000E+00  0.45593999997E+02  0.45594000000E+02  0.51100000000E-03 0. -1.
         11   -1    0    0    0    0 -0.00000000000E+00 -0.00000000000E+00 -0.45593999997E+02  0.45594000000E+02  0.51100000000E-03 0.  1.
    9900012    2    1    2    0    0  0.62117380983E+01 -0.19754253521E+02 -0.38141937577E+02  0.47787267005E+02  0.19999981584E+02 0.  0.
         12    1    1    2    0    0 -0.62117380983E+01  0.19754253521E+02  0.38141937577E+02  0.43400732995E+02  0.00000000000E+00 0. -1.
         11    1    3    3    0    0 -0.55160732969E+01 -0.34769724553E+01 -0.40807154176E+01  0.76921154861E+01  0.51100000000E-03 0. -1.
        -11    1    3    3    0    0  0.34206683508E+01 -0.11956508816E+01 -0.88722410883E+01  0.95836952783E+01  0.51100000000E-03 0.  1.
        -12    1    3    3    0    0  0.83071430443E+01 -0.15081630184E+02 -0.25188981071E+02  0.30511456241E+02  0.00000000000E+00 0.  1.
</event>
<event>
 7    1  0.2318319E-009  0.4778727E+02  0.7816164E-02  0.1312668E+00
        -11   -1    0    0    0    0  0.00000000000E+00  0.00000000000E+00  0.45593999997E+02  0.45594000000E+02  0.51100000000E-03 0.  1.
         11   -1    0    0    0    0 -0.00000000000E+00 -0.00000000000E+00 -0.45593999997E+02  0.45594000000E+02  0.51100000000E-03 0. -1.
    9900012    2    1    2    0    0 -0.36186691353E+01 -0.25094472207E+02  0.35224936406E+02  0.47787269056E+02  0.19999990933E+02 0.  0.
         12    1    1    2    0    0  0.36186691353E+01  0.25094472207E+02 -0.35224936406E+02  0.43400730944E+02  0.00000000000E+00 0. -1.
         11    1    3    3    0    0  0.11561027357E+01  0.66263871225E+00  0.35206005749E+00  0.13782634522E+01  0.51100000000E-03 0. -1.
        -11    1    3    3    0    0 -0.52272877909E+01 -0.90037918481E+00  0.33951597552E+01  0.62978036132E+01  0.51100000000E-03 0.  1.
        -12    1    3    3    0    0  0.45251591988E+00 -0.24856731735E+02  0.31477716593E+02  0.40111201990E+02  0.00000000000E+00 0.  1.
</event>
<event>
 7    1  0.2318319E-009  0.4778727E+02  0.7816164E-02  0.1312668E+00
        -11   -1    0    0    0    0  0.00000000000E+00  0.00000000000E+00  0.45593999997E+02  0.45594000000E+02  0.51100000000E-03 0.  1.
         11   -1    0    0    0    0 -0.00000000000E+00 -0.00000000000E+00 -0.45593999997E+02  0.45594000000E+02  0.51100000000E-03 0. -1.
    9900012    2    1    2    0    0  0.51065772941E+01  0.14383949482E+02  0.40628169009E+02  0.47787271303E+02  0.20000001180E+02 0.  0.
         12    1    1    2    0    0 -0.51065772941E+01 -0.14383949482E+02 -0.40628169009E+02  0.43400728697E+02  0.00000000000E+00 0. -1.
         11    1    3    3    0    0  0.30864780074E+01  0.82587588016E-01 -0.67944929065E+00  0.31614583343E+01  0.51100000000E-03 0. -1.
        -11    1    3    3    0    0  0.13954385062E+01  0.46933802273E+01  0.47511219111E+01  0.68226260529E+01  0.51100000000E-03 0.  1.
        -12    1    3    3    0    0  0.62466078049E+00  0.96079816670E+01  0.36556496389E+02  0.37803186916E+02  0.00000000000E+00 0.  1.
</event>
<event>
 7    1  0.2318319E-009  0.4778723E+02  0.7816164E-02  0.1312668E+00
        -11   -1    0    0    0    0  0.00000000000E+00  0.00000000000E+00  0.45593999997E+02  0.45594000000E+02  0.51100000000E-03 0. -1.
         11   -1    0    0    0    0 -0.00000000000E+00 -0.00000000000E+00 -0.45593999997E+02  0.45594000000E+02  0.51100000000E-03 0.  1.
    9900012    2    1    2    0    0 -0.10467216141E+02 -0.27778580692E+02 -0.31660935552E+02  0.47787228128E+02  0.19999804326E+02 0.  0.
         12    1    1    2    0    0  0.10467216141E+02  0.27778580692E+02  0.31660935552E+02  0.43400771872E+02  0.00000000000E+00 0. -1.
         11    1    3    3    0    0 -0.84358346427E+01 -0.15901437409E+02 -0.11807005446E+02  0.21527294202E+02  0.51100000000E-03 0. -1.
        -11    1    3    3    0    0 -0.32285869636E+01 -0.14029592035E+02 -0.18525230950E+02  0.23461402525E+02  0.51100000000E-03 0.  1.
        -12    1    3    3    0    0  0.11972054649E+01  0.21524487514E+01 -0.13286991562E+01  0.27985314007E+01  0.00000000000E+00 0.  1.
</event>
<event>
 7    1  0.2318319E-009  0.4778727E+02  0.7816164E-02  0.1312668E+00
        -11   -1    0    0    0    0  0.00000000000E+00  0.00000000000E+00  0.45593999997E+02  0.45594000000E+02  0.51100000000E-03 0.  1.
         11   -1    0    0    0    0 -0.00000000000E+00 -0.00000000000E+00 -0.45593999997E+02  0.45594000000E+02  0.51100000000E-03 0. -1.
    9900012    2    1    2    0    0 -0.65596201992E+01  0.21243406646E+02  0.37273482812E+02  0.47787268854E+02  0.19999990013E+02 0.  0.
         12    1    1    2    0    0  0.65596201992E+01 -0.21243406646E+02 -0.37273482812E+02  0.43400731146E+02  0.00000000000E+00 0. -1.
         11    1    3    3    0    0  0.32824821209E+01 -0.56645616929E+00  0.51294702202E+01  0.61161283887E+01  0.51100000000E-03 0. -1.
        -11    1    3    3    0    0 -0.59145032539E+01  0.24224657222E+01  0.51664003772E+01  0.82183564072E+01  0.51100000000E-03 0.  1.
        -12    1    3    3    0    0 -0.39275990662E+01  0.19387397093E+02  0.26977612214E+02  0.33452784058E+02  0.00000000000E+00 0.  1.
</event>
<event>
 7    1  0.2318319E-009  0.4778730E+02  0.7816164E-02  0.1312668E+00
        -11   -1    0    0    0    0  0.00000000000E+00  0.00000000000E+00  0.45593999997E+02  0.45594000000E+02  0.51100000000E-03 0.  1.
         11   -1    0    0    0    0 -0.00000000000E+00 -0.00000000000E+00 -0.45593999997E+02  0.45594000000E+02  0.51100000000E-03 0. -1.
    9900012    2    1    2    0    0  0.18204728995E+02  0.80198298573E+01  0.38573193498E+02  0.47787296258E+02  0.20000114957E+02 0.  0.
         12    1    1    2    0    0 -0.18204728995E+02 -0.80198298573E+01 -0.38573193498E+02  0.43400703742E+02  0.00000000000E+00 0. -1.
         11    1    3    3    0    0  0.20474876323E+01  0.44310764868E+01  0.39691995473E+01  0.62913583385E+01  0.51100000000E-03 0. -1.
        -11    1    3    3    0    0 -0.10486782650E+01  0.51459000543E+01  0.11541903930E+02  0.12680518919E+02  0.51100000000E-03 0.  1.
        -12    1    3    3    0    0  0.17205919628E+02 -0.15571466838E+01  0.23062090021E+02  0.28815419000E+02  0.00000000000E+00 0.  1.
</event>
<event>
 7    1  0.2318319E-009  0.4778727E+02  0.7816164E-02  0.1312668E+00
        -11   -1    0    0    0    0  0.00000000000E+00  0.00000000000E+00  0.45593999997E+02  0.45594000000E+02  0.51100000000E-03 0.  1.
         11   -1    0    0    0    0 -0.00000000000E+00 -0.00000000000E+00 -0.45593999997E+02  0.45594000000E+02  0.51100000000E-03 0. -1.
    9900012    2    1    2    0    0  0.86435554424E+01  0.38053155603E+02  0.18996567134E+02  0.47787271148E+02  0.20000000473E+02 0.  0.
         12    1    1    2    0    0 -0.86435554424E+01 -0.38053155603E+02 -0.18996567134E+02  0.43400728852E+02  0.00000000000E+00 0. -1.
         11    1    3    3    0    0  0.11421484480E+01  0.65254793698E+01  0.27390194308E+01  0.71685850617E+01  0.51100000000E-03 0.  1.
        -11    1    3    3    0    0  0.37664499144E+01  0.26499078912E+01  0.97488106288E+01  0.10781811802E+02  0.51100000000E-03 0. -1.
         12    1    3    3    0    0  0.37349570800E+01  0.28877768342E+02  0.65087370745E+01  0.29836874285E+02  0.00000000000E+00 0. -1.
</event>
<event>
 7    1  0.2318319E-009  0.4778727E+02  0.7816164E-02  0.1312668E+00
        -11   -1    0    0    0    0  0.00000000000E+00  0.00000000000E+00  0.45593999997E+02  0.45594000000E+02  0.51100000000E-03 0.  1.
         11   -1    0    0    0    0 -0.00000000000E+00 -0.00000000000E+00 -0.45593999997E+02  0.45594000000E+02  0.51100000000E-03 0. -1.
    9900012    2    1    2    0    0  0.31814329815E+02 -0.17589940450E+02  0.23707922365E+02  0.47787272247E+02  0.20000005483E+02 0.  0.
         12    1    1    2    0    0 -0.31814329815E+02  0.17589940450E+02 -0.23707922365E+02  0.43400727753E+02  0.00000000000E+00 0. -1.
         11    1    3    3    0    0  0.11882280093E+02 -0.11208538879E+02  0.13538709731E+02  0.21215951203E+02  0.51100000000E-03 0. -1.
        -11    1    3    3    0    0  0.14852619107E+02 -0.11830508321E+01  0.11936739155E+02  0.19091507157E+02  0.51100000000E-03 0.  1.
         12    1    3    3    0    0  0.50794306146E+01 -0.51983507397E+01 -0.17675265210E+01  0.74798138870E+01  0.00000000000E+00 0. -1.
</event>
<event>
 7    1  0.2318319E-009  0.4778727E+02  0.7816164E-02  0.1312668E+00
        -11   -1    0    0    0    0  0.00000000000E+00  0.00000000000E+00  0.45593999997E+02  0.45594000000E+02  0.51100000000E-03 0.  1.
         11   -1    0    0    0    0 -0.00000000000E+00 -0.00000000000E+00 -0.45593999997E+02  0.45594000000E+02  0.51100000000E-03 0. -1.
    9900012    2    1    2    0    0  0.26175784170E+02 -0.11809922749E+01  0.34598507307E+02  0.47787272730E+02  0.20000007685E+02 0.  0.
         12    1    1    2    0    0 -0.26175784170E+02  0.11809922749E+01 -0.34598507307E+02  0.43400727270E+02  0.00000000000E+00 0. -1.
         11    1    3    3    0    0 -0.36589757085E+00  0.11199807904E+01 -0.37277015453E+00  0.12357976584E+01  0.51100000000E-03 0. -1.
        -11    1    3    3    0    0  0.16653778811E+02  0.20651051138E+01  0.30585272227E+02  0.34886557372E+02  0.51100000000E-03 0.  1.
        -12    1    3    3    0    0  0.98879029297E+01 -0.43660781791E+01  0.43860052346E+01  0.11664917699E+02  0.00000000000E+00 0.  1.
</event>
<event>
 7    1  0.2318319E-009  0.4778727E+02  0.7816164E-02  0.1312668E+00
        -11   -1    0    0    0    0  0.00000000000E+00  0.00000000000E+00  0.45593999997E+02  0.45594000000E+02  0.51100000000E-03 0. -1.
         11   -1    0    0    0    0 -0.00000000000E+00 -0.00000000000E+00 -0.45593999997E+02  0.45594000000E+02  0.51100000000E-03 0.  1.
    9900012    2    1    2    0    0 -0.42553041970E+02 -0.40327469226E+01 -0.75232222269E+01  0.47787270729E+02  0.19999998560E+02 0.  0.
         12    1    1    2    0    0  0.42553041970E+02  0.40327469226E+01  0.75232222269E+01  0.43400729271E+02  0.00000000000E+00 0. -1.
         11    1    3    3    0    0 -0.54056037201E+01 -0.87173146750E+00  0.14921706582E+01  0.56751247444E+01  0.51100000000E-03 0. -1.
        -11    1    3    3    0    0 -0.18859357297E+02 -0.36051085110E+01 -0.13257702499E+02  0.23333213256E+02  0.51100000000E-03 0.  1.
        -12    1    3    3    0    0 -0.18288080952E+02  0.44409305587E+00  0.42423096136E+01  0.18778932728E+02  0.00000000000E+00 0.  1.
</event>
<event>
 7    1  0.2318319E-009  0.4778726E+02  0.7816164E-02  0.1312668E+00
        -11   -1    0    0    0    0  0.00000000000E+00  0.00000000000E+00  0.45593999997E+02  0.45594000000E+02  0.51100000000E-03 0. -1.
         11   -1    0    0    0    0 -0.00000000000E+00 -0.00000000000E+00 -0.45593999997E+02  0.45594000000E+02  0.51100000000E-03 0.  1.
    9900012    2    1    2    0    0  0.28490885689E+02  0.31078544677E+02  0.10296479205E+02  0.47787262787E+02  0.19999962352E+02 0.  0.
         12    1    1    2    0    0 -0.28490885689E+02 -0.31078544677E+02 -0.10296479205E+02  0.43400737213E+02  0.00000000000E+00 0. -1.
         11    1    3    3    0    0  0.11876364318E+01  0.16296922608E+01  0.53073037264E+01  0.56774862628E+01  0.51100000000E-03 0. -1.
        -11    1    3    3    0    0 -0.81126169308E+00 -0.66976990193E-01  0.78471426467E+00  0.11306671438E+01  0.51100000000E-03 0.  1.
        -12    1    3    3    0    0  0.28114510950E+02  0.29515829406E+02  0.42044612141E+01  0.40979109381E+02  0.00000000000E+00 0.  1.
</event>
<event>
 7    1  0.2318319E-009  0.4778727E+02  0.7816164E-02  0.1312668E+00
        -11   -1    0    0    0    0  0.00000000000E+00  0.00000000000E+00  0.45593999997E+02  0.45594000000E+02  0.51100000000E-03 0. -1.
         11   -1    0    0    0    0 -0.00000000000E+00 -0.00000000000E+00 -0.45593999997E+02  0.45594000000E+02  0.51100000000E-03 0.  1.
    9900012    2    1    2    0    0  0.29825588114E+00  0.41489137565E+02 -0.12735224717E+02  0.47787269119E+02  0.19999991221E+02 0.  0.
         12    1    1    2    0    0 -0.29825588114E+00 -0.41489137565E+02  0.12735224717E+02  0.43400730881E+02  0.00000000000E+00 0. -1.
         11    1    3    3    0    0  0.70798347056E+00  0.46591051682E+01  0.17980639679E+01  0.50439603346E+01  0.51100000000E-03 0. -1.
        -11    1    3    3    0    0  0.24700950312E+01  0.13933918847E+02 -0.13632166964E+02  0.19649209661E+02  0.51100000000E-03 0.  1.
        -12    1    3    3    0    0 -0.28798226207E+01  0.22896113549E+02 -0.90112172102E+00  0.23094099124E+02  0.00000000000E+00 0.  1.
</event>
<event>
 7    1  0.2318319E-009  0.4778727E+02  0.7816164E-02  0.1312668E+00
        -11   -1    0    0    0    0  0.00000000000E+00  0.00000000000E+00  0.45593999997E+02  0.45594000000E+02  0.51100000000E-03 0.  1.
         11   -1    0    0    0    0 -0.00000000000E+00 -0.00000000000E+00 -0.45593999997E+02  0.45594000000E+02  0.51100000000E-03 0. -1.
    9900012    2    1    2    0    0 -0.29183501850E+02 -0.49748773212E+01  0.31736376715E+02  0.47787265081E+02  0.19999972809E+02 0.  0.
         12    1    1    2    0    0  0.29183501850E+02  0.49748773212E+01 -0.31736376715E+02  0.43400734919E+02  0.00000000000E+00 0. -1.
         11    1    3    3    0    0 -0.83921848343E+01 -0.68686459701E+01  0.69694802625E+01  0.12891110082E+02  0.51100000000E-03 0. -1.
        -11    1    3    3    0    0 -0.93427065379E+01 -0.53339450425E+01  0.13635686291E+02  0.17368623321E+02  0.51100000000E-03 0.  1.
         12    1    3    3    0    0 -0.11448610478E+02  0.72277136914E+01  0.11131210161E+02  0.17527531678E+02  0.00000000000E+00 0. -1.
</event>
<event>
 7    1  0.2318319E-009  0.4778727E+02  0.7816164E-02  0.1312668E+00
        -11   -1    0    0    0    0  0.00000000000E+00  0.00000000000E+00  0.45593999997E+02  0.45594000000E+02  0.51100000000E-03 0. -1.
         11   -1    0    0    0    0 -0.00000000000E+00 -0.00000000000E+00 -0.45593999997E+02  0.45594000000E+02  0.51100000000E-03 0.  1.
    9900012    2    1    2    0    0 -0.20608459953E+02  0.73215334171E+00 -0.38188721703E+02  0.47787272640E+02  0.20000007273E+02 0.  0.
         12    1    1    2    0    0  0.20608459953E+02 -0.73215334171E+00  0.38188721703E+02  0.43400727360E+02  0.00000000000E+00 0. -1.
         11    1    3    3    0    0  0.16235958254E+01 -0.13858880987E+01 -0.36299416134E+00  0.21652977275E+01  0.51100000000E-03 0.  1.
        -11    1    3    3    0    0 -0.35373853039E+01 -0.11989676196E+01 -0.53132698926E+00  0.37726551356E+01  0.51100000000E-03 0. -1.
        -12    1    3    3    0    0 -0.18694670474E+02  0.33170090601E+01 -0.37294400552E+02  0.41849319777E+02  0.00000000000E+00 0.  1.
</event>
<event>
 7    1  0.2318319E-009  0.4778727E+02  0.7816164E-02  0.1312668E+00
        -11   -1    0    0    0    0  0.00000000000E+00  0.00000000000E+00  0.45593999997E+02  0.45594000000E+02  0.51100000000E-03 0.  1.
         11   -1    0    0    0    0 -0.00000000000E+00 -0.00000000000E+00 -0.45593999997E+02  0.45594000000E+02  0.51100000000E-03 0. -1.
    9900012    2    1    2    0    0 -0.30867579120E+02  0.41633223478E-02  0.30509276869E+02  0.47787269210E+02  0.19999991637E+02 0.  0.
         12    1    1    2    0    0  0.30867579120E+02 -0.41633223478E-02 -0.30509276869E+02  0.43400730790E+02  0.00000000000E+00 0. -1.
         11    1    3    3    0    0 -0.13108758508E+01 -0.14671471100E+01 -0.48575620734E+00  0.20265427438E+01  0.51100000000E-03 0. -1.
        -11    1    3    3    0    0 -0.16101425874E+02 -0.68645310555E+01  0.19469704640E+02  0.26181044686E+02  0.51100000000E-03 0.  1.
         12    1    3    3    0    0 -0.13455277395E+02  0.83358414878E+01  0.11525328436E+02  0.19579681781E+02  0.00000000000E+00 0. -1.
</event>
<event>
 7    1  0.2318319E-009  0.4778727E+02  0.7816164E-02  0.1312668E+00
        -11   -1    0    0    0    0  0.00000000000E+00  0.00000000000E+00  0.45593999997E+02  0.45594000000E+02  0.51100000000E-03 0. -1.
         11   -1    0    0    0    0 -0.00000000000E+00 -0.00000000000E+00 -0.45593999997E+02  0.45594000000E+02  0.51100000000E-03 0.  1.
    9900012    2    1    2    0    0 -0.21180592505E+02 -0.27781680484E+02 -0.25752365646E+02  0.47787267222E+02  0.19999982570E+02 0.  0.
         12    1    1    2    0    0  0.21180592505E+02  0.27781680484E+02  0.25752365646E+02  0.43400732778E+02  0.00000000000E+00 0. -1.
         11    1    3    3    0    0 -0.12522999025E+01 -0.18959817044E+01  0.97821966503E+00  0.24738463258E+01  0.51100000000E-03 0. -1.
        -11    1    3    3    0    0 -0.20719995856E+02 -0.27571089850E+02 -0.24036749281E+02  0.42038655307E+02  0.51100000000E-03 0.  1.
        -12    1    3    3    0    0  0.79170325412E+00  0.16853910706E+01 -0.26938360301E+01  0.32747655887E+01  0.00000000000E+00 0.  1.
</event>
<event>
 7    1  0.2318319E-009  0.4778727E+02  0.7816164E-02  0.1312668E+00
        -11   -1    0    0    0    0  0.00000000000E+00  0.00000000000E+00  0.45593999997E+02  0.45594000000E+02  0.51100000000E-03 0.  1.
         11   -1    0    0    0    0 -0.00000000000E+00 -0.00000000000E+00 -0.45593999997E+02  0.45594000000E+02  0.51100000000E-03 0. -1.
    9900012    2    1    2    0    0  0.92835517799E+01  0.16855355930E+02  0.38901616520E+02  0.47787272759E+02  0.20000007817E+02 0.  0.
         12    1    1    2    0    0 -0.92835517799E+01 -0.16855355930E+02 -0.38901616520E+02  0.43400727241E+02  0.00000000000E+00 0. -1.
         11    1    3    3    0    0  0.29802443444E+01 -0.16059601839E+01  0.25490584330E+01  0.42377663480E+01  0.51100000000E-03 0. -1.
        -11    1    3    3    0    0  0.81714126741E+01  0.18425989386E+02  0.25337583250E+02  0.32377186338E+02  0.51100000000E-03 0.  1.
        -12    1    3    3    0    0 -0.18681052386E+01  0.35326728217E-01  0.11014974837E+02  0.11172320073E+02  0.00000000000E+00 0.  1.
</event>
<event>
 7    1  0.2318319E-009  0.4778725E+02  0.7816164E-02  0.1312668E+00
        -11   -1    0    0    0    0  0.00000000000E+00  0.00000000000E+00  0.45593999997E+02  0.45594000000E+02  0.51100000000E-03 0.  1.
         11   -1    0    0    0    0 -0.00000000000E+00 -0.00000000000E+00 -0.45593999997E+02  0.45594000000E+02  0.51100000000E-03 0. -1.
    9900012    2    1    2    0    0  0.17788455149E+02 -0.36064584136E+02 -0.16326099701E+02  0.47787252346E+02  0.19999914745E+02 0.  0.
         12    1    1    2    0    0 -0.17788455149E+02  0.36064584136E+02  0.16326099701E+02  0.43400747654E+02  0.00000000000E+00 0. -1.
         11    1    3    3    0    0  0.36624383688E+01 -0.33831661539E+01 -0.94100356304E+00  0.50739290492E+01  0.51100000000E-03 0. -1.
        -11    1    3    3    0    0  0.10118306442E+02 -0.27038967803E+02 -0.36643827963E+01  0.29101780129E+02  0.51100000000E-03 0.  1.
         12    1    3    3    0    0  0.40077103373E+01 -0.56424501792E+01 -0.11720713341E+02  0.13611543168E+02  0.00000000000E+00 0. -1.
</event>
<event>
 7    1  0.2318319E-009  0.4778727E+02  0.7816164E-02  0.1312668E+00
        -11   -1    0    0    0    0  0.00000000000E+00  0.00000000000E+00  0.45593999997E+02  0.45594000000E+02  0.51100000000E-03 0.  1.
         11   -1    0    0    0    0 -0.00000000000E+00 -0.00000000000E+00 -0.45593999997E+02  0.45594000000E+02  0.51100000000E-03 0. -1.
    9900012    2    1    2    0    0  0.35543430218E+02 -0.23387763368E+02  0.85615755989E+01  0.47787268627E+02  0.19999988976E+02 0.  0.
         12    1    1    2    0    0 -0.35543430218E+02  0.23387763368E+02 -0.85615755989E+01  0.43400731373E+02  0.00000000000E+00 0. -1.
         11    1    3    3    0    0  0.11362137983E+02 -0.12674702533E+01 -0.13340970875E+01  0.11510190080E+02  0.51100000000E-03 0. -1.
        -11    1    3    3    0    0  0.25113927716E+02 -0.18951900679E+02  0.98697578097E+01  0.32974172077E+02  0.51100000000E-03 0.  1.
         12    1    3    3    0    0 -0.93263548073E+00 -0.31683924362E+01  0.25914876755E-01  0.33029064701E+01  0.00000000000E+00 0. -1.
</event>
<event>
 7    1  0.2318319E-009  0.4778728E+02  0.7816164E-02  0.1312668E+00
        -11   -1    0    0    0    0  0.00000000000E+00  0.00000000000E+00  0.45593999997E+02  0.45594000000E+02  0.51100000000E-03 0. -1.
         11   -1    0    0    0    0 -0.00000000000E+00 -0.00000000000E+00 -0.45593999997E+02  0.45594000000E+02  0.51100000000E-03 0.  1.
    9900012    2    1    2    0    0 -0.83028094032E+01  0.42361379814E+02 -0.44943592551E+01  0.47787281010E+02  0.20000045439E+02 0.  0.
         12    1    1    2    0    0  0.83028094032E+01 -0.42361379814E+02  0.44943592551E+01  0.43400718990E+02  0.00000000000E+00 0. -1.
         11    1    3    3    0    0  0.16400665753E+01  0.15532697756E+02 -0.73661383787E+01  0.17268888581E+02  0.51100000000E-03 0. -1.
        -11    1    3    3    0    0 -0.40603801640E+01  0.21899391611E+02 -0.14209943697E+00  0.22273083139E+02  0.51100000000E-03 0.  1.
         12    1    3    3    0    0 -0.58824958145E+01  0.49292904463E+01  0.30138785605E+01  0.82453092901E+01  0.00000000000E+00 0. -1.
</event>
<event>
 7    1  0.2318319E-009  0.4778727E+02  0.7816164E-02  0.1312668E+00
        -11   -1    0    0    0    0  0.00000000000E+00  0.00000000000E+00  0.45593999997E+02  0.45594000000E+02  0.51100000000E-03 0. -1.
         11   -1    0    0    0    0 -0.00000000000E+00 -0.00000000000E+00 -0.45593999997E+02  0.45594000000E+02  0.51100000000E-03 0.  1.
    9900012    2    1    2    0    0  0.24730069561E+02  0.18356826367E+02 -0.30578978352E+02  0.47787270377E+02  0.19999996958E+02 0.  0.
         12    1    1    2    0    0 -0.24730069561E+02 -0.18356826367E+02  0.30578978352E+02  0.43400729623E+02  0.00000000000E+00 0. -1.
         11    1    3    3    0    0  0.78777453114E+00  0.69222788466E+01 -0.42760388221E+01  0.81745361588E+01  0.51100000000E-03 0. -1.
        -11    1    3    3    0    0  0.66165543245E+01  0.89893493836E+01 -0.15316445000E+02  0.18952062715E+02  0.51100000000E-03 0.  1.
        -12    1    3    3    0    0  0.17325740705E+02  0.24451981368E+01 -0.10986494530E+02  0.20660671503E+02  0.00000000000E+00 0.  1.
</event>
<event>
 7    1  0.2318319E-009  0.4778727E+02  0.7816164E-02  0.1312668E+00
        -11   -1    0    0    0    0  0.00000000000E+00  0.00000000000E+00  0.45593999997E+02  0.45594000000E+02  0.51100000000E-03 0.  1.
         11   -1    0    0    0    0 -0.00000000000E+00 -0.00000000000E+00 -0.45593999997E+02  0.45594000000E+02  0.51100000000E-03 0. -1.
    9900012    2    1    2    0    0  0.19016169317E+01  0.26519131736E+01  0.43277871550E+02  0.47787274703E+02  0.20000016680E+02 0.  0.
         12    1    1    2    0    0 -0.19016169317E+01 -0.26519131736E+01 -0.43277871550E+02  0.43400725297E+02  0.00000000000E+00 0. -1.
         11    1    3    3    0    0 -0.12353006795E+01  0.18708037389E+01  0.51446207055E-01  0.22424364811E+01  0.51100000000E-03 0. -1.
        -11    1    3    3    0    0 -0.44544390609E+01  0.11200341804E+01  0.60295506229E+01  0.75797087601E+01  0.51100000000E-03 0.  1.
        -12    1    3    3    0    0  0.75913566722E+01 -0.33892474573E+00  0.37196874720E+02  0.37965129462E+02  0.00000000000E+00 0.  1.
</event>
<event>
 7    1  0.2318319E-009  0.4778727E+02  0.7816164E-02  0.1312668E+00
        -11   -1    0    0    0    0  0.00000000000E+00  0.00000000000E+00  0.45593999997E+02  0.45594000000E+02  0.51100000000E-03 0.  1.
         11   -1    0    0    0    0 -0.00000000000E+00 -0.00000000000E+00 -0.45593999997E+02  0.45594000000E+02  0.51100000000E-03 0. -1.
    9900012    2    1    2    0    0 -0.16495391789E+02 -0.11162948366E+02  0.38560528729E+02  0.47787265647E+02  0.19999975393E+02 0.  0.
         12    1    1    2    0    0  0.16495391789E+02  0.11162948366E+02 -0.38560528729E+02  0.43400734353E+02  0.00000000000E+00 0. -1.
         11    1    3    3    0    0  0.18304013497E+01 -0.65889553127E+00 -0.10173234695E+01  0.21953267923E+01  0.51100000000E-03 0. -1.
        -11    1    3    3    0    0 -0.27850805603E+01 -0.52046104435E+01  0.14048358650E+02  0.15238143739E+02  0.51100000000E-03 0.  1.
         12    1    3    3    0    0 -0.15540712578E+02 -0.52994423916E+01  0.25529493548E+02  0.30353795116E+02  0.00000000000E+00 0. -1.
</event>
<event>
 7    1  0.2318319E-009  0.4778727E+02  0.7816164E-02  0.1312668E+00
        -11   -1    0    0    0    0  0.00000000000E+00  0.00000000000E+00  0.45593999997E+02  0.45594000000E+02  0.51100000000E-03 0.  1.
         11   -1    0    0    0    0 -0.00000000000E+00 -0.00000000000E+00 -0.45593999997E+02  0.45594000000E+02  0.51100000000E-03 0. -1.
    9900012    2    1    2    0    0 -0.23511306103E+01  0.30624896935E+02  0.30662858071E+02  0.47787274286E+02  0.20000014779E+02 0.  0.
         12    1    1    2    0    0  0.23511306103E+01 -0.30624896935E+02 -0.30662858071E+02  0.43400725714E+02  0.00000000000E+00 0. -1.
         11    1    3    3    0    0 -0.93440824276E+01  0.16726643428E+02  0.18554063130E+02  0.26671065514E+02  0.51100000000E-03 0. -1.
        -11    1    3    3    0    0  0.51924720756E+00  0.77616101491E+01  0.29173626091E+01  0.83080211015E+01  0.51100000000E-03 0.  1.
         12    1    3    3    0    0  0.64737046098E+01  0.61366433578E+01  0.91914323327E+01  0.12808187670E+02  0.00000000000E+00 0. -1.
</event>
<event>
 7    1  0.2318319E-009  0.4778727E+02  0.7816164E-02  0.1312668E+00
        -11   -1    0    0    0    0  0.00000000000E+00  0.00000000000E+00  0.45593999997E+02  0.45594000000E+02  0.51100000000E-03 0.  1.
         11   -1    0    0    0    0 -0.00000000000E+00 -0.00000000000E+00 -0.45593999997E+02  0.45594000000E+02  0.51100000000E-03 0. -1.
    9900012    2    1    2    0    0 -0.33965751252E+02 -0.27441201342E+01  0.26877891742E+02  0.47787268233E+02  0.19999987183E+02 0.  0.
         12    1    1    2    0    0  0.33965751252E+02  0.27441201342E+01 -0.26877891742E+02  0.43400731767E+02  0.00000000000E+00 0. -1.
         11    1    3    3    0    0 -0.15658265362E+01  0.23382480628E+01 -0.32468927936E+00  0.28327795773E+01  0.51100000000E-03 0. -1.
        -11    1    3    3    0    0 -0.64878545044E+01 -0.70789185407E+01  0.95122370462E+01  0.13516138415E+02  0.51100000000E-03 0.  1.
        -12    1    3    3    0    0 -0.25912070211E+02  0.19965503437E+01  0.17690343975E+02  0.31438350241E+02  0.00000000000E+00 0.  1.
</event>
<event>
 7    1  0.2318319E-009  0.4778727E+02  0.7816164E-02  0.1312668E+00
        -11   -1    0    0    0    0  0.00000000000E+00  0.00000000000E+00  0.45593999997E+02  0.45594000000E+02  0.51100000000E-03 0.  1.
         11   -1    0    0    0    0 -0.00000000000E+00 -0.00000000000E+00 -0.45593999997E+02  0.45594000000E+02  0.51100000000E-03 0. -1.
    9900012    2    1    2    0    0 -0.31408851264E+02  0.27380793845E+02  0.12140825576E+02  0.47787268958E+02  0.19999990488E+02 0.  0.
         12    1    1    2    0    0  0.31408851264E+02 -0.27380793845E+02 -0.12140825576E+02  0.43400731042E+02  0.00000000000E+00 0. -1.
         11    1    3    3    0    0  0.10847038212E+01  0.98201816962E+00  0.36044288459E+01  0.38900963525E+01  0.51100000000E-03 0.  1.
        -11    1    3    3    0    0 -0.11112378582E+01  0.48466126854E+01  0.59980031557E+00  0.50084193893E+01  0.51100000000E-03 0. -1.
        -12    1    3    3    0    0 -0.31382317227E+02  0.21552162990E+02  0.79365964143E+01  0.38888753216E+02  0.00000000000E+00 0.  1.
</event>
<event>
 7    1  0.2318319E-009  0.4778727E+02  0.7816164E-02  0.1312668E+00
        -11   -1    0    0    0    0  0.00000000000E+00  0.00000000000E+00  0.45593999997E+02  0.45594000000E+02  0.51100000000E-03 0. -1.
         11   -1    0    0    0    0 -0.00000000000E+00 -0.00000000000E+00 -0.45593999997E+02  0.45594000000E+02  0.51100000000E-03 0.  1.
    9900012    2    1    2    0    0 -0.17058776593E+02  0.23439058295E+02 -0.32299101506E+02  0.47787271080E+02  0.20000000164E+02 0.  0.
         12    1    1    2    0    0  0.17058776593E+02 -0.23439058295E+02  0.32299101506E+02  0.43400728920E+02  0.00000000000E+00 0. -1.
         11    1    3    3    0    0  0.40471931440E+01  0.71708017511E+01 -0.53020893009E+01  0.97934836149E+01  0.51100000000E-03 0. -1.
        -11    1    3    3    0    0 -0.18806821236E+01  0.22699888617E+01 -0.27684353544E+01  0.40440140028E+01  0.51100000000E-03 0.  1.
         12    1    3    3    0    0 -0.19225287614E+02  0.13998267683E+02 -0.24228576851E+02  0.33949773463E+02  0.00000000000E+00 0. -1.
</event>
<event>
 7    1  0.2318319E-009  0.4778728E+02  0.7816164E-02  0.1312668E+00
        -11   -1    0    0    0    0  0.00000000000E+00  0.00000000000E+00  0.45593999997E+02  0.45594000000E+02  0.51100000000E-03 0. -1.
         11   -1    0    0    0    0 -0.00000000000E+00 -0.00000000000E+00 -0.45593999997E+02  0.45594000000E+02  0.51100000000E-03 0.  1.
    9900012    2    1    2    0    0  0.42995228435E+02  0.11967823025E+01 -0.57965904324E+01  0.47787280920E+02  0.20000045026E+02 0.  0.
         12    1    1    2    0    0 -0.42995228435E+02 -0.11967823025E+01  0.57965904324E+01  0.43400719080E+02  0.00000000000E+00 0. -1.
         11    1    3    3    0    0  0.11440575765E+01  0.60255932416E-01 -0.22957391925E+01  0.25657196294E+01  0.51100000000E-03 0. -1.
        -11    1    3    3    0    0  0.26439055657E+02  0.51533233291E+01  0.46421473431E+01  0.27333677718E+02  0.51100000000E-03 0.  1.
        -12    1    3    3    0    0  0.15412115201E+02 -0.40167969591E+01 -0.81429985830E+01  0.17887883572E+02  0.00000000000E+00 0.  1.
</event>
<event>
 7    1  0.2318319E-009  0.4778727E+02  0.7816164E-02  0.1312668E+00
        -11   -1    0    0    0    0  0.00000000000E+00  0.00000000000E+00  0.45593999997E+02  0.45594000000E+02  0.51100000000E-03 0.  1.
         11   -1    0    0    0    0 -0.00000000000E+00 -0.00000000000E+00 -0.45593999997E+02  0.45594000000E+02  0.51100000000E-03 0. -1.
    9900012    2    1    2    0    0  0.16153254029E+02 -0.19608207693E+02  0.35188262270E+02  0.47787271593E+02  0.20000002502E+02 0.  0.
         12    1    1    2    0    0 -0.16153254029E+02  0.19608207693E+02 -0.35188262270E+02  0.43400728407E+02  0.00000000000E+00 0. -1.
         11    1    3    3    0    0  0.15362739312E+01 -0.99895826424E+01  0.18328890025E+02  0.20930841091E+02  0.51100000000E-03 0. -1.
        -11    1    3    3    0    0  0.86096181983E+01 -0.23365614780E+01  0.14663852676E+02  0.17164312413E+02  0.51100000000E-03 0.  1.
         12    1    3    3    0    0  0.60073618996E+01 -0.72820635730E+01  0.21955195690E+01  0.96921180890E+01  0.00000000000E+00 0. -1.
</event>
<event>
 7    1  0.2318319E-009  0.4778727E+02  0.7816164E-02  0.1312668E+00
        -11   -1    0    0    0    0  0.00000000000E+00  0.00000000000E+00  0.45593999997E+02  0.45594000000E+02  0.51100000000E-03 0.  1.
         11   -1    0    0    0    0 -0.00000000000E+00 -0.00000000000E+00 -0.45593999997E+02  0.45594000000E+02  0.51100000000E-03 0. -1.
    9900012    2    1    2    0    0  0.26896130989E+02  0.61559079921E+01  0.33501135849E+02  0.47787272258E+02  0.20000005532E+02 0.  0.
         12    1    1    2    0    0 -0.26896130989E+02 -0.61559079921E+01 -0.33501135849E+02  0.43400727742E+02  0.00000000000E+00 0. -1.
         11    1    3    3    0    0  0.24225412698E+01 -0.14649284345E+01 -0.10124293366E+00  0.28328381378E+01  0.51100000000E-03 0. -1.
        -11    1    3    3    0    0  0.14093176546E+02 -0.23001923347E+01  0.23127844017E+02  0.27180980098E+02  0.51100000000E-03 0.  1.
         12    1    3    3    0    0  0.10380413173E+02  0.99210287613E+01  0.10474534765E+02  0.17773454022E+02  0.00000000000E+00 0. -1.
</event>
<event>
 7    1  0.2318319E-009  0.4778727E+02  0.7816164E-02  0.1312668E+00
        -11   -1    0    0    0    0  0.00000000000E+00  0.00000000000E+00  0.45593999997E+02  0.45594000000E+02  0.51100000000E-03 0.  1.
         11   -1    0    0    0    0 -0.00000000000E+00 -0.00000000000E+00 -0.45593999997E+02  0.45594000000E+02  0.51100000000E-03 0. -1.
    9900012    2    1    2    0    0 -0.15427369275E+02  0.34900187481E+02  0.20678402765E+02  0.47787272473E+02  0.20000006514E+02 0.  0.
         12    1    1    2    0    0  0.15427369275E+02 -0.34900187481E+02 -0.20678402765E+02  0.43400727527E+02  0.00000000000E+00 0. -1.
         11    1    3    3    0    0 -0.11197891376E+01 -0.16180233862E+01 -0.50181358577E+00  0.20307005016E+01  0.51100000000E-03 0. -1.
        -11    1    3    3    0    0  0.97689429280E+00  0.50492797477E+01  0.62590696873E+00  0.51808597958E+01  0.51100000000E-03 0.  1.
        -12    1    3    3    0    0 -0.15284474430E+02  0.31468931120E+02  0.20554309382E+02  0.40575712176E+02  0.00000000000E+00 0.  1.
</event>
<event>
 7    1  0.2318319E-009  0.4778726E+02  0.7816164E-02  0.1312668E+00
        -11   -1    0    0    0    0  0.00000000000E+00  0.00000000000E+00  0.45593999997E+02  0.45594000000E+02  0.51100000000E-03 0.  1.
         11   -1    0    0    0    0 -0.00000000000E+00 -0.00000000000E+00 -0.45593999997E+02  0.45594000000E+02  0.51100000000E-03 0. -1.
    9900012    2    1    2    0    0 -0.32440561707E+02  0.22912163635E+02  0.17500487394E+02  0.47787258700E+02  0.19999943718E+02 0.  0.
         12    1    1    2    0    0  0.32440561707E+02 -0.22912163635E+02 -0.17500487394E+02  0.43400741300E+02  0.00000000000E+00 0. -1.
         11    1    3    3    0    0 -0.12070089199E+02  0.16155626728E+01 -0.31740445717E+00  0.12181865287E+02  0.51100000000E-03 0. -1.
        -11    1    3    3    0    0 -0.77274913789E+00  0.13776005124E+01  0.42662102959E+01  0.45492279512E+01  0.51100000000E-03 0.  1.
         12    1    3    3    0    0 -0.19597723371E+02  0.19919000450E+02  0.13551681556E+02  0.31056165462E+02  0.00000000000E+00 0. -1.
</event>
<event>
 7    1  0.2318319E-009  0.4778727E+02  0.7816164E-02  0.1312668E+00
        -11   -1    0    0    0    0  0.00000000000E+00  0.00000000000E+00  0.45593999997E+02  0.45594000000E+02  0.51100000000E-03 0.  1.
         11   -1    0    0    0    0 -0.00000000000E+00 -0.00000000000E+00 -0.45593999997E+02  0.45594000000E+02  0.51100000000E-03 0. -1.
    9900012    2    1    2    0    0  0.26863863125E+02 -0.32610649861E+02  0.99248029289E+01  0.47787270288E+02  0.19999996549E+02 0.  0.
         12    1    1    2    0    0 -0.26863863125E+02  0.32610649861E+02 -0.99248029289E+01  0.43400729712E+02  0.00000000000E+00 0. -1.
         11    1    3    3    0    0  0.96853746239E+01 -0.45490777363E+01  0.46654073436E+00  0.10710660595E+02  0.51100000000E-03 0. -1.
        -11    1    3    3    0    0  0.10413152742E+02 -0.10702811821E+02  0.10752646706E+02  0.18401177743E+02  0.51100000000E-03 0.  1.
        -12    1    3    3    0    0  0.67653357590E+01 -0.17358760304E+02 -0.12943845110E+01  0.18675431950E+02  0.00000000000E+00 0.  1.
</event>
<event>
 7    1  0.2318319E-009  0.4778727E+02  0.7816164E-02  0.1312668E+00
        -11   -1    0    0    0    0  0.00000000000E+00  0.00000000000E+00  0.45593999997E+02  0.45594000000E+02  0.51100000000E-03 0.  1.
         11   -1    0    0    0    0 -0.00000000000E+00 -0.00000000000E+00 -0.45593999997E+02  0.45594000000E+02  0.51100000000E-03 0. -1.
    9900012    2    1    2    0    0 -0.43174265772E+02 -0.30373041403E+01  0.32219025971E+01  0.47787273074E+02  0.20000009254E+02 0.  0.
         12    1    1    2    0    0  0.43174265772E+02  0.30373041403E+01 -0.32219025971E+01  0.43400726926E+02  0.00000000000E+00 0. -1.
         11    1    3    3    0    0 -0.32101694862E+02 -0.78438425950E+01  0.36613319082E-01  0.33046119598E+02  0.51100000000E-03 0. -1.
        -11    1    3    3    0    0 -0.89390477749E+01  0.55831531476E+00  0.41807424922E+01  0.98841741769E+01  0.51100000000E-03 0.  1.
         12    1    3    3    0    0 -0.21335231346E+01  0.42482231399E+01 -0.99545321415E+00  0.48569792993E+01  0.00000000000E+00 0. -1.
</event>
<event>
 7    1  0.2318319E-009  0.4778728E+02  0.7816164E-02  0.1312668E+00
        -11   -1    0    0    0    0  0.00000000000E+00  0.00000000000E+00  0.45593999997E+02  0.45594000000E+02  0.51100000000E-03 0.  1.
         11   -1    0    0    0    0 -0.00000000000E+00 -0.00000000000E+00 -0.45593999997E+02  0.45594000000E+02  0.51100000000E-03 0. -1.
    9900012    2    1    2    0    0  0.19701570791E+02  0.37087317911E+02 -0.10954501626E+02  0.47787284023E+02  0.20000059174E+02 0.  0.
         12    1    1    2    0    0 -0.19701570791E+02 -0.37087317911E+02  0.10954501626E+02  0.43400715977E+02  0.00000000000E+00 0. -1.
         11    1    3    3    0    0  0.13710284307E+02  0.93814869009E+01 -0.67519049249E+01  0.17932440231E+02  0.51100000000E-03 0.  1.
        -11    1    3    3    0    0  0.16813774308E+01  0.44435799785E+01  0.23578289903E+01  0.53039410723E+01  0.51100000000E-03 0. -1.
        -12    1    3    3    0    0  0.43099090529E+01  0.23262251032E+02 -0.65604256910E+01  0.24550902720E+02  0.00000000000E+00 0.  1.
</event>
<event>
 7    1  0.2318319E-009  0.4778728E+02  0.7816164E-02  0.1312668E+00
        -11   -1    0    0    0    0  0.00000000000E+00  0.00000000000E+00  0.45593999997E+02  0.45594000000E+02  0.51100000000E-03 0.  1.
         11   -1    0    0    0    0 -0.00000000000E+00 -0.00000000000E+00 -0.45593999997E+02  0.45594000000E+02  0.51100000000E-03 0. -1.
    9900012    2    1    2    0    0 -0.30571818743E+02  0.28464246348E+02  0.11780216850E+02  0.47787275000E+02  0.20000018037E+02 0.  0.
         12    1    1    2    0    0  0.30571818743E+02 -0.28464246348E+02 -0.11780216850E+02  0.43400725000E+02  0.00000000000E+00 0. -1.
         11    1    3    3    0    0 -0.29761545406E+02  0.18375225390E+02  0.48928130902E+01  0.35317674233E+02  0.51100000000E-03 0. -1.
        -11    1    3    3    0    0  0.56176089187E+00  0.73139246659E+00  0.81135256323E+00  0.12283336203E+01  0.51100000000E-03 0.  1.
         12    1    3    3    0    0 -0.13720342296E+01  0.93576284922E+01  0.60760511962E+01  0.11241267147E+02  0.00000000000E+00 0. -1.
</event>
<event>
 7    1  0.2318319E-009  0.4778727E+02  0.7816164E-02  0.1312668E+00
        -11   -1    0    0    0    0  0.00000000000E+00  0.00000000000E+00  0.45593999997E+02  0.45594000000E+02  0.51100000000E-03 0.  1.
         11   -1    0    0    0    0 -0.00000000000E+00 -0.00000000000E+00 -0.45593999997E+02  0.45594000000E+02  0.51100000000E-03 0. -1.
    9900012    2    1    2    0    0  0.56238335676E+00  0.40332560610E+02  0.16018471822E+02  0.47787272358E+02  0.20000005987E+02 0.  0.
         12    1    1    2    0    0 -0.56238335676E+00 -0.40332560610E+02 -0.16018471822E+02  0.43400727642E+02  0.00000000000E+00 0. -1.
         11    1    3    3    0    0 -0.96574783325E+00  0.11916265969E+02  0.12328375446E+01  0.12018733385E+02  0.51100000000E-03 0. -1.
        -11    1    3    3    0    0  0.72861700539E+01  0.23913233825E+02  0.94779604772E+01  0.26735047430E+02  0.51100000000E-03 0.  1.
         12    1    3    3    0    0 -0.57580388638E+01  0.45030608159E+01  0.53076737998E+01  0.90334915418E+01  0.00000000000E+00 0. -1.
</event>
<event>
 7    1  0.2318319E-009  0.4778728E+02  0.7816164E-02  0.1312668E+00
        -11   -1    0    0    0    0  0.00000000000E+00  0.00000000000E+00  0.45593999997E+02  0.45594000000E+02  0.51100000000E-03 0.  1.
         11   -1    0    0    0    0 -0.00000000000E+00 -0.00000000000E+00 -0.45593999997E+02  0.45594000000E+02  0.51100000000E-03 0. -1.
    9900012    2    1    2    0    0 -0.14738946004E+02 -0.25845619534E+02  0.31597315418E+02  0.47787275121E+02  0.20000018585E+02 0.  0.
         12    1    1    2    0    0  0.14738946004E+02  0.25845619534E+02 -0.31597315418E+02  0.43400724879E+02  0.00000000000E+00 0. -1.
         11    1    3    3    0    0 -0.45070447354E+01 -0.10128699607E+02  0.94701589356E+01  0.14580395005E+02  0.51100000000E-03 0. -1.
        -11    1    3    3    0    0 -0.11158622530E+01 -0.12425175788E+02  0.19527307227E+02  0.23172092476E+02  0.51100000000E-03 0.  1.
         12    1    3    3    0    0 -0.91160390156E+01 -0.32917441389E+01  0.25998492556E+01  0.10034787639E+02  0.00000000000E+00 0. -1.
</event>
<event>
 7    1  0.2318319E-009  0.4778727E+02  0.7816164E-02  0.1312668E+00
        -11   -1    0    0    0    0  0.00000000000E+00  0.00000000000E+00  0.45593999997E+02  0.45594000000E+02  0.51100000000E-03 0. -1.
         11   -1    0    0    0    0 -0.00000000000E+00 -0.00000000000E+00 -0.45593999997E+02  0.45594000000E+02  0.51100000000E-03 0.  1.
    9900012    2    1    2    0    0 -0.36307665847E+02 -0.22771948076E+02 -0.68421677032E+01  0.47787268701E+02  0.19999989316E+02 0.  0.
         12    1    1    2    0    0  0.36307665847E+02  0.22771948076E+02  0.68421677032E+01  0.43400731299E+02  0.00000000000E+00 0. -1.
         11    1    3    3    0    0 -0.17369409769E+01 -0.26852755836E+01 -0.67591282525E+01  0.74775319399E+01  0.51100000000E-03 0. -1.
        -11    1    3    3    0    0 -0.16438543272E+02 -0.10673611872E+02 -0.24113683530E+01  0.19747566759E+02  0.51100000000E-03 0.  1.
         12    1    3    3    0    0 -0.18132181597E+02 -0.94130606206E+01  0.23283289023E+01  0.20562170002E+02  0.00000000000E+00 0. -1.
</event>
<event>
 7    1  0.2318319E-009  0.4778722E+02  0.7816164E-02  0.1312668E+00
        -11   -1    0    0    0    0  0.00000000000E+00  0.00000000000E+00  0.45593999997E+02  0.45594000000E+02  0.51100000000E-03 0.  1.
         11   -1    0    0    0    0 -0.00000000000E+00 -0.00000000000E+00 -0.45593999997E+02  0.45594000000E+02  0.51100000000E-03 0. -1.
    9900012    2    1    2    0    0 -0.25524884470E+02  0.21725728317E+02  0.27569931430E+02  0.47787215247E+02  0.19999745594E+02 0.  0.
         12    1    1    2    0    0  0.25524884470E+02 -0.21725728317E+02 -0.27569931430E+02  0.43400784753E+02  0.00000000000E+00 0. -1.
         11    1    3    3    0    0 -0.49367385248E+00 -0.11930220430E+01  0.88811468150E+00  0.15670875586E+01  0.51100000000E-03 0. -1.
        -11    1    3    3    0    0 -0.25110469549E+02  0.19851655942E+02  0.17376521527E+02  0.36422073325E+02  0.51100000000E-03 0.  1.
        -12    1    3    3    0    0  0.79258931016E-01  0.30670944177E+01  0.93052952217E+01  0.97980543634E+01  0.00000000000E+00 0.  1.
</event>
<event>
 7    1  0.2318319E-009  0.4778727E+02  0.7816164E-02  0.1312668E+00
        -11   -1    0    0    0    0  0.00000000000E+00  0.00000000000E+00  0.45593999997E+02  0.45594000000E+02  0.51100000000E-03 0.  1.
         11   -1    0    0    0    0 -0.00000000000E+00 -0.00000000000E+00 -0.45593999997E+02  0.45594000000E+02  0.51100000000E-03 0. -1.
    9900012    2    1    2    0    0 -0.12238527851E+02 -0.35295152709E+01  0.41489568265E+02  0.47787270549E+02  0.19999997743E+02 0.  0.
         12    1    1    2    0    0  0.12238527851E+02  0.35295152709E+01 -0.41489568265E+02  0.43400729451E+02  0.00000000000E+00 0. -1.
         11    1    3    3    0    0 -0.53742974089E+01 -0.17963478178E+01  0.44038424655E+01  0.71766124908E+01  0.51100000000E-03 0. -1.
        -11    1    3    3    0    0  0.11217953141E+01  0.22253238581E+01  0.24014083353E-01  0.24922014239E+01  0.51100000000E-03 0.  1.
        -12    1    3    3    0    0 -0.79860257558E+01 -0.39584913112E+01  0.37061711717E+02  0.38118456635E+02  0.00000000000E+00 0.  1.
</event>
<event>
 7    1  0.2318319E-009  0.4778729E+02  0.7816164E-02  0.1312668E+00
        -11   -1    0    0    0    0  0.00000000000E+00  0.00000000000E+00  0.45593999997E+02  0.45594000000E+02  0.51100000000E-03 0. -1.
         11   -1    0    0    0    0 -0.00000000000E+00 -0.00000000000E+00 -0.45593999997E+02  0.45594000000E+02  0.51100000000E-03 0.  1.
    9900012    2    1    2    0    0  0.14575158076E+02 -0.40771727260E+02  0.29753434672E+01  0.47787289804E+02  0.20000085534E+02 0.  0.
         12    1    1    2    0    0 -0.14575158076E+02  0.40771727260E+02 -0.29753434672E+01  0.43400710196E+02  0.00000000000E+00 0. -1.
         11    1    3    3    0    0 -0.16258318843E+01 -0.17603188814E+01  0.30146249356E+01  0.38509759339E+01  0.51100000000E-03 0.  1.
        -11    1    3    3    0    0  0.21918942028E+01 -0.15375527742E+01 -0.27495958665E+01  0.38378048960E+01  0.51100000000E-03 0. -1.
        -12    1    3    3    0    0  0.14009095757E+02 -0.37473855605E+02  0.27103143981E+01  0.40098508974E+02  0.00000000000E+00 0.  1.
</event>
<event>
 7    1  0.2318319E-009  0.4778727E+02  0.7816164E-02  0.1312668E+00
        -11   -1    0    0    0    0  0.00000000000E+00  0.00000000000E+00  0.45593999997E+02  0.45594000000E+02  0.51100000000E-03 0.  1.
         11   -1    0    0    0    0 -0.00000000000E+00 -0.00000000000E+00 -0.45593999997E+02  0.45594000000E+02  0.51100000000E-03 0. -1.
    9900012    2    1    2    0    0 -0.31869035508E+02 -0.13782582544E+02 -0.26038975409E+02  0.47787271364E+02  0.20000001456E+02 0.  0.
         12    1    1    2    0    0  0.31869035508E+02  0.13782582544E+02  0.26038975409E+02  0.43400728636E+02  0.00000000000E+00 0. -1.
         11    1    3    3    0    0 -0.85547663026E+01 -0.47313036520E+01 -0.85253910045E+00  0.98130568080E+01  0.51100000000E-03 0. -1.
        -11    1    3    3    0    0  0.17531503051E+01 -0.54621300695E-01 -0.20226215604E+01  0.26772220148E+01  0.51100000000E-03 0.  1.
        -12    1    3    3    0    0 -0.25067419511E+02 -0.89966575918E+01 -0.23163814748E+02  0.35296992541E+02  0.00000000000E+00 0.  1.
</event>
<event>
 7    1  0.2318319E-009  0.4778727E+02  0.7816164E-02  0.1312668E+00
        -11   -1    0    0    0    0  0.00000000000E+00  0.00000000000E+00  0.45593999997E+02  0.45594000000E+02  0.51100000000E-03 0.  1.
         11   -1    0    0    0    0 -0.00000000000E+00 -0.00000000000E+00 -0.45593999997E+02  0.45594000000E+02  0.51100000000E-03 0. -1.
    9900012    2    1    2    0    0  0.32885326992E+02 -0.26944694771E+02 -0.87270867280E+01  0.47787270162E+02  0.19999995979E+02 0.  0.
         12    1    1    2    0    0 -0.32885326992E+02  0.26944694771E+02  0.87270867280E+01  0.43400729838E+02  0.00000000000E+00 0. -1.
         11    1    3    3    0    0  0.26545419258E+01  0.20233303908E+00  0.16095375792E+01  0.31109713876E+01  0.51100000000E-03 0. -1.
        -11    1    3    3    0    0  0.11364275849E+02 -0.90794371008E+01  0.37171500285E+01  0.15013332349E+02  0.51100000000E-03 0.  1.
         12    1    3    3    0    0  0.18866509217E+02 -0.18067590710E+02 -0.14053774336E+02  0.29662966426E+02  0.00000000000E+00 0. -1.
</event>
<event>
 7    1  0.2318319E-009  0.4778727E+02  0.7816164E-02  0.1312668E+00
        -11   -1    0    0    0    0  0.00000000000E+00  0.00000000000E+00  0.45593999997E+02  0.45594000000E+02  0.51100000000E-03 0.  1.
         11   -1    0    0    0    0 -0.00000000000E+00 -0.00000000000E+00 -0.45593999997E+02  0.45594000000E+02  0.51100000000E-03 0. -1.
    9900012    2    1    2    0    0 -0.12177219604E+02 -0.39833847210E+02  0.12190294217E+02  0.47787270353E+02  0.19999996848E+02 0.  0.
         12    1    1    2    0    0  0.12177219604E+02  0.39833847210E+02 -0.12190294217E+02  0.43400729647E+02  0.00000000000E+00 0. -1.
         11    1    3    3    0    0 -0.16890170631E+00 -0.51455900485E+01  0.56647566971E+01  0.76547431983E+01  0.51100000000E-03 0. -1.
        -11    1    3    3    0    0 -0.78149287871E+01 -0.32981648968E+02  0.88670354896E+01  0.35035504838E+02  0.51100000000E-03 0.  1.
         12    1    3    3    0    0 -0.41933891105E+01 -0.17066081931E+01 -0.23414979702E+01  0.50970223171E+01  0.00000000000E+00 0. -1.
</event>
<event>
 7    1  0.2318319E-009  0.4778727E+02  0.7816164E-02  0.1312668E+00
        -11   -1    0    0    0    0  0.00000000000E+00  0.00000000000E+00  0.45593999997E+02  0.45594000000E+02  0.51100000000E-03 0. -1.
         11   -1    0    0    0    0 -0.00000000000E+00 -0.00000000000E+00 -0.45593999997E+02  0.45594000000E+02  0.51100000000E-03 0.  1.
    9900012    2    1    2    0    0  0.10103218903E+01  0.28150339600E+02 -0.33017584163E+02  0.47787271506E+02  0.20000002102E+02 0.  0.
         12    1    1    2    0    0 -0.10103218903E+01 -0.28150339600E+02  0.33017584163E+02  0.43400728494E+02  0.00000000000E+00 0. -1.
         11    1    3    3    0    0  0.45087694553E+01  0.70550628638E+01 -0.47549288095E+01  0.96287206968E+01  0.51100000000E-03 0. -1.
        -11    1    3    3    0    0  0.13205040086E+01 -0.16988413863E+01 -0.38658735734E+01  0.44243385538E+01  0.51100000000E-03 0.  1.
         12    1    3    3    0    0 -0.48189515736E+01  0.22794118122E+02 -0.24396781780E+02  0.33734212255E+02  0.00000000000E+00 0. -1.
</event>
<event>
 7    1  0.2318319E-009  0.4778727E+02  0.7816164E-02  0.1312668E+00
        -11   -1    0    0    0    0  0.00000000000E+00  0.00000000000E+00  0.45593999997E+02  0.45594000000E+02  0.51100000000E-03 0.  1.
         11   -1    0    0    0    0 -0.00000000000E+00 -0.00000000000E+00 -0.45593999997E+02  0.45594000000E+02  0.51100000000E-03 0. -1.
    9900012    2    1    2    0    0  0.12957606377E+02 -0.12683265575E+02  0.39431694663E+02  0.47787270367E+02  0.19999996913E+02 0.  0.
         12    1    1    2    0    0 -0.12957606377E+02  0.12683265575E+02 -0.39431694663E+02  0.43400729633E+02  0.00000000000E+00 0. -1.
         11    1    3    3    0    0  0.11368000763E+01  0.22304209346E+01  0.22577155275E+00  0.25135761405E+01  0.51100000000E-03 0. -1.
        -11    1    3    3    0    0  0.12264245322E+01 -0.61475837126E+01  0.38960720599E+01  0.73808048608E+01  0.51100000000E-03 0.  1.
        -12    1    3    3    0    0  0.10594381769E+02 -0.87661027965E+01  0.35309851050E+02  0.37892889366E+02  0.00000000000E+00 0.  1.
</event>
<event>
 7    1  0.2318319E-009  0.4778728E+02  0.7816164E-02  0.1312668E+00
        -11   -1    0    0    0    0  0.00000000000E+00  0.00000000000E+00  0.45593999997E+02  0.45594000000E+02  0.51100000000E-03 0.  1.
         11   -1    0    0    0    0 -0.00000000000E+00 -0.00000000000E+00 -0.45593999997E+02  0.45594000000E+02  0.51100000000E-03 0. -1.
    9900012    2    1    2    0    0  0.22167576241E+02 -0.37306785838E+02  0.65192212892E+00  0.47787277559E+02  0.20000029701E+02 0.  0.
         12    1    1    2    0    0 -0.22167576241E+02  0.37306785838E+02 -0.65192212892E+00  0.43400722441E+02  0.00000000000E+00 0. -1.
         11    1    3    3    0    0 -0.13310256279E+00 -0.18885587243E+01 -0.26097429488E+01  0.32241477738E+01  0.51100000000E-03 0. -1.
        -11    1    3    3    0    0  0.16041521440E+02 -0.27793700377E+02 -0.39647764550E+01  0.32334805448E+02  0.51100000000E-03 0.  1.
        -12    1    3    3    0    0  0.62591573636E+01 -0.76245267374E+01  0.72264415327E+01  0.12228324337E+02  0.00000000000E+00 0.  1.
</event>
<event>
 7    1  0.2318319E-009  0.4778727E+02  0.7816164E-02  0.1312668E+00
        -11   -1    0    0    0    0  0.00000000000E+00  0.00000000000E+00  0.45593999997E+02  0.45594000000E+02  0.51100000000E-03 0.  1.
         11   -1    0    0    0    0 -0.00000000000E+00 -0.00000000000E+00 -0.45593999997E+02  0.45594000000E+02  0.51100000000E-03 0. -1.
    9900012    2    1    2    0    0 -0.30781620616E+02  0.86414756271E+01  0.29350297085E+02  0.47787271806E+02  0.20000003474E+02 0.  0.
         12    1    1    2    0    0  0.30781620616E+02 -0.86414756271E+01 -0.29350297085E+02  0.43400728194E+02  0.00000000000E+00 0. -1.
         11    1    3    3    0    0 -0.19534367133E+02  0.99407578300E+01  0.13500158186E+02  0.25742269457E+02  0.51100000000E-03 0. -1.
        -11    1    3    3    0    0 -0.33742342297E-02  0.26619068511E+01  0.67285880279E+00  0.27456326591E+01  0.51100000000E-03 0.  1.
        -12    1    3    3    0    0 -0.11243879248E+02 -0.39611890540E+01  0.15177280097E+02  0.19299369690E+02  0.00000000000E+00 0.  1.
</event>
<event>
 7    1  0.2318319E-009  0.4778727E+02  0.7816164E-02  0.1312668E+00
        -11   -1    0    0    0    0  0.00000000000E+00  0.00000000000E+00  0.45593999997E+02  0.45594000000E+02  0.51100000000E-03 0. -1.
         11   -1    0    0    0    0 -0.00000000000E+00 -0.00000000000E+00 -0.45593999997E+02  0.45594000000E+02  0.51100000000E-03 0.  1.
    9900012    2    1    2    0    0  0.24549124987E+02 -0.21632016499E+02 -0.28513499816E+02  0.47787270200E+02  0.19999996151E+02 0.  0.
         12    1    1    2    0    0 -0.24549124987E+02  0.21632016499E+02  0.28513499816E+02  0.43400729800E+02  0.00000000000E+00 0. -1.
         11    1    3    3    0    0 -0.86309855596E+00  0.38617858230E+00 -0.31336745628E+00  0.99612872588E+00  0.51100000000E-03 0. -1.
        -11    1    3    3    0    0  0.15061688438E+02 -0.93798472742E+01 -0.24137676458E+02  0.29957693812E+02  0.51100000000E-03 0.  1.
        -12    1    3    3    0    0  0.10350535105E+02 -0.12638347807E+02 -0.40624559014E+01  0.16833447662E+02  0.00000000000E+00 0.  1.
</event>
<event>
 7    1  0.2318319E-009  0.4778727E+02  0.7816164E-02  0.1312668E+00
        -11   -1    0    0    0    0  0.00000000000E+00  0.00000000000E+00  0.45593999997E+02  0.45594000000E+02  0.51100000000E-03 0.  1.
         11   -1    0    0    0    0 -0.00000000000E+00 -0.00000000000E+00 -0.45593999997E+02  0.45594000000E+02  0.51100000000E-03 0. -1.
    9900012    2    1    2    0    0 -0.20352221792E+02  0.47572195235E+01  0.38036553872E+02  0.47787268441E+02  0.19999988129E+02 0.  0.
         12    1    1    2    0    0  0.20352221792E+02 -0.47572195235E+01 -0.38036553872E+02  0.43400731559E+02  0.00000000000E+00 0. -1.
         11    1    3    3    0    0 -0.73763653453E+01  0.27723761257E+01  0.16762452000E+02  0.18522327942E+02  0.51100000000E-03 0. -1.
        -11    1    3    3    0    0 -0.50782064685E+01  0.22819069185E+01  0.20593128897E+02  0.21332422229E+02  0.51100000000E-03 0.  1.
         12    1    3    3    0    0 -0.78976499778E+01 -0.29706352078E+00  0.68097297489E+00  0.79325182697E+01  0.00000000000E+00 0. -1.
</event>
<event>
 7    1  0.2318319E-009  0.4778727E+02  0.7816164E-02  0.1312668E+00
        -11   -1    0    0    0    0  0.00000000000E+00  0.00000000000E+00  0.45593999997E+02  0.45594000000E+02  0.51100000000E-03 0.  1.
         11   -1    0    0    0    0 -0.00000000000E+00 -0.00000000000E+00 -0.45593999997E+02  0.45594000000E+02  0.51100000000E-03 0. -1.
    9900012    2    1    2    0    0 -0.24235862109E+02  0.18356500614E+02  0.30972326544E+02  0.47787272604E+02  0.20000007112E+02 0.  0.
         12    1    1    2    0    0  0.24235862109E+02 -0.18356500614E+02 -0.30972326544E+02  0.43400727396E+02  0.00000000000E+00 0. -1.
         11    1    3    3    0    0 -0.14274837917E+01  0.18786959658E+01  0.11977198798E+02  0.12207395292E+02  0.51100000000E-03 0. -1.
        -11    1    3    3    0    0 -0.15126317779E+02  0.10391792091E+02  0.18038008611E+02  0.25732558896E+02  0.51100000000E-03 0.  1.
        -12    1    3    3    0    0 -0.76820605384E+01  0.60860125569E+01  0.95711913462E+00  0.98473184165E+01  0.00000000000E+00 0.  1.
</event>
<event>
 7    1  0.2318319E-009  0.4778727E+02  0.7816164E-02  0.1312668E+00
        -11   -1    0    0    0    0  0.00000000000E+00  0.00000000000E+00  0.45593999997E+02  0.45594000000E+02  0.51100000000E-03 0.  1.
         11   -1    0    0    0    0 -0.00000000000E+00 -0.00000000000E+00 -0.45593999997E+02  0.45594000000E+02  0.51100000000E-03 0. -1.
    9900012    2    1    2    0    0 -0.22480754287E+02  0.13317140634E+02  0.34653898399E+02  0.47787271640E+02  0.20000002714E+02 0.  0.
         12    1    1    2    0    0  0.22480754287E+02 -0.13317140634E+02 -0.34653898399E+02  0.43400728360E+02  0.00000000000E+00 0. -1.
         11    1    3    3    0    0 -0.11224612183E+02  0.42919853023E+01  0.69152967445E+01  0.13864861551E+02  0.51100000000E-03 0. -1.
        -11    1    3    3    0    0 -0.64272568103E+01  0.64156260291E+01  0.46736953774E+01  0.10213389065E+02  0.51100000000E-03 0.  1.
        -12    1    3    3    0    0 -0.48288852943E+01  0.26095293026E+01  0.23064906277E+02  0.23709021024E+02  0.00000000000E+00 0.  1.
</event>
<event>
 7    1  0.2318319E-009  0.4778727E+02  0.7816164E-02  0.1312668E+00
        -11   -1    0    0    0    0  0.00000000000E+00  0.00000000000E+00  0.45593999997E+02  0.45594000000E+02  0.51100000000E-03 0. -1.
         11   -1    0    0    0    0 -0.00000000000E+00 -0.00000000000E+00 -0.45593999997E+02  0.45594000000E+02  0.51100000000E-03 0.  1.
    9900012    2    1    2    0    0 -0.37776249358E+02 -0.21223350483E+02 -0.24793957454E+01  0.47787273917E+02  0.20000013096E+02 0.  0.
         12    1    1    2    0    0  0.37776249358E+02  0.21223350483E+02  0.24793957454E+01  0.43400726083E+02  0.00000000000E+00 0. -1.
         11    1    3    3    0    0 -0.20587050257E+01 -0.21458044419E+01  0.38114651730E+01  0.48342538320E+01  0.51100000000E-03 0. -1.
        -11    1    3    3    0    0 -0.22828918989E+02 -0.15155521034E+02  0.14051294578E+01  0.27437633810E+02  0.51100000000E-03 0.  1.
        -12    1    3    3    0    0 -0.12888625343E+02 -0.39220250068E+01 -0.76959903762E+01  0.15515386275E+02  0.00000000000E+00 0.  1.
</event>
<event>
 7    1  0.2318319E-009  0.4778728E+02  0.7816164E-02  0.1312668E+00
        -11   -1    0    0    0    0  0.00000000000E+00  0.00000000000E+00  0.45593999997E+02  0.45594000000E+02  0.51100000000E-03 0.  1.
         11   -1    0    0    0    0 -0.00000000000E+00 -0.00000000000E+00 -0.45593999997E+02  0.45594000000E+02  0.51100000000E-03 0. -1.
    9900012    2    1    2    0    0 -0.13195843985E+01 -0.26591603373E+02  0.34274892262E+02  0.47787275207E+02  0.20000018980E+02 0.  0.
         12    1    1    2    0    0  0.13195843985E+01  0.26591603373E+02 -0.34274892262E+02  0.43400724793E+02  0.00000000000E+00 0. -1.
         11    1    3    3    0    0  0.14034837859E+00 -0.69514118334E+01  0.14530447711E+01  0.71030390336E+01  0.51100000000E-03 0. -1.
        -11    1    3    3    0    0  0.35250909704E+00  0.20699211414E+01  0.43822842871E+01  0.48593468727E+01  0.51100000000E-03 0.  1.
        -12    1    3    3    0    0 -0.18124418741E+01 -0.21710112681E+02  0.28439563204E+02  0.35824889301E+02  0.00000000000E+00 0.  1.
</event>
<event>
 7    1  0.2318319E-009  0.4778728E+02  0.7816164E-02  0.1312668E+00
        -11   -1    0    0    0    0  0.00000000000E+00  0.00000000000E+00  0.45593999997E+02  0.45594000000E+02  0.51100000000E-03 0.  1.
         11   -1    0    0    0    0 -0.00000000000E+00 -0.00000000000E+00 -0.45593999997E+02  0.45594000000E+02  0.51100000000E-03 0. -1.
    9900012    2    1    2    0    0  0.40087003096E+02  0.62472077442E+01  0.15415170697E+02  0.47787275243E+02  0.20000019142E+02 0.  0.
         12    1    1    2    0    0 -0.40087003096E+02 -0.62472077442E+01 -0.15415170697E+02  0.43400724757E+02  0.00000000000E+00 0. -1.
         11    1    3    3    0    0  0.12020295157E+02  0.25919697447E+01  0.67002321633E+01  0.14003532202E+02  0.51100000000E-03 0.  1.
        -11    1    3    3    0    0 -0.11047617349E+01  0.28574552957E+01 -0.65728320829E+00  0.31333002944E+01  0.51100000000E-03 0. -1.
         12    1    3    3    0    0  0.29171469674E+02  0.79778270386E+00  0.93722217422E+01  0.30650442747E+02  0.00000000000E+00 0. -1.
</event>
<event>
 7    1  0.2318319E-009  0.4778727E+02  0.7816164E-02  0.1312668E+00
        -11   -1    0    0    0    0  0.00000000000E+00  0.00000000000E+00  0.45593999997E+02  0.45594000000E+02  0.51100000000E-03 0. -1.
         11   -1    0    0    0    0 -0.00000000000E+00 -0.00000000000E+00 -0.45593999997E+02  0.45594000000E+02  0.51100000000E-03 0.  1.
    9900012    2    1    2    0    0 -0.24329522072E+02 -0.35880635788E+02 -0.20682438907E+01  0.47787270725E+02  0.19999998544E+02 0.  0.
         12    1    1    2    0    0  0.24329522072E+02  0.35880635788E+02  0.20682438907E+01  0.43400729275E+02  0.00000000000E+00 0. -1.
         11    1    3    3    0    0 -0.88733192781E+01 -0.20101245242E+02  0.50405062163E+00  0.21978396725E+02  0.51100000000E-03 0. -1.
        -11    1    3    3    0    0 -0.11970911492E+02 -0.11005583862E+02  0.42250380487E+01  0.16801087610E+02  0.51100000000E-03 0.  1.
         12    1    3    3    0    0 -0.34852913014E+01 -0.47738066837E+01 -0.67973325611E+01  0.90077863904E+01  0.00000000000E+00 0. -1.
</event>
<event>
 7    1  0.2318319E-009  0.4778727E+02  0.7816164E-02  0.1312668E+00
        -11   -1    0    0    0    0  0.00000000000E+00  0.00000000000E+00  0.45593999997E+02  0.45594000000E+02  0.51100000000E-03 0.  1.
         11   -1    0    0    0    0 -0.00000000000E+00 -0.00000000000E+00 -0.45593999997E+02  0.45594000000E+02  0.51100000000E-03 0. -1.
    9900012    2    1    2    0    0 -0.61238606333E+01 -0.41811240518E+02 -0.98965446484E+01  0.47787273062E+02  0.20000009200E+02 0.  0.
         12    1    1    2    0    0  0.61238606333E+01  0.41811240518E+02  0.98965446484E+01  0.43400726938E+02  0.00000000000E+00 0. -1.
         11    1    3    3    0    0 -0.49013696359E+01 -0.15240671369E+01  0.14476426788E+01  0.53330923986E+01  0.51100000000E-03 0. -1.
        -11    1    3    3    0    0  0.10270009687E+01 -0.44845001015E+01  0.61156723737E+00  0.46410652761E+01  0.51100000000E-03 0.  1.
         12    1    3    3    0    0 -0.22494919661E+01 -0.35802673280E+02 -0.11955754565E+02  0.37813115388E+02  0.00000000000E+00 0. -1.
</event>
<event>
 7    1  0.2318319E-009  0.4778727E+02  0.7816164E-02  0.1312668E+00
        -11   -1    0    0    0    0  0.00000000000E+00  0.00000000000E+00  0.45593999997E+02  0.45594000000E+02  0.51100000000E-03 0.  1.
         11   -1    0    0    0    0 -0.00000000000E+00 -0.00000000000E+00 -0.45593999997E+02  0.45594000000E+02  0.51100000000E-03 0. -1.
    9900012    2    1    2    0    0 -0.26094523959E+02  0.34375844648E+02  0.45825871565E+01  0.47787274419E+02  0.20000015387E+02 0.  0.
         12    1    1    2    0    0  0.26094523959E+02 -0.34375844648E+02 -0.45825871565E+01  0.43400725581E+02  0.00000000000E+00 0. -1.
         11    1    3    3    0    0 -0.15089039236E+02  0.16233212884E+02 -0.40878528242E+00  0.22166718550E+02  0.51100000000E-03 0. -1.
        -11    1    3    3    0    0 -0.13631598922E+02  0.17722068348E+02  0.51927614002E+01  0.22953365046E+02  0.51100000000E-03 0.  1.
         12    1    3    3    0    0  0.26261141994E+01  0.42056341565E+00 -0.20138896128E+00  0.26671908234E+01  0.00000000000E+00 0. -1.
</event>
<event>
 7    1  0.2318319E-009  0.4778727E+02  0.7816164E-02  0.1312668E+00
        -11   -1    0    0    0    0  0.00000000000E+00  0.00000000000E+00  0.45593999997E+02  0.45594000000E+02  0.51100000000E-03 0.  1.
         11   -1    0    0    0    0 -0.00000000000E+00 -0.00000000000E+00 -0.45593999997E+02  0.45594000000E+02  0.51100000000E-03 0. -1.
    9900012    2    1    2    0    0  0.31776176812E+01 -0.11451671000E+02  0.41741885227E+02  0.47787274141E+02  0.20000014119E+02 0.  0.
         12    1    1    2    0    0 -0.31776176812E+01  0.11451671000E+02 -0.41741885227E+02  0.43400725859E+02  0.00000000000E+00 0. -1.
         11    1    3    3    0    0 -0.15084137989E+01 -0.10414147689E+02  0.27644784179E+02  0.29579788316E+02  0.51100000000E-03 0.  1.
        -11    1    3    3    0    0  0.61504051638E+01 -0.26538824994E+01  0.14515585532E+02  0.15986644413E+02  0.51100000000E-03 0. -1.
         12    1    3    3    0    0 -0.14643736836E+01  0.16163591884E+01 -0.41848448436E+00  0.22208414115E+01  0.00000000000E+00 0. -1.
</event>
<event>
 7    1  0.2318319E-009  0.4778727E+02  0.7816164E-02  0.1312668E+00
        -11   -1    0    0    0    0  0.00000000000E+00  0.00000000000E+00  0.45593999997E+02  0.45594000000E+02  0.51100000000E-03 0.  1.
         11   -1    0    0    0    0 -0.00000000000E+00 -0.00000000000E+00 -0.45593999997E+02  0.45594000000E+02  0.51100000000E-03 0. -1.
    9900012    2    1    2    0    0  0.40840696003E+02  0.19497808417E+01  0.14555382955E+02  0.47787271108E+02  0.20000000291E+02 0.  0.
         12    1    1    2    0    0 -0.40840696003E+02 -0.19497808417E+01 -0.14555382955E+02  0.43400728892E+02  0.00000000000E+00 0. -1.
         11    1    3    3    0    0  0.65575144239E+01  0.46186388636E+01  0.25081085099E+01  0.84037746835E+01  0.51100000000E-03 0. -1.
        -11    1    3    3    0    0  0.29616526590E+01  0.25401114753E+01 -0.23125738527E+01  0.45355871577E+01  0.51100000000E-03 0.  1.
        -12    1    3    3    0    0  0.31321528921E+02 -0.52089694972E+01  0.14359848298E+02  0.34847909267E+02  0.00000000000E+00 0.  1.
</event>
<event>
 7    1  0.2318319E-009  0.4778730E+02  0.7816164E-02  0.1312668E+00
        -11   -1    0    0    0    0  0.00000000000E+00  0.00000000000E+00  0.45593999997E+02  0.45594000000E+02  0.51100000000E-03 0.  1.
         11   -1    0    0    0    0 -0.00000000000E+00 -0.00000000000E+00 -0.45593999997E+02  0.45594000000E+02  0.51100000000E-03 0. -1.
    9900012    2    1    2    0    0  0.17901053176E+02  0.45503255656E+01  0.39274262547E+02  0.47787298783E+02  0.20000126469E+02 0.  0.
         12    1    1    2    0    0 -0.17901053176E+02 -0.45503255656E+01 -0.39274262547E+02  0.43400701217E+02  0.00000000000E+00 0. -1.
         11    1    3    3    0    0  0.87817788085E+01  0.49210898854E+01  0.92028070931E+01  0.13639223708E+02  0.51100000000E-03 0. -1.
        -11    1    3    3    0    0  0.11515284267E+02 -0.34094689626E+01  0.19625621063E+02  0.23008503922E+02  0.51100000000E-03 0.  1.
         12    1    3    3    0    0 -0.23960098997E+01  0.30387046428E+01  0.10445834391E+02  0.11139571153E+02  0.00000000000E+00 0. -1.
</event>
<event>
 7    1  0.2318319E-009  0.4778727E+02  0.7816164E-02  0.1312668E+00
        -11   -1    0    0    0    0  0.00000000000E+00  0.00000000000E+00  0.45593999997E+02  0.45594000000E+02  0.51100000000E-03 0. -1.
         11   -1    0    0    0    0 -0.00000000000E+00 -0.00000000000E+00 -0.45593999997E+02  0.45594000000E+02  0.51100000000E-03 0.  1.
    9900012    2    1    2    0    0  0.31452865205E+02  0.26477812924E+02  0.13902023595E+02  0.47787267669E+02  0.19999984609E+02 0.  0.
         12    1    1    2    0    0 -0.31452865205E+02 -0.26477812924E+02 -0.13902023595E+02  0.43400732331E+02  0.00000000000E+00 0. -1.
         11    1    3    3    0    0  0.83634724046E+01  0.83014707811E+01  0.12503585805E+02  0.17181436088E+02  0.51100000000E-03 0. -1.
        -11    1    3    3    0    0  0.62086157695E+01  0.73801231986E+00  0.10020831423E+01  0.63321199328E+01  0.51100000000E-03 0.  1.
        -12    1    3    3    0    0  0.16880777031E+02  0.17438329823E+02  0.39635464785E+00  0.24273711648E+02  0.00000000000E+00 0.  1.
</event>
<event>
 7    1  0.2318319E-009  0.4778727E+02  0.7816164E-02  0.1312668E+00
        -11   -1    0    0    0    0  0.00000000000E+00  0.00000000000E+00  0.45593999997E+02  0.45594000000E+02  0.51100000000E-03 0. -1.
         11   -1    0    0    0    0 -0.00000000000E+00 -0.00000000000E+00 -0.45593999997E+02  0.45594000000E+02  0.51100000000E-03 0.  1.
    9900012    2    1    2    0    0  0.31080572604E+02  0.26337469815E+02 -0.14965259130E+02  0.47787270853E+02  0.19999999126E+02 0.  0.
         12    1    1    2    0    0 -0.31080572604E+02 -0.26337469815E+02  0.14965259130E+02  0.43400729147E+02  0.00000000000E+00 0. -1.
         11    1    3    3    0    0  0.15489036221E+02  0.23865608199E+01 -0.46286440079E+01  0.16341060591E+02  0.51100000000E-03 0. -1.
        -11    1    3    3    0    0 -0.45547478030E-01  0.25150239366E+01  0.84431025229E+00  0.26533526034E+01  0.51100000000E-03 0.  1.
        -12    1    3    3    0    0  0.15637083861E+02  0.21435885058E+02 -0.11180925375E+02  0.28792857659E+02  0.00000000000E+00 0.  1.
</event>
<event>
 7    1  0.2318319E-009  0.4778727E+02  0.7816164E-02  0.1312668E+00
        -11   -1    0    0    0    0  0.00000000000E+00  0.00000000000E+00  0.45593999997E+02  0.45594000000E+02  0.51100000000E-03 0.  1.
         11   -1    0    0    0    0 -0.00000000000E+00 -0.00000000000E+00 -0.45593999997E+02  0.45594000000E+02  0.51100000000E-03 0. -1.
    9900012    2    1    2    0    0  0.26132070243E+02 -0.28065468021E+02  0.20324063892E+02  0.47787272316E+02  0.20000005799E+02 0.  0.
         12    1    1    2    0    0 -0.26132070243E+02  0.28065468021E+02 -0.20324063892E+02  0.43400727684E+02  0.00000000000E+00 0. -1.
         11    1    3    3    0    0  0.60520573982E+01 -0.67675167682E+01  0.14336249940E+02  0.16969229345E+02  0.51100000000E-03 0. -1.
        -11    1    3    3    0    0  0.11325452462E+02 -0.10365948044E+02  0.67945797454E+01  0.16789433179E+02  0.51100000000E-03 0.  1.
        -12    1    3    3    0    0  0.87545603828E+01 -0.10932003209E+02 -0.80676579354E+00  0.14028609792E+02  0.00000000000E+00 0.  1.
</event>
<event>
 7    1  0.2318319E-009  0.4778727E+02  0.7816164E-02  0.1312668E+00
        -11   -1    0    0    0    0  0.00000000000E+00  0.00000000000E+00  0.45593999997E+02  0.45594000000E+02  0.51100000000E-03 0.  1.
         11   -1    0    0    0    0 -0.00000000000E+00 -0.00000000000E+00 -0.45593999997E+02  0.45594000000E+02  0.51100000000E-03 0. -1.
    9900012    2    1    2    0    0 -0.11153016103E+02  0.20604543011E+02  0.36533359088E+02  0.47787270892E+02  0.19999999304E+02 0.  0.
         12    1    1    2    0    0  0.11153016103E+02 -0.20604543011E+02 -0.36533359088E+02  0.43400729108E+02  0.00000000000E+00 0. -1.
         11    1    3    3    0    0 -0.15546235439E+01  0.12480995298E+02  0.15060151714E+02  0.19621423697E+02  0.51100000000E-03 0. -1.
        -11    1    3    3    0    0  0.28252916548E+01 -0.76582878167E+00  0.29497354348E+01  0.41556835845E+01  0.51100000000E-03 0.  1.
        -12    1    3    3    0    0 -0.12423684214E+02  0.88893764943E+01  0.18523471939E+02  0.24010163610E+02  0.00000000000E+00 0.  1.
</event>
<event>
 7    1  0.2318319E-009  0.4778727E+02  0.7816164E-02  0.1312668E+00
        -11   -1    0    0    0    0  0.00000000000E+00  0.00000000000E+00  0.45593999997E+02  0.45594000000E+02  0.51100000000E-03 0.  1.
         11   -1    0    0    0    0 -0.00000000000E+00 -0.00000000000E+00 -0.45593999997E+02  0.45594000000E+02  0.51100000000E-03 0. -1.
    9900012    2    1    2    0    0 -0.11306584348E+02  0.32693006580E+02  0.26209768306E+02  0.47787268629E+02  0.19999988989E+02 0.  0.
         12    1    1    2    0    0  0.11306584348E+02 -0.32693006580E+02 -0.26209768306E+02  0.43400731371E+02  0.00000000000E+00 0. -1.
         11    1    3    3    0    0 -0.66545786144E+01  0.25455079557E+01  0.32673584789E+01  0.78382816343E+01  0.51100000000E-03 0. -1.
        -11    1    3    3    0    0  0.20392457736E+01  0.14533558484E+01  0.46131990051E+01  0.52490353274E+01  0.51100000000E-03 0.  1.
        -12    1    3    3    0    0 -0.66912515071E+01  0.28694142776E+02  0.18329210822E+02  0.34699951668E+02  0.00000000000E+00 0.  1.
</event>
<event>
 7    1  0.2318319E-009  0.4778728E+02  0.7816164E-02  0.1312668E+00
        -11   -1    0    0    0    0  0.00000000000E+00  0.00000000000E+00  0.45593999997E+02  0.45594000000E+02  0.51100000000E-03 0.  1.
         11   -1    0    0    0    0 -0.00000000000E+00 -0.00000000000E+00 -0.45593999997E+02  0.45594000000E+02  0.51100000000E-03 0. -1.
    9900012    2    1    2    0    0  0.34100653433E+02 -0.69413571416E+00  0.26838153823E+02  0.47787275472E+02  0.20000020186E+02 0.  0.
         12    1    1    2    0    0 -0.34100653433E+02  0.69413571416E+00 -0.26838153823E+02  0.43400724528E+02  0.00000000000E+00 0. -1.
         11    1    3    3    0    0  0.54791072883E+01  0.96554776019E+00  0.12507625199E+00  0.55649387673E+01  0.51100000000E-03 0. -1.
        -11    1    3    3    0    0  0.15884020710E+02 -0.87278438676E+01  0.15228017585E+02  0.23672133244E+02  0.51100000000E-03 0.  1.
        -12    1    3    3    0    0  0.12737525435E+02  0.70681603932E+01  0.11485059986E+02  0.18550203461E+02  0.00000000000E+00 0.  1.
</event>
<event>
 7    1  0.2318319E-009  0.4778727E+02  0.7816164E-02  0.1312668E+00
        -11   -1    0    0    0    0  0.00000000000E+00  0.00000000000E+00  0.45593999997E+02  0.45594000000E+02  0.51100000000E-03 0.  1.
         11   -1    0    0    0    0 -0.00000000000E+00 -0.00000000000E+00 -0.45593999997E+02  0.45594000000E+02  0.51100000000E-03 0. -1.
    9900012    2    1    2    0    0  0.22339571396E+02  0.20330371094E+01  0.37154191512E+02  0.47787266861E+02  0.19999980928E+02 0.  0.
         12    1    1    2    0    0 -0.22339571396E+02 -0.20330371094E+01 -0.37154191512E+02  0.43400733139E+02  0.00000000000E+00 0. -1.
         11    1    3    3    0    0  0.51403827996E+01  0.28169770051E+01  0.23420146972E+01  0.63122046764E+01  0.51100000000E-03 0. -1.
        -11    1    3    3    0    0  0.49534231180E+01  0.50306703080E+01  0.20857377339E+02  0.22019859992E+02  0.51100000000E-03 0.  1.
         12    1    3    3    0    0  0.12245765478E+02 -0.58146102037E+01  0.13954799476E+02  0.19455202193E+02  0.00000000000E+00 0. -1.
</event>
<event>
 7    1  0.2318319E-009  0.4778727E+02  0.7816164E-02  0.1312668E+00
        -11   -1    0    0    0    0  0.00000000000E+00  0.00000000000E+00  0.45593999997E+02  0.45594000000E+02  0.51100000000E-03 0.  1.
         11   -1    0    0    0    0 -0.00000000000E+00 -0.00000000000E+00 -0.45593999997E+02  0.45594000000E+02  0.51100000000E-03 0. -1.
    9900012    2    1    2    0    0 -0.70402504819E+01  0.82172408731E+01  0.42030167314E+02  0.47787272600E+02  0.20000007093E+02 0.  0.
         12    1    1    2    0    0  0.70402504819E+01 -0.82172408731E+01 -0.42030167314E+02  0.43400727400E+02  0.00000000000E+00 0. -1.
         11    1    3    3    0    0 -0.25281875110E+01  0.98633355595E+00  0.57812038423E+01  0.63864625656E+01  0.51100000000E-03 0. -1.
        -11    1    3    3    0    0  0.53561158353E+01  0.33596882977E+00  0.32486992808E+01  0.62733483224E+01  0.51100000000E-03 0.  1.
        -12    1    3    3    0    0 -0.98681788062E+01  0.68949384874E+01  0.33000264191E+02  0.35127461712E+02  0.00000000000E+00 0.  1.
</event>
<event>
 7    1  0.2318319E-009  0.4778727E+02  0.7816164E-02  0.1312668E+00
        -11   -1    0    0    0    0  0.00000000000E+00  0.00000000000E+00  0.45593999997E+02  0.45594000000E+02  0.51100000000E-03 0.  1.
         11   -1    0    0    0    0 -0.00000000000E+00 -0.00000000000E+00 -0.45593999997E+02  0.45594000000E+02  0.51100000000E-03 0. -1.
    9900012    2    1    2    0    0 -0.18809024965E+02  0.36437920631E+02  0.14216954953E+02  0.47787270879E+02  0.19999999247E+02 0.  0.
         12    1    1    2    0    0  0.18809024965E+02 -0.36437920631E+02 -0.14216954953E+02  0.43400729121E+02  0.00000000000E+00 0. -1.
         11    1    3    3    0    0  0.20275985526E+01  0.69520670532E+01  0.11748071853E+01  0.73363863302E+01  0.51100000000E-03 0. -1.
        -11    1    3    3    0    0 -0.47346167773E+01  0.31227529644E+01  0.69393317772E+01  0.89622825150E+01  0.51100000000E-03 0.  1.
         12    1    3    3    0    0 -0.16102006740E+02  0.26363100614E+02  0.61028159910E+01  0.31488602034E+02  0.00000000000E+00 0. -1.
</event>
<event>
 7    1  0.2318319E-009  0.4778727E+02  0.7816164E-02  0.1312668E+00
        -11   -1    0    0    0    0  0.00000000000E+00  0.00000000000E+00  0.45593999997E+02  0.45594000000E+02  0.51100000000E-03 0.  1.
         11   -1    0    0    0    0 -0.00000000000E+00 -0.00000000000E+00 -0.45593999997E+02  0.45594000000E+02  0.51100000000E-03 0. -1.
    9900012    2    1    2    0    0 -0.88454279529E+01 -0.82967865756E+01  0.41671873934E+02  0.47787270279E+02  0.19999996508E+02 0.  0.
         12    1    1    2    0    0  0.88454279529E+01  0.82967865756E+01 -0.41671873934E+02  0.43400729721E+02  0.00000000000E+00 0. -1.
         11    1    3    3    0    0  0.18788146385E+01  0.28207900973E+01  0.81557850716E+01  0.88319664636E+01  0.51100000000E-03 0. -1.
        -11    1    3    3    0    0  0.69288740440E+00  0.20554270771E+01  0.60214259532E+01  0.64001909499E+01  0.51100000000E-03 0.  1.
        -12    1    3    3    0    0 -0.11417129996E+02 -0.13173003750E+02  0.27494662910E+02  0.32555112865E+02  0.00000000000E+00 0.  1.
</event>
<event>
 7    1  0.2318319E-009  0.4778724E+02  0.7816164E-02  0.1312668E+00
        -11   -1    0    0    0    0  0.00000000000E+00  0.00000000000E+00  0.45593999997E+02  0.45594000000E+02  0.51100000000E-03 0.  1.
         11   -1    0    0    0    0 -0.00000000000E+00 -0.00000000000E+00 -0.45593999997E+02  0.45594000000E+02  0.51100000000E-03 0. -1.
    9900012    2    1    2    0    0  0.21818021622E+02  0.35732156622E+01  0.37347455096E+02  0.47787235723E+02  0.19999838955E+02 0.  0.
         12    1    1    2    0    0 -0.21818021622E+02 -0.35732156622E+01 -0.37347455096E+02  0.43400764277E+02  0.00000000000E+00 0. -1.
         11    1    3    3    0    0  0.57006294783E+01  0.53986277342E+01  0.12101442382E+02  0.14425230183E+02  0.51100000000E-03 0. -1.
        -11    1    3    3    0    0  0.88528300821E+01  0.54948810468E+01  0.75043490597E+01  0.12840621996E+02  0.51100000000E-03 0.  1.
         12    1    3    3    0    0  0.72645620613E+01 -0.73202931189E+01  0.17741663655E+02  0.20521383544E+02  0.00000000000E+00 0. -1.
</event>
<event>
 7    1  0.2318319E-009  0.4778727E+02  0.7816164E-02  0.1312668E+00
        -11   -1    0    0    0    0  0.00000000000E+00  0.00000000000E+00  0.45593999997E+02  0.45594000000E+02  0.51100000000E-03 0. -1.
         11   -1    0    0    0    0 -0.00000000000E+00 -0.00000000000E+00 -0.45593999997E+02  0.45594000000E+02  0.51100000000E-03 0.  1.
    9900012    2    1    2    0    0 -0.14313134471E+02 -0.31584191710E+02 -0.26099739987E+02  0.47787269455E+02  0.19999992755E+02 0.  0.
         12    1    1    2    0    0  0.14313134471E+02  0.31584191710E+02  0.26099739987E+02  0.43400730545E+02  0.00000000000E+00 0. -1.
         11    1    3    3    0    0  0.27813107347E+00 -0.23441074466E+01 -0.53065975945E+01  0.58079406769E+01  0.51100000000E-03 0. -1.
        -11    1    3    3    0    0 -0.16714472572E+02 -0.23824300269E+02 -0.21409793205E+02  0.36129629420E+02  0.51100000000E-03 0.  1.
        -12    1    3    3    0    0  0.21232070276E+01 -0.54157839952E+01  0.61665081186E+00  0.58496993588E+01  0.00000000000E+00 0.  1.
</event>
<event>
 7    1  0.2318319E-009  0.4778727E+02  0.7816164E-02  0.1312668E+00
        -11   -1    0    0    0    0  0.00000000000E+00  0.00000000000E+00  0.45593999997E+02  0.45594000000E+02  0.51100000000E-03 0.  1.
         11   -1    0    0    0    0 -0.00000000000E+00 -0.00000000000E+00 -0.45593999997E+02  0.45594000000E+02  0.51100000000E-03 0. -1.
    9900012    2    1    2    0    0  0.35246405578E+02 -0.93062736883E+01  0.23552224299E+02  0.47787272984E+02  0.20000008842E+02 0.  0.
         12    1    1    2    0    0 -0.35246405578E+02  0.93062736883E+01 -0.23552224299E+02  0.43400727016E+02  0.00000000000E+00 0. -1.
         11    1    3    3    0    0  0.19944375732E+01  0.16868727194E+01  0.68250268301E+00  0.26998390653E+01  0.51100000000E-03 0. -1.
        -11    1    3    3    0    0  0.18727386371E+02 -0.70846004836E+01  0.22392168583E+02  0.30038571511E+02  0.51100000000E-03 0.  1.
         12    1    3    3    0    0  0.14524581634E+02 -0.39085459241E+01  0.47755303356E+00  0.15048862408E+02  0.00000000000E+00 0. -1.
</event>
<event>
 7    1  0.2318319E-009  0.4778725E+02  0.7816164E-02  0.1312668E+00
        -11   -1    0    0    0    0  0.00000000000E+00  0.00000000000E+00  0.45593999997E+02  0.45594000000E+02  0.51100000000E-03 0.  1.
         11   -1    0    0    0    0 -0.00000000000E+00 -0.00000000000E+00 -0.45593999997E+02  0.45594000000E+02  0.51100000000E-03 0. -1.
    9900012    2    1    2    0    0  0.19373512693E+02  0.12355211531E+02  0.36819027543E+02  0.47787250752E+02  0.19999907480E+02 0.  0.
         12    1    1    2    0    0 -0.19373512693E+02 -0.12355211531E+02 -0.36819027543E+02  0.43400749248E+02  0.00000000000E+00 0. -1.
         11    1    3    3    0    0  0.15408815541E+02  0.27816635926E+01  0.16740278329E+02  0.22921740062E+02  0.51100000000E-03 0. -1.
        -11    1    3    3    0    0  0.62822459001E+01  0.59270582952E+01  0.18217161454E+02  0.20160892969E+02  0.51100000000E-03 0.  1.
        -12    1    3    3    0    0 -0.23175487478E+01  0.36464896428E+01  0.18615877603E+01  0.47046177212E+01  0.00000000000E+00 0.  1.
</event>
<event>
 7    1  0.2318319E-009  0.4778726E+02  0.7816164E-02  0.1312668E+00
        -11   -1    0    0    0    0  0.00000000000E+00  0.00000000000E+00  0.45593999997E+02  0.45594000000E+02  0.51100000000E-03 0.  1.
         11   -1    0    0    0    0 -0.00000000000E+00 -0.00000000000E+00 -0.45593999997E+02  0.45594000000E+02  0.51100000000E-03 0. -1.
    9900012    2    1    2    0    0  0.11730654058E+02 -0.13486118432E+02  0.39549212290E+02  0.47787264663E+02  0.19999970905E+02 0.  0.
         12    1    1    2    0    0 -0.11730654058E+02  0.13486118432E+02 -0.39549212290E+02  0.43400735337E+02  0.00000000000E+00 0. -1.
         11    1    3    3    0    0 -0.30220065823E+01 -0.13529790125E+01  0.68148696356E+01  0.75766433467E+01  0.51100000000E-03 0. -1.
        -11    1    3    3    0    0  0.90127113780E+01  0.60669523844E+00  0.16329017181E+02  0.18661024834E+02  0.51100000000E-03 0.  1.
        -12    1    3    3    0    0  0.57399492627E+01 -0.12739834658E+02  0.16405325474E+02  0.21549596483E+02  0.00000000000E+00 0.  1.
</event>
<event>
 7    1  0.2318319E-009  0.4778727E+02  0.7816164E-02  0.1312668E+00
        -11   -1    0    0    0    0  0.00000000000E+00  0.00000000000E+00  0.45593999997E+02  0.45594000000E+02  0.51100000000E-03 0.  1.
         11   -1    0    0    0    0 -0.00000000000E+00 -0.00000000000E+00 -0.45593999997E+02  0.45594000000E+02  0.51100000000E-03 0. -1.
    9900012    2    1    2    0    0  0.27727231692E+02  0.11289180448E+02  0.31422575816E+02  0.47787271396E+02  0.20000001601E+02 0.  0.
         12    1    1    2    0    0 -0.27727231692E+02 -0.11289180448E+02 -0.31422575816E+02  0.43400728604E+02  0.00000000000E+00 0. -1.
         11    1    3    3    0    0 -0.11470312569E+01  0.94738281154E+00 -0.83656625992E-02  0.14877113770E+01  0.51100000000E-03 0. -1.
        -11    1    3    3    0    0  0.32125333502E+00 -0.25733219476E+01  0.32162661560E+01  0.41315321369E+01  0.51100000000E-03 0.  1.
        -12    1    3    3    0    0  0.28553009613E+02  0.12915119584E+02  0.28214675323E+02  0.42168027882E+02  0.00000000000E+00 0.  1.
</event>
<event>
 7    1  0.2318319E-009  0.4778727E+02  0.7816164E-02  0.1312668E+00
        -11   -1    0    0    0    0  0.00000000000E+00  0.00000000000E+00  0.45593999997E+02  0.45594000000E+02  0.51100000000E-03 0.  1.
         11   -1    0    0    0    0 -0.00000000000E+00 -0.00000000000E+00 -0.45593999997E+02  0.45594000000E+02  0.51100000000E-03 0. -1.
    9900012    2    1    2    0    0 -0.40734510908E+02 -0.87326942806E+01  0.12168112061E+02  0.47787270980E+02  0.19999999708E+02 0.  0.
         12    1    1    2    0    0  0.40734510908E+02  0.87326942806E+01 -0.12168112061E+02  0.43400729020E+02  0.00000000000E+00 0. -1.
         11    1    3    3    0    0 -0.12419368101E+02 -0.23615651298E+01 -0.39215684888E+00  0.12647983284E+02  0.51100000000E-03 0. -1.
        -11    1    3    3    0    0 -0.14299750473E+02 -0.83306846891E+00 -0.16593118690E+01  0.14419784423E+02  0.51100000000E-03 0.  1.
        -12    1    3    3    0    0 -0.14015392334E+02 -0.55380606819E+01  0.14219580779E+02  0.20719503274E+02  0.00000000000E+00 0.  1.
</event>
<event>
 7    1  0.2318319E-009  0.4778727E+02  0.7816164E-02  0.1312668E+00
        -11   -1    0    0    0    0  0.00000000000E+00  0.00000000000E+00  0.45593999997E+02  0.45594000000E+02  0.51100000000E-03 0.  1.
         11   -1    0    0    0    0 -0.00000000000E+00 -0.00000000000E+00 -0.45593999997E+02  0.45594000000E+02  0.51100000000E-03 0. -1.
    9900012    2    1    2    0    0  0.33638007168E+02  0.96490219662E+01  0.25671072096E+02  0.47787273120E+02  0.20000009465E+02 0.  0.
         12    1    1    2    0    0 -0.33638007168E+02 -0.96490219662E+01 -0.25671072096E+02  0.43400726880E+02  0.00000000000E+00 0. -1.
         11    1    3    3    0    0  0.18164457010E+02  0.11961422799E+01  0.10454447067E+02  0.20992229957E+02  0.51100000000E-03 0. -1.
        -11    1    3    3    0    0  0.12084340259E+02  0.72401509862E+01  0.34687291808E+01  0.14508037365E+02  0.51100000000E-03 0.  1.
         12    1    3    3    0    0  0.33892098989E+01  0.12127287001E+01  0.11747895848E+02  0.12287005799E+02  0.00000000000E+00 0. -1.
</event>
<event>
 7    1  0.2318319E-009  0.4778727E+02  0.7816164E-02  0.1312668E+00
        -11   -1    0    0    0    0  0.00000000000E+00  0.00000000000E+00  0.45593999997E+02  0.45594000000E+02  0.51100000000E-03 0. -1.
         11   -1    0    0    0    0 -0.00000000000E+00 -0.00000000000E+00 -0.45593999997E+02  0.45594000000E+02  0.51100000000E-03 0.  1.
    9900012    2    1    2    0    0  0.40520274633E+02  0.45701357188E+00 -0.15540966437E+02  0.47787272408E+02  0.20000006216E+02 0.  0.
         12    1    1    2    0    0 -0.40520274633E+02 -0.45701357188E+00  0.15540966437E+02  0.43400727592E+02  0.00000000000E+00 0. -1.
         11    1    3    3    0    0  0.97687352358E+01  0.33222704155E+01 -0.76566910520E+00  0.10346589692E+02  0.51100000000E-03 0. -1.
        -11    1    3    3    0    0  0.24915752168E+02  0.21718822345E+00 -0.17343778634E+02  0.30358664898E+02  0.51100000000E-03 0.  1.
        -12    1    3    3    0    0  0.58357872288E+01 -0.30824450671E+01  0.25684813013E+01  0.70820178175E+01  0.00000000000E+00 0.  1.
</event>
<event>
 7    1  0.2318319E-009  0.4778727E+02  0.7816164E-02  0.1312668E+00
        -11   -1    0    0    0    0  0.00000000000E+00  0.00000000000E+00  0.45593999997E+02  0.45594000000E+02  0.51100000000E-03 0.  1.
         11   -1    0    0    0    0 -0.00000000000E+00 -0.00000000000E+00 -0.45593999997E+02  0.45594000000E+02  0.51100000000E-03 0. -1.
    9900012    2    1    2    0    0 -0.18978110246E+02 -0.97795389098E+01  0.37786441279E+02  0.47787271961E+02  0.20000004177E+02 0.  0.
         12    1    1    2    0    0  0.18978110246E+02  0.97795389098E+01 -0.37786441279E+02  0.43400728039E+02  0.00000000000E+00 0. -1.
         11    1    3    3    0    0 -0.11575490696E+02  0.38421264865E+01  0.12304481694E+02  0.17324958610E+02  0.51100000000E-03 0. -1.
        -11    1    3    3    0    0 -0.57104746576E+01 -0.42272047301E+01  0.98207232262E+01  0.12121278216E+02  0.51100000000E-03 0.  1.
         12    1    3    3    0    0 -0.16921448925E+01 -0.93944606662E+01  0.15661236358E+02  0.18341035135E+02  0.00000000000E+00 0. -1.
</event>
<event>
 7    1  0.2318319E-009  0.4778727E+02  0.7816164E-02  0.1312668E+00
        -11   -1    0    0    0    0  0.00000000000E+00  0.00000000000E+00  0.45593999997E+02  0.45594000000E+02  0.51100000000E-03 0.  1.
         11   -1    0    0    0    0 -0.00000000000E+00 -0.00000000000E+00 -0.45593999997E+02  0.45594000000E+02  0.51100000000E-03 0. -1.
    9900012    2    1    2    0    0  0.25866796622E+02 -0.95332858996E+01  0.33520871481E+02  0.47787268067E+02  0.19999986423E+02 0.  0.
         12    1    1    2    0    0 -0.25866796622E+02  0.95332858996E+01 -0.33520871481E+02  0.43400731933E+02  0.00000000000E+00 0. -1.
         11    1    3    3    0    0  0.18332822015E+02 -0.59204874723E+01  0.18026147645E+02  0.26383451899E+02  0.51100000000E-03 0. -1.
        -11    1    3    3    0    0  0.10793606762E+02 -0.36097874694E+01  0.13133852576E+02  0.17379027483E+02  0.51100000000E-03 0.  1.
         12    1    3    3    0    0 -0.32596321547E+01 -0.30109580142E-02  0.23608712604E+01  0.40247886850E+01  0.00000000000E+00 0. -1.
</event>
<event>
 7    1  0.2318319E-009  0.4778727E+02  0.7816164E-02  0.1312668E+00
        -11   -1    0    0    0    0  0.00000000000E+00  0.00000000000E+00  0.45593999997E+02  0.45594000000E+02  0.51100000000E-03 0.  1.
         11   -1    0    0    0    0 -0.00000000000E+00 -0.00000000000E+00 -0.45593999997E+02  0.45594000000E+02  0.51100000000E-03 0. -1.
    9900012    2    1    2    0    0  0.15393371892E+02 -0.27213296572E+02  0.30101553871E+02  0.47787274729E+02  0.20000016801E+02 0.  0.
         12    1    1    2    0    0 -0.15393371892E+02  0.27213296572E+02 -0.30101553871E+02  0.43400725271E+02  0.00000000000E+00 0. -1.
         11    1    3    3    0    0  0.24157690995E+01  0.39110835255E+00  0.32011779917E+01  0.40294474660E+01  0.51100000000E-03 0. -1.
        -11    1    3    3    0    0  0.79314322602E+01 -0.16013102082E+02  0.25358227622E+02  0.31022036754E+02  0.51100000000E-03 0.  1.
         12    1    3    3    0    0  0.50461705326E+01 -0.11591302843E+02  0.15421482572E+01  0.12735790509E+02  0.00000000000E+00 0. -1.
</event>
<event>
 7    1  0.2318319E-009  0.4778727E+02  0.7816164E-02  0.1312668E+00
        -11   -1    0    0    0    0  0.00000000000E+00  0.00000000000E+00  0.45593999997E+02  0.45594000000E+02  0.51100000000E-03 0. -1.
         11   -1    0    0    0    0 -0.00000000000E+00 -0.00000000000E+00 -0.45593999997E+02  0.45594000000E+02  0.51100000000E-03 0.  1.
    9900012    2    1    2    0    0 -0.39444265587E+02 -0.14065361929E+02 -0.11399072762E+02  0.47787270125E+02  0.19999995808E+02 0.  0.
         12    1    1    2    0    0  0.39444265587E+02  0.14065361929E+02  0.11399072762E+02  0.43400729875E+02  0.00000000000E+00 0. -1.
         11    1    3    3    0    0  0.20396395773E+01 -0.80704712912E+00 -0.22852102083E+00  0.22053745242E+01  0.51100000000E-03 0. -1.
        -11    1    3    3    0    0 -0.58550215561E+01 -0.25678904567E+01  0.93969656452E+00  0.64620715498E+01  0.51100000000E-03 0.  1.
        -12    1    3    3    0    0 -0.35628883608E+02 -0.10690424343E+02 -0.12110248305E+02  0.39119824051E+02  0.00000000000E+00 0.  1.
</event>
<event>
 7    1  0.2318319E-009  0.4778725E+02  0.7816164E-02  0.1312668E+00
        -11   -1    0    0    0    0  0.00000000000E+00  0.00000000000E+00  0.45593999997E+02  0.45594000000E+02  0.51100000000E-03 0.  1.
         11   -1    0    0    0    0 -0.00000000000E+00 -0.00000000000E+00 -0.45593999997E+02  0.45594000000E+02  0.51100000000E-03 0. -1.
    9900012    2    1    2    0    0 -0.83919940717E+01  0.16607739488E+01  0.42549278373E+02  0.47787253178E+02  0.19999918540E+02 0.  0.
         12    1    1    2    0    0  0.83919940717E+01 -0.16607739488E+01 -0.42549278373E+02  0.43400746822E+02  0.00000000000E+00 0. -1.
         11    1    3    3    0    0 -0.45314186455E+01  0.49981947056E+01  0.38575185445E+02  0.39160702721E+02  0.51100000000E-03 0. -1.
        -11    1    3    3    0    0 -0.32470719673E+01 -0.18997053831E+01  0.53526144904E+01  0.65423878704E+01  0.51100000000E-03 0.  1.
         12    1    3    3    0    0 -0.61350345885E+00 -0.14377153737E+01 -0.13785215618E+01  0.20841625863E+01  0.00000000000E+00 0. -1.
</event>
<event>
 7    1  0.2318319E-009  0.4778727E+02  0.7816164E-02  0.1312668E+00
        -11   -1    0    0    0    0  0.00000000000E+00  0.00000000000E+00  0.45593999997E+02  0.45594000000E+02  0.51100000000E-03 0.  1.
         11   -1    0    0    0    0 -0.00000000000E+00 -0.00000000000E+00 -0.45593999997E+02  0.45594000000E+02  0.51100000000E-03 0. -1.
    9900012    2    1    2    0    0 -0.15866380519E+02 -0.15643436898E+02  0.37244650444E+02  0.47787272639E+02  0.20000007271E+02 0.  0.
         12    1    1    2    0    0  0.15866380519E+02  0.15643436898E+02 -0.37244650444E+02  0.43400727361E+02  0.00000000000E+00 0. -1.
         11    1    3    3    0    0 -0.28177424509E+01  0.28780966318E+00  0.52670225303E+01  0.59803037981E+01  0.51100000000E-03 0.  1.
        -11    1    3    3    0    0 -0.13220051130E+02 -0.63373238096E+01  0.97775155523E+01  0.17621896481E+02  0.51100000000E-03 0. -1.
        -12    1    3    3    0    0  0.17141306202E+00 -0.95939227512E+01  0.22200112362E+02  0.24185072360E+02  0.00000000000E+00 0.  1.
</event>
<event>
 7    1  0.2318319E-009  0.4778728E+02  0.7816164E-02  0.1312668E+00
        -11   -1    0    0    0    0  0.00000000000E+00  0.00000000000E+00  0.45593999997E+02  0.45594000000E+02  0.51100000000E-03 0. -1.
         11   -1    0    0    0    0 -0.00000000000E+00 -0.00000000000E+00 -0.45593999997E+02  0.45594000000E+02  0.51100000000E-03 0.  1.
    9900012    2    1    2    0    0  0.28104349160E+01 -0.13926102816E+02 -0.41009607740E+02  0.47787276377E+02  0.20000024311E+02 0.  0.
         12    1    1    2    0    0 -0.28104349160E+01  0.13926102816E+02  0.41009607740E+02  0.43400723623E+02  0.00000000000E+00 0. -1.
         11    1    3    3    0    0  0.53139355405E+01 -0.30088345068E+01 -0.25288577822E+02  0.26015440887E+02  0.51100000000E-03 0.  1.
        -11    1    3    3    0    0 -0.15972276362E+01 -0.85634746587E+01 -0.16880643857E+02  0.18995798789E+02  0.51100000000E-03 0. -1.
         12    1    3    3    0    0 -0.90627298825E+00 -0.23537936504E+01  0.11596139386E+01  0.27760367009E+01  0.00000000000E+00 0. -1.
</event>
<event>
 7    1  0.2318319E-009  0.4778727E+02  0.7816164E-02  0.1312668E+00
        -11   -1    0    0    0    0  0.00000000000E+00  0.00000000000E+00  0.45593999997E+02  0.45594000000E+02  0.51100000000E-03 0.  1.
         11   -1    0    0    0    0 -0.00000000000E+00 -0.00000000000E+00 -0.45593999997E+02  0.45594000000E+02  0.51100000000E-03 0. -1.
    9900012    2    1    2    0    0  0.40322673746E+02  0.34643425615E+01  0.15674937796E+02  0.47787270026E+02  0.19999995354E+02 0.  0.
         12    1    1    2    0    0 -0.40322673746E+02 -0.34643425615E+01 -0.15674937796E+02  0.43400729974E+02  0.00000000000E+00 0. -1.
         11    1    3    3    0    0  0.19655765619E+01  0.31156037642E+00  0.28363766280E+01  0.34649089058E+01  0.51100000000E-03 0. -1.
        -11    1    3    3    0    0  0.16906068193E+02 -0.81030868312E+00 -0.32275106250E+01  0.17230454637E+02  0.51100000000E-03 0.  1.
        -12    1    3    3    0    0  0.21451028991E+02  0.39630908682E+01  0.16066071793E+02  0.27091906483E+02  0.00000000000E+00 0.  1.
</event>
<event>
 7    1  0.2318319E-009  0.4778727E+02  0.7816164E-02  0.1312668E+00
        -11   -1    0    0    0    0  0.00000000000E+00  0.00000000000E+00  0.45593999997E+02  0.45594000000E+02  0.51100000000E-03 0.  1.
         11   -1    0    0    0    0 -0.00000000000E+00 -0.00000000000E+00 -0.45593999997E+02  0.45594000000E+02  0.51100000000E-03 0. -1.
    9900012    2    1    2    0    0  0.31495394108E+02 -0.11377025261E+02  0.27608461698E+02  0.47787266007E+02  0.19999977034E+02 0.  0.
         12    1    1    2    0    0 -0.31495394108E+02  0.11377025261E+02 -0.27608461698E+02  0.43400733993E+02  0.00000000000E+00 0. -1.
         11    1    3    3    0    0  0.85531047050E+01 -0.34415271740E+01  0.17460511510E+02  0.19745105010E+02  0.51100000000E-03 0. -1.
        -11    1    3    3    0    0  0.14575900379E+02 -0.69209182930E+01  0.11064563588E+02  0.19564778289E+02  0.51100000000E-03 0.  1.
         12    1    3    3    0    0  0.83663890241E+01 -0.10145797936E+01 -0.91661339973E+00  0.84773827084E+01  0.00000000000E+00 0. -1.
</event>
<event>
 7    1  0.2318319E-009  0.4778727E+02  0.7816164E-02  0.1312668E+00
        -11   -1    0    0    0    0  0.00000000000E+00  0.00000000000E+00  0.45593999997E+02  0.45594000000E+02  0.51100000000E-03 0. -1.
         11   -1    0    0    0    0 -0.00000000000E+00 -0.00000000000E+00 -0.45593999997E+02  0.45594000000E+02  0.51100000000E-03 0.  1.
    9900012    2    1    2    0    0  0.38387146669E+02 -0.12333423196E+02 -0.16060414654E+02  0.47787271020E+02  0.19999999890E+02 0.  0.
         12    1    1    2    0    0 -0.38387146669E+02  0.12333423196E+02  0.16060414654E+02  0.43400728980E+02  0.00000000000E+00 0. -1.
         11    1    3    3    0    0  0.34303255983E+01 -0.26172035832E+01  0.13857316950E+01  0.45317922391E+01  0.51100000000E-03 0. -1.
        -11    1    3    3    0    0  0.20602670587E+02 -0.13166713672E+02 -0.79872921232E+01  0.25722154264E+02  0.51100000000E-03 0.  1.
         12    1    3    3    0    0  0.14354150484E+02  0.34504940600E+01 -0.94588542261E+01  0.17533324518E+02  0.00000000000E+00 0. -1.
</event>
<event>
 7    1  0.2519088E-009  0.4778727E+02  0.7816164E-02  0.1312668E+00
        -11   -1    0    0    0    0  0.00000000000E+00  0.00000000000E+00  0.45593999997E+02  0.45594000000E+02  0.51100000000E-03 0. -1.
         11   -1    0    0    0    0 -0.00000000000E+00 -0.00000000000E+00 -0.45593999997E+02  0.45594000000E+02  0.51100000000E-03 0.  1.
    9900012    2    1    2    0    0 -0.22714930946E+01  0.36089694454E+02 -0.23999949055E+02  0.47787270959E+02  0.19999999608E+02 0.  0.
         12    1    1    2    0    0  0.22714930946E+01 -0.36089694454E+02  0.23999949055E+02  0.43400729041E+02  0.00000000000E+00 0. -1.
         11    1    3    3    0    0  0.50962286144E+01  0.58413577434E+01 -0.92632006857E+00  0.78071169779E+01  0.51100000000E-03 0. -1.
        -11    1    3    3    0    0 -0.12782413629E+01  0.51925001110E+01 -0.93478104829E+01  0.10769285931E+02  0.51100000000E-03 0.  1.
        -12    1    3    3    0    0 -0.60894803461E+01  0.25055836600E+02 -0.13725818504E+02  0.29210868049E+02  0.00000000000E+00 0.  1.
</event>
<event>
 7    1  0.2318319E-009  0.4778729E+02  0.7816164E-02  0.1312668E+00
        -11   -1    0    0    0    0  0.00000000000E+00  0.00000000000E+00  0.45593999997E+02  0.45594000000E+02  0.51100000000E-03 0. -1.
         11   -1    0    0    0    0 -0.00000000000E+00 -0.00000000000E+00 -0.45593999997E+02  0.45594000000E+02  0.51100000000E-03 0.  1.
    9900012    2    1    2    0    0 -0.53459012504E+01  0.39284404196E+02 -0.17657246093E+02  0.47787292485E+02  0.20000097755E+02 0.  0.
         12    1    1    2    0    0  0.53459012504E+01 -0.39284404196E+02  0.17657246093E+02  0.43400707515E+02  0.00000000000E+00 0. -1.
         11    1    3    3    0    0  0.34485933648E+01  0.38040096227E+01 -0.59943946990E+01  0.78927848998E+01  0.51100000000E-03 0. -1.
        -11    1    3    3    0    0 -0.59734360891E+01  0.58152963993E+01 -0.30312443893E+01  0.88706287111E+01  0.51100000000E-03 0.  1.
        -12    1    3    3    0    0 -0.28210585261E+01  0.29665098174E+02 -0.86316070043E+01  0.31023878874E+02  0.00000000000E+00 0.  1.
</event>
<event>
 7    1  0.2318319E-009  0.4778726E+02  0.7816164E-02  0.1312668E+00
        -11   -1    0    0    0    0  0.00000000000E+00  0.00000000000E+00  0.45593999997E+02  0.45594000000E+02  0.51100000000E-03 0.  1.
         11   -1    0    0    0    0 -0.00000000000E+00 -0.00000000000E+00 -0.45593999997E+02  0.45594000000E+02  0.51100000000E-03 0. -1.
    9900012    2    1    2    0    0  0.13029365707E+02  0.16446644397E+01  0.41366103932E+02  0.47787264449E+02  0.19999969928E+02 0.  0.
         12    1    1    2    0    0 -0.13029365707E+02 -0.16446644397E+01 -0.41366103932E+02  0.43400735551E+02  0.00000000000E+00 0. -1.
         11    1    3    3    0    0 -0.10478419986E+01  0.35059760420E+01  0.36972582644E+01  0.52018804097E+01  0.51100000000E-03 0. -1.
        -11    1    3    3    0    0  0.14848852813E+01  0.77715957138E+00  0.23051949793E+02  0.23112794094E+02  0.51100000000E-03 0.  1.
        -12    1    3    3    0    0  0.12592322424E+02 -0.26384711737E+01  0.14616895875E+02  0.19472589946E+02  0.00000000000E+00 0.  1.
</event>
<event>
 7    1  0.2318319E-009  0.4778727E+02  0.7816164E-02  0.1312668E+00
        -11   -1    0    0    0    0  0.00000000000E+00  0.00000000000E+00  0.45593999997E+02  0.45594000000E+02  0.51100000000E-03 0.  1.
         11   -1    0    0    0    0 -0.00000000000E+00 -0.00000000000E+00 -0.45593999997E+02  0.45594000000E+02  0.51100000000E-03 0. -1.
    9900012    2    1    2    0    0 -0.16932339451E+02 -0.38774754815E+02  0.96663100731E+01  0.47787270966E+02  0.19999999644E+02 0.  0.
         12    1    1    2    0    0  0.16932339451E+02  0.38774754815E+02 -0.96663100731E+01  0.43400729034E+02  0.00000000000E+00 0. -1.
         11    1    3    3    0    0 -0.32149638095E+01 -0.52514538756E+01  0.61516368102E+01  0.87038150147E+01  0.51100000000E-03 0. -1.
        -11    1    3    3    0    0 -0.66822900871E+01 -0.76553483931E+01  0.65728555003E+01  0.12102057243E+02  0.51100000000E-03 0.  1.
         12    1    3    3    0    0 -0.70350855540E+01 -0.25867952546E+02 -0.30581822373E+01  0.26981398709E+02  0.00000000000E+00 0. -1.
</event>
<event>
 7    1  0.2318319E-009  0.4778727E+02  0.7816164E-02  0.1312668E+00
        -11   -1    0    0    0    0  0.00000000000E+00  0.00000000000E+00  0.45593999997E+02  0.45594000000E+02  0.51100000000E-03 0.  1.
         11   -1    0    0    0    0 -0.00000000000E+00 -0.00000000000E+00 -0.45593999997E+02  0.45594000000E+02  0.51100000000E-03 0. -1.
    9900012    2    1    2    0    0  0.30721723800E+02  0.18646677811E+02  0.24333112976E+02  0.47787270815E+02  0.19999998954E+02 0.  0.
         12    1    1    2    0    0 -0.30721723800E+02 -0.18646677811E+02 -0.24333112976E+02  0.43400729185E+02  0.00000000000E+00 0. -1.
         11    1    3    3    0    0  0.22350485110E+02  0.17634499158E+02  0.18904077248E+02  0.34174316117E+02  0.51100000000E-03 0.  1.
        -11    1    3    3    0    0  0.63238966456E+01  0.66821584813E+00  0.80568252719E+01  0.10264044765E+02  0.51100000000E-03 0. -1.
         12    1    3    3    0    0  0.20473420448E+01  0.34396280564E+00 -0.26277895436E+01  0.33489099339E+01  0.00000000000E+00 0. -1.
</event>
<event>
 7    1  0.2318319E-009  0.4778728E+02  0.7816164E-02  0.1312668E+00
        -11   -1    0    0    0    0  0.00000000000E+00  0.00000000000E+00  0.45593999997E+02  0.45594000000E+02  0.51100000000E-03 0. -1.
         11   -1    0    0    0    0 -0.00000000000E+00 -0.00000000000E+00 -0.45593999997E+02  0.45594000000E+02  0.51100000000E-03 0.  1.
    9900012    2    1    2    0    0  0.15252401699E+02  0.25948399481E+02 -0.31267672852E+02  0.47787279283E+02  0.20000037561E+02 0.  0.
         12    1    1    2    0    0 -0.15252401699E+02 -0.25948399481E+02  0.31267672852E+02  0.43400720717E+02  0.00000000000E+00 0. -1.
         11    1    3    3    0    0  0.52599508270E+00 -0.15988146529E+01 -0.63569506979E+00  0.17991630288E+01  0.51100000000E-03 0. -1.
        -11    1    3    3    0    0  0.73133597493E+01  0.71165602759E+01 -0.26237019176E+01  0.10536340588E+02  0.51100000000E-03 0.  1.
        -12    1    3    3    0    0  0.74130468673E+01  0.20430653858E+02 -0.28008275865E+02  0.35451775665E+02  0.00000000000E+00 0.  1.
</event>
<event>
 7    1  0.2318319E-009  0.4778727E+02  0.7816164E-02  0.1312668E+00
        -11   -1    0    0    0    0  0.00000000000E+00  0.00000000000E+00  0.45593999997E+02  0.45594000000E+02  0.51100000000E-03 0.  1.
         11   -1    0    0    0    0 -0.00000000000E+00 -0.00000000000E+00 -0.45593999997E+02  0.45594000000E+02  0.51100000000E-03 0. -1.
    9900012    2    1    2    0    0 -0.40037038918E+02  0.11513868886E+02  0.12169223534E+02  0.47787266556E+02  0.19999979537E+02 0.  0.
         12    1    1    2    0    0  0.40037038918E+02 -0.11513868886E+02 -0.12169223534E+02  0.43400733444E+02  0.00000000000E+00 0. -1.
         11    1    3    3    0    0 -0.10611337904E+02 -0.48483943402E+01  0.20569039634E+01  0.11846445626E+02  0.51100000000E-03 0. -1.
        -11    1    3    3    0    0 -0.13557356287E+02  0.45453129375E+01  0.15507008963E+01  0.14382852733E+02  0.51100000000E-03 0.  1.
         12    1    3    3    0    0 -0.15868344726E+02  0.11816950289E+02  0.85616186744E+01  0.21557968197E+02  0.00000000000E+00 0. -1.
</event>
<event>
 7    1  0.2318319E-009  0.4778727E+02  0.7816164E-02  0.1312668E+00
        -11   -1    0    0    0    0  0.00000000000E+00  0.00000000000E+00  0.45593999997E+02  0.45594000000E+02  0.51100000000E-03 0.  1.
         11   -1    0    0    0    0 -0.00000000000E+00 -0.00000000000E+00 -0.45593999997E+02  0.45594000000E+02  0.51100000000E-03 0. -1.
    9900012    2    1    2    0    0 -0.28570845144E+02 -0.40070691776E+01  0.32423347918E+02  0.47787270906E+02  0.19999999370E+02 0.  0.
         12    1    1    2    0    0  0.28570845144E+02  0.40070691776E+01 -0.32423347918E+02  0.43400729094E+02  0.00000000000E+00 0. -1.
         11    1    3    3    0    0 -0.29250154796E+01 -0.61436219040E+01  0.39777565062E+01  0.78817734514E+01  0.51100000000E-03 0. -1.
        -11    1    3    3    0    0 -0.13059459089E+02 -0.33014501120E+01  0.93495609653E+01  0.16397052632E+02  0.51100000000E-03 0.  1.
         12    1    3    3    0    0 -0.12586370576E+02  0.54380028384E+01  0.19096030446E+02  0.23508444822E+02  0.00000000000E+00 0. -1.
</event>
<event>
 7    1  0.2318319E-009  0.4778727E+02  0.7816164E-02  0.1312668E+00
        -11   -1    0    0    0    0  0.00000000000E+00  0.00000000000E+00  0.45593999997E+02  0.45594000000E+02  0.51100000000E-03 0. -1.
         11   -1    0    0    0    0 -0.00000000000E+00 -0.00000000000E+00 -0.45593999997E+02  0.45594000000E+02  0.51100000000E-03 0.  1.
    9900012    2    1    2    0    0 -0.38320997599E+02  0.19546228966E+02 -0.57506074459E+01  0.47787269479E+02  0.19999992863E+02 0.  0.
         12    1    1    2    0    0  0.38320997599E+02 -0.19546228966E+02  0.57506074459E+01  0.43400730521E+02  0.00000000000E+00 0. -1.
         11    1    3    3    0    0 -0.26677322325E+02  0.96606952976E+01 -0.56910787540E+01  0.28937811557E+02  0.51100000000E-03 0. -1.
        -11    1    3    3    0    0 -0.10656820510E+02  0.42052039198E+01  0.36141826399E+01  0.12013071206E+02  0.51100000000E-03 0.  1.
         12    1    3    3    0    0 -0.98685476381E+00  0.56803297488E+01 -0.36737113318E+01  0.68363867159E+01  0.00000000000E+00 0. -1.
</event>
<event>
 7    1  0.2318319E-009  0.4778728E+02  0.7816164E-02  0.1312668E+00
        -11   -1    0    0    0    0  0.00000000000E+00  0.00000000000E+00  0.45593999997E+02  0.45594000000E+02  0.51100000000E-03 0.  1.
         11   -1    0    0    0    0 -0.00000000000E+00 -0.00000000000E+00 -0.45593999997E+02  0.45594000000E+02  0.51100000000E-03 0. -1.
    9900012    2    1    2    0    0 -0.28541079265E+02 -0.32553845203E+02 -0.30457693349E+01  0.47787277035E+02  0.20000027312E+02 0.  0.
         12    1    1    2    0    0  0.28541079265E+02  0.32553845203E+02  0.30457693349E+01  0.43400722965E+02  0.00000000000E+00 0. -1.
         11    1    3    3    0    0 -0.14481887147E+02 -0.15868802874E+02  0.65773876539E+01  0.22467887943E+02  0.51100000000E-03 0. -1.
        -11    1    3    3    0    0  0.10406663569E+00  0.78066460269E+00  0.14833637985E+00  0.80141813635E+00  0.51100000000E-03 0.  1.
        -12    1    3    3    0    0 -0.14163258753E+02 -0.17465706931E+02 -0.97714933686E+01  0.24517970956E+02  0.00000000000E+00 0.  1.
</event>
<event>
 7    1  0.2318319E-009  0.4778727E+02  0.7816164E-02  0.1312668E+00
        -11   -1    0    0    0    0  0.00000000000E+00  0.00000000000E+00  0.45593999997E+02  0.45594000000E+02  0.51100000000E-03 0.  1.
         11   -1    0    0    0    0 -0.00000000000E+00 -0.00000000000E+00 -0.45593999997E+02  0.45594000000E+02  0.51100000000E-03 0. -1.
    9900012    2    1    2    0    0  0.24875029314E+02 -0.33214521616E+02  0.12714236421E+02  0.47787270314E+02  0.19999996668E+02 0.  0.
         12    1    1    2    0    0 -0.24875029314E+02  0.33214521616E+02 -0.12714236421E+02  0.43400729686E+02  0.00000000000E+00 0. -1.
         11    1    3    3    0    0  0.96277688208E+01 -0.44296729187E+01  0.88659241800E+01  0.13817400134E+02  0.51100000000E-03 0. -1.
        -11    1    3    3    0    0  0.49892470124E+01 -0.46184825276E+01 -0.19721739770E+01  0.70790138484E+01  0.51100000000E-03 0.  1.
        -12    1    3    3    0    0  0.10258013480E+02 -0.24166366170E+02  0.58204862178E+01  0.26890856331E+02  0.00000000000E+00 0.  1.
</event>
<event>
 7    1  0.2318319E-009  0.4778728E+02  0.7816164E-02  0.1312668E+00
        -11   -1    0    0    0    0  0.00000000000E+00  0.00000000000E+00  0.45593999997E+02  0.45594000000E+02  0.51100000000E-03 0.  1.
         11   -1    0    0    0    0 -0.00000000000E+00 -0.00000000000E+00 -0.45593999997E+02  0.45594000000E+02  0.51100000000E-03 0. -1.
    9900012    2    1    2    0    0 -0.29640800514E+02 -0.24526653511E+02  0.20087037085E+02  0.47787275969E+02  0.20000022454E+02 0.  0.
         12    1    1    2    0    0  0.29640800514E+02  0.24526653511E+02 -0.20087037085E+02  0.43400724031E+02  0.00000000000E+00 0. -1.
         11    1    3    3    0    0 -0.10271273918E+02 -0.13640853663E+02  0.62674915426E+01  0.18189376214E+02  0.51100000000E-03 0. -1.
        -11    1    3    3    0    0 -0.94672305403E+01 -0.10874231992E+02  0.26298250344E+01  0.14655830085E+02  0.51100000000E-03 0.  1.
        -12    1    3    3    0    0 -0.99022960555E+01 -0.11567856666E-01  0.11189720508E+02  0.14942069670E+02  0.00000000000E+00 0.  1.
</event>
<event>
 7    1  0.2318319E-009  0.4778727E+02  0.7816164E-02  0.1312668E+00
        -11   -1    0    0    0    0  0.00000000000E+00  0.00000000000E+00  0.45593999997E+02  0.45594000000E+02  0.51100000000E-03 0.  1.
         11   -1    0    0    0    0 -0.00000000000E+00 -0.00000000000E+00 -0.45593999997E+02  0.45594000000E+02  0.51100000000E-03 0. -1.
    9900012    2    1    2    0    0 -0.12983790291E+02  0.36073988216E+02  0.20339912378E+02  0.47787268766E+02  0.19999989610E+02 0.  0.
         12    1    1    2    0    0  0.12983790291E+02 -0.36073988216E+02 -0.20339912378E+02  0.43400731234E+02  0.00000000000E+00 0. -1.
         11    1    3    3    0    0  0.68634841056E+00  0.84015343408E+01  0.69976128443E+01  0.10955520946E+02  0.51100000000E-03 0. -1.
        -11    1    3    3    0    0 -0.12247015989E+01  0.11519566434E+01  0.65456918901E+01  0.67581788002E+01  0.51100000000E-03 0.  1.
        -12    1    3    3    0    0 -0.12445437103E+02  0.26520497232E+02  0.67966076433E+01  0.30073569019E+02  0.00000000000E+00 0.  1.
</event>
<event>
 7    1  0.2318319E-009  0.4778728E+02  0.7816164E-02  0.1312668E+00
        -11   -1    0    0    0    0  0.00000000000E+00  0.00000000000E+00  0.45593999997E+02  0.45594000000E+02  0.51100000000E-03 0.  1.
         11   -1    0    0    0    0 -0.00000000000E+00 -0.00000000000E+00 -0.45593999997E+02  0.45594000000E+02  0.51100000000E-03 0. -1.
    9900012    2    1    2    0    0 -0.80975813705E+01 -0.33325493278E+01  0.42508188717E+02  0.47787276307E+02  0.20000023995E+02 0.  0.
         12    1    1    2    0    0  0.80975813705E+01  0.33325493278E+01 -0.42508188717E+02  0.43400723693E+02  0.00000000000E+00 0. -1.
         11    1    3    3    0    0  0.48326858975E+00 -0.50512142258E+01  0.27760343723E+01  0.57840021423E+01  0.51100000000E-03 0. -1.
        -11    1    3    3    0    0 -0.60419482340E+01  0.79413922424E+00  0.75253208031E+01  0.96832974250E+01  0.51100000000E-03 0.  1.
        -12    1    3    3    0    0 -0.25389017263E+01  0.92452567374E+00  0.32206833541E+02  0.32319976740E+02  0.00000000000E+00 0.  1.
</event>
<event>
 7    1  0.2318319E-009  0.4778728E+02  0.7816164E-02  0.1312668E+00
        -11   -1    0    0    0    0  0.00000000000E+00  0.00000000000E+00  0.45593999997E+02  0.45594000000E+02  0.51100000000E-03 0.  1.
         11   -1    0    0    0    0 -0.00000000000E+00 -0.00000000000E+00 -0.45593999997E+02  0.45594000000E+02  0.51100000000E-03 0. -1.
    9900012    2    1    2    0    0 -0.25031420112E+02  0.18271916706E+02  0.30384003325E+02  0.47787278912E+02  0.20000035871E+02 0.  0.
         12    1    1    2    0    0  0.25031420112E+02 -0.18271916706E+02 -0.30384003325E+02  0.43400721088E+02  0.00000000000E+00 0. -1.
         11    1    3    3    0    0 -0.72655696090E+01  0.45446596555E+01  0.58487713048E+01  0.10375478744E+02  0.51100000000E-03 0. -1.
        -11    1    3    3    0    0  0.13599221228E+01 -0.14845988928E+01  0.71318378954E+01  0.74105690793E+01  0.51100000000E-03 0.  1.
        -12    1    3    3    0    0 -0.19125772626E+02  0.15211855943E+02  0.17403394124E+02  0.30001231089E+02  0.00000000000E+00 0.  1.
</event>
<event>
 7    1  0.2318319E-009  0.4778727E+02  0.7816164E-02  0.1312668E+00
        -11   -1    0    0    0    0  0.00000000000E+00  0.00000000000E+00  0.45593999997E+02  0.45594000000E+02  0.51100000000E-03 0. -1.
         11   -1    0    0    0    0 -0.00000000000E+00 -0.00000000000E+00 -0.45593999997E+02  0.45594000000E+02  0.51100000000E-03 0.  1.
    9900012    2    1    2    0    0  0.40514427198E+02  0.68849821068E+01 -0.13957129628E+02  0.47787271236E+02  0.20000000873E+02 0.  0.
         12    1    1    2    0    0 -0.40514427198E+02 -0.68849821068E+01  0.13957129628E+02  0.43400728764E+02  0.00000000000E+00 0. -1.
         11    1    3    3    0    0  0.12382561650E+01 -0.24224932729E+01  0.12775360043E+01  0.30056364535E+01  0.51100000000E-03 0. -1.
        -11    1    3    3    0    0  0.58501459745E+01  0.11151178347E+01  0.20126768913E+01  0.62863792630E+01  0.51100000000E-03 0.  1.
        -12    1    3    3    0    0  0.33426025059E+02  0.81923575451E+01 -0.17247342524E+02  0.38495255519E+02  0.00000000000E+00 0.  1.
</event>
<event>
 7    1  0.2318319E-009  0.4778727E+02  0.7816164E-02  0.1312668E+00
        -11   -1    0    0    0    0  0.00000000000E+00  0.00000000000E+00  0.45593999997E+02  0.45594000000E+02  0.51100000000E-03 0.  1.
         11   -1    0    0    0    0 -0.00000000000E+00 -0.00000000000E+00 -0.45593999997E+02  0.45594000000E+02  0.51100000000E-03 0. -1.
    9900012    2    1    2    0    0  0.34576853064E+02 -0.23718542677E+02  0.11202469538E+02  0.47787270072E+02  0.19999995566E+02 0.  0.
         12    1    1    2    0    0 -0.34576853064E+02  0.23718542677E+02 -0.11202469538E+02  0.43400729928E+02  0.00000000000E+00 0. -1.
         11    1    3    3    0    0  0.24318036194E+01 -0.68931004814E+01 -0.22842431050E+01  0.76580852642E+01  0.51100000000E-03 0. -1.
        -11    1    3    3    0    0  0.44300200163E+01 -0.53643121338E+01 -0.62236142570E+00  0.69848590551E+01  0.51100000000E-03 0.  1.
        -12    1    3    3    0    0  0.27715029429E+02 -0.11461130062E+02  0.14109074069E+02  0.33144325753E+02  0.00000000000E+00 0.  1.
</event>
<event>
 7    1  0.2318319E-009  0.4778727E+02  0.7816164E-02  0.1312668E+00
        -11   -1    0    0    0    0  0.00000000000E+00  0.00000000000E+00  0.45593999997E+02  0.45594000000E+02  0.51100000000E-03 0.  1.
         11   -1    0    0    0    0 -0.00000000000E+00 -0.00000000000E+00 -0.45593999997E+02  0.45594000000E+02  0.51100000000E-03 0. -1.
    9900012    2    1    2    0    0  0.27406712088E+02  0.16956171684E+02  0.29068600687E+02  0.47787272223E+02  0.20000005373E+02 0.  0.
         12    1    1    2    0    0 -0.27406712088E+02 -0.16956171684E+02 -0.29068600687E+02  0.43400727777E+02  0.00000000000E+00 0. -1.
         11    1    3    3    0    0  0.25437520505E+02  0.76384725929E+01  0.26630705542E+02  0.37611277443E+02  0.51100000000E-03 0.  1.
        -11    1    3    3    0    0 -0.19487519228E+00  0.87870039606E+00 -0.43875991509E+00  0.10012997807E+01  0.51100000000E-03 0. -1.
        -12    1    3    3    0    0  0.21640667762E+01  0.84389986954E+01  0.28766550596E+01  0.91746949990E+01  0.00000000000E+00 0.  1.
</event>
<event>
 7    1  0.2318319E-009  0.4778727E+02  0.7816164E-02  0.1312668E+00
        -11   -1    0    0    0    0  0.00000000000E+00  0.00000000000E+00  0.45593999997E+02  0.45594000000E+02  0.51100000000E-03 0. -1.
         11   -1    0    0    0    0 -0.00000000000E+00 -0.00000000000E+00 -0.45593999997E+02  0.45594000000E+02  0.51100000000E-03 0.  1.
    9900012    2    1    2    0    0 -0.25213017866E+01  0.37067843999E+02 -0.22433039244E+02  0.47787271076E+02  0.20000000143E+02 0.  0.
         12    1    1    2    0    0  0.25213017866E+01 -0.37067843999E+02  0.22433039244E+02  0.43400728924E+02  0.00000000000E+00 0. -1.
         11    1    3    3    0    0 -0.38061873688E-05  0.11886518233E+01  0.16061292627E+01  0.19981352874E+01  0.51100000000E-03 0. -1.
        -11    1    3    3    0    0  0.36144567933E+01  0.27478626748E+02 -0.12973639526E+02  0.30601544874E+02  0.51100000000E-03 0.  1.
         12    1    3    3    0    0 -0.61357547738E+01  0.84005654269E+01 -0.11065528981E+02  0.15187590914E+02  0.00000000000E+00 0. -1.
</event>
<event>
 7    1  0.2318319E-009  0.4778728E+02  0.7816164E-02  0.1312668E+00
        -11   -1    0    0    0    0  0.00000000000E+00  0.00000000000E+00  0.45593999997E+02  0.45594000000E+02  0.51100000000E-03 0. -1.
         11   -1    0    0    0    0 -0.00000000000E+00 -0.00000000000E+00 -0.45593999997E+02  0.45594000000E+02  0.51100000000E-03 0.  1.
    9900012    2    1    2    0    0 -0.38943447652E+02  0.14130875970E+02 -0.12936317072E+02  0.47787284913E+02  0.20000063230E+02 0.  0.
         12    1    1    2    0    0  0.38943447652E+02 -0.14130875970E+02  0.12936317072E+02  0.43400715087E+02  0.00000000000E+00 0. -1.
         11    1    3    3    0    0 -0.60754916697E+01 -0.10446654026E+01  0.56338785015E+00  0.61903417485E+01  0.51100000000E-03 0. -1.
        -11    1    3    3    0    0 -0.38415739726E+01  0.33439758431E+01  0.32653783083E+01  0.60500050234E+01  0.51100000000E-03 0.  1.
        -12    1    3    3    0    0 -0.29026382010E+02  0.11831565530E+02 -0.16765083230E+02  0.35546938141E+02  0.00000000000E+00 0.  1.
</event>
<event>
 7    1  0.2318319E-009  0.4778730E+02  0.7816164E-02  0.1312668E+00
        -11   -1    0    0    0    0  0.00000000000E+00  0.00000000000E+00  0.45593999997E+02  0.45594000000E+02  0.51100000000E-03 0.  1.
         11   -1    0    0    0    0 -0.00000000000E+00 -0.00000000000E+00 -0.45593999997E+02  0.45594000000E+02  0.51100000000E-03 0. -1.
    9900012    2    1    2    0    0  0.66166136279E+01 -0.23793555693E+02 -0.35689047341E+02  0.47787297603E+02  0.20000121091E+02 0.  0.
         12    1    1    2    0    0 -0.66166136279E+01  0.23793555693E+02  0.35689047341E+02  0.43400702397E+02  0.00000000000E+00 0. -1.
         11    1    3    3    0    0 -0.16433762876E+01 -0.54507676841E+01 -0.14085624686E+01  0.58647764201E+01  0.51100000000E-03 0. -1.
        -11    1    3    3    0    0  0.21161662504E+01 -0.11628940827E+02 -0.84334104664E+01  0.14520083908E+02  0.51100000000E-03 0.  1.
        -12    1    3    3    0    0  0.61438236650E+01 -0.67138471823E+01 -0.25847074406E+02  0.27402437274E+02  0.00000000000E+00 0.  1.
</event>
<event>
 7    1  0.2318319E-009  0.4778727E+02  0.7816164E-02  0.1312668E+00
        -11   -1    0    0    0    0  0.00000000000E+00  0.00000000000E+00  0.45593999997E+02  0.45594000000E+02  0.51100000000E-03 0.  1.
         11   -1    0    0    0    0 -0.00000000000E+00 -0.00000000000E+00 -0.45593999997E+02  0.45594000000E+02  0.51100000000E-03 0. -1.
    9900012    2    1    2    0    0 -0.10087317304E+02 -0.48822989915E+01  0.41928900575E+02  0.47787268240E+02  0.19999987214E+02 0.  0.
         12    1    1    2    0    0  0.10087317304E+02  0.48822989915E+01 -0.41928900575E+02  0.43400731760E+02  0.00000000000E+00 0. -1.
         11    1    3    3    0    0 -0.10210325851E+02  0.54636074981E-01  0.14622980972E+02  0.17834946366E+02  0.51100000000E-03 0.  1.
        -11    1    3    3    0    0 -0.19250370121E+01 -0.63121557403E+01  0.26571043499E+02  0.27378265659E+02  0.51100000000E-03 0. -1.
         12    1    3    3    0    0  0.20480455590E+01  0.13752206738E+01  0.73487610416E+00  0.25740562158E+01  0.00000000000E+00 0. -1.
</event>
<event>
 7    1  0.2318319E-009  0.4778727E+02  0.7816164E-02  0.1312668E+00
        -11   -1    0    0    0    0  0.00000000000E+00  0.00000000000E+00  0.45593999997E+02  0.45594000000E+02  0.51100000000E-03 0.  1.
         11   -1    0    0    0    0 -0.00000000000E+00 -0.00000000000E+00 -0.45593999997E+02  0.45594000000E+02  0.51100000000E-03 0. -1.
    9900012    2    1    2    0    0 -0.15149498123E+01 -0.30418972067E+02  0.30919483063E+02  0.47787269966E+02  0.19999995084E+02 0.  0.
         12    1    1    2    0    0  0.15149498123E+01  0.30418972067E+02 -0.30919483063E+02  0.43400730034E+02  0.00000000000E+00 0. -1.
         11    1    3    3    0    0  0.75690540190E+00 -0.86406523677E+00 -0.77620256920E+00  0.13863640252E+01  0.51100000000E-03 0. -1.
        -11    1    3    3    0    0 -0.61352613519E+01 -0.26134196874E+02  0.19563656541E+02  0.33217078975E+02  0.51100000000E-03 0.  1.
        -12    1    3    3    0    0  0.38634061378E+01 -0.34207099560E+01  0.12132029092E+02  0.13183826966E+02  0.00000000000E+00 0.  1.
</event>
<event>
 7    1  0.2318319E-009  0.4778728E+02  0.7816164E-02  0.1312668E+00
        -11   -1    0    0    0    0  0.00000000000E+00  0.00000000000E+00  0.45593999997E+02  0.45594000000E+02  0.51100000000E-03 0.  1.
         11   -1    0    0    0    0 -0.00000000000E+00 -0.00000000000E+00 -0.45593999997E+02  0.45594000000E+02  0.51100000000E-03 0. -1.
    9900012    2    1    2    0    0 -0.92374089224E+01  0.41113255039E+02  0.10391978775E+02  0.47787277812E+02  0.20000030858E+02 0.  0.
         12    1    1    2    0    0  0.92374089224E+01 -0.41113255039E+02 -0.10391978775E+02  0.43400722188E+02  0.00000000000E+00 0. -1.
         11    1    3    3    0    0 -0.48517327517E+01  0.23167838338E+02  0.32908544996E+01  0.23898070373E+02  0.51100000000E-03 0. -1.
        -11    1    3    3    0    0 -0.35404973329E+01  0.87767288902E+01 -0.32770884427E+01  0.10015258374E+02  0.51100000000E-03 0.  1.
        -12    1    3    3    0    0 -0.84517883788E+00  0.91686878115E+01  0.10378212718E+02  0.13873949066E+02  0.00000000000E+00 0.  1.
</event>
<event>
 7    1  0.2318319E-009  0.4778727E+02  0.7816164E-02  0.1312668E+00
        -11   -1    0    0    0    0  0.00000000000E+00  0.00000000000E+00  0.45593999997E+02  0.45594000000E+02  0.51100000000E-03 0.  1.
         11   -1    0    0    0    0 -0.00000000000E+00 -0.00000000000E+00 -0.45593999997E+02  0.45594000000E+02  0.51100000000E-03 0. -1.
    9900012    2    1    2    0    0  0.72947233938E+01  0.25679107949E+01  0.42706165249E+02  0.47787266071E+02  0.19999977326E+02 0.  0.
         12    1    1    2    0    0 -0.72947233938E+01 -0.25679107949E+01 -0.42706165249E+02  0.43400733929E+02  0.00000000000E+00 0. -1.
         11    1    3    3    0    0  0.53853141580E+01  0.52218969696E+00  0.14588106190E+01  0.56037861614E+01  0.51100000000E-03 0. -1.
        -11    1    3    3    0    0 -0.13776213026E+01  0.20581735114E+01  0.34689244657E+01  0.42623181329E+01  0.51100000000E-03 0.  1.
        -12    1    3    3    0    0  0.32870305384E+01 -0.12452413417E-01  0.37778430165E+02  0.37921161777E+02  0.00000000000E+00 0.  1.
</event>
<event>
 7    1  0.2318319E-009  0.4778727E+02  0.7816164E-02  0.1312668E+00
        -11   -1    0    0    0    0  0.00000000000E+00  0.00000000000E+00  0.45593999997E+02  0.45594000000E+02  0.51100000000E-03 0.  1.
         11   -1    0    0    0    0 -0.00000000000E+00 -0.00000000000E+00 -0.45593999997E+02  0.45594000000E+02  0.51100000000E-03 0. -1.
    9900012    2    1    2    0    0 -0.43390509819E+02 -0.69664789346E+00 -0.63376254548E+00  0.47787270563E+02  0.19999997806E+02 0.  0.
         12    1    1    2    0    0  0.43390509819E+02  0.69664789346E+00  0.63376254548E+00  0.43400729437E+02  0.00000000000E+00 0. -1.
         11    1    3    3    0    0 -0.14235636252E+02 -0.20732571768E+01  0.61338349743E+01  0.15638915134E+02  0.51100000000E-03 0. -1.
        -11    1    3    3    0    0 -0.13166836770E+02  0.29227031414E+01  0.23317959831E+01  0.13687405048E+02  0.51100000000E-03 0.  1.
         12    1    3    3    0    0 -0.15988036797E+02 -0.15460938581E+01 -0.90993935029E+01  0.18460950381E+02  0.00000000000E+00 0. -1.
</event>
<event>
 7    1  0.2318319E-009  0.4778727E+02  0.7816164E-02  0.1312668E+00
        -11   -1    0    0    0    0  0.00000000000E+00  0.00000000000E+00  0.45593999997E+02  0.45594000000E+02  0.51100000000E-03 0.  1.
         11   -1    0    0    0    0 -0.00000000000E+00 -0.00000000000E+00 -0.45593999997E+02  0.45594000000E+02  0.51100000000E-03 0. -1.
    9900012    2    1    2    0    0 -0.17000284553E+02 -0.16133107747E+02  0.36528567492E+02  0.47787273238E+02  0.20000010001E+02 0.  0.
         12    1    1    2    0    0  0.17000284553E+02  0.16133107747E+02 -0.36528567492E+02  0.43400726762E+02  0.00000000000E+00 0. -1.
         11    1    3    3    0    0  0.13645945625E+01 -0.32322312187E+01  0.58232340258E+01  0.67984918733E+01  0.51100000000E-03 0. -1.
        -11    1    3    3    0    0 -0.11565934317E+02 -0.15948711758E+02  0.22407923867E+02  0.29837012177E+02  0.51100000000E-03 0.  1.
         12    1    3    3    0    0 -0.67989447982E+01  0.30478352296E+01  0.82974095998E+01  0.11151769188E+02  0.00000000000E+00 0. -1.
</event>
<event>
 7    1  0.2318319E-009  0.4778727E+02  0.7816164E-02  0.1312668E+00
        -11   -1    0    0    0    0  0.00000000000E+00  0.00000000000E+00  0.45593999997E+02  0.45594000000E+02  0.51100000000E-03 0. -1.
         11   -1    0    0    0    0 -0.00000000000E+00 -0.00000000000E+00 -0.45593999997E+02  0.45594000000E+02  0.51100000000E-03 0.  1.
    9900012    2    1    2    0    0  0.38774835038E+02 -0.19362452722E+02 -0.22871167572E+01  0.47787270620E+02  0.19999998065E+02 0.  0.
         12    1    1    2    0    0 -0.38774835038E+02  0.19362452722E+02  0.22871167572E+01  0.43400729380E+02  0.00000000000E+00 0. -1.
         11    1    3    3    0    0  0.91147948422E+01 -0.20470168584E+01  0.11413033456E-01  0.93418356629E+01  0.51100000000E-03 0. -1.
        -11    1    3    3    0    0  0.25040334415E+02 -0.54422170413E+01 -0.19774903073E+01  0.25701100017E+02  0.51100000000E-03 0.  1.
         12    1    3    3    0    0  0.46197057814E+01 -0.11873218822E+02 -0.32103948333E+00  0.12744334940E+02  0.00000000000E+00 0. -1.
</event>
<event>
 7    1  0.2318319E-009  0.4778727E+02  0.7816164E-02  0.1312668E+00
        -11   -1    0    0    0    0  0.00000000000E+00  0.00000000000E+00  0.45593999997E+02  0.45594000000E+02  0.51100000000E-03 0.  1.
         11   -1    0    0    0    0 -0.00000000000E+00 -0.00000000000E+00 -0.45593999997E+02  0.45594000000E+02  0.51100000000E-03 0. -1.
    9900012    2    1    2    0    0  0.14979082956E+02 -0.23834474920E+02  0.33032836129E+02  0.47787269780E+02  0.19999994235E+02 0.  0.
         12    1    1    2    0    0 -0.14979082956E+02  0.23834474920E+02 -0.33032836129E+02  0.43400730220E+02  0.00000000000E+00 0. -1.
         11    1    3    3    0    0  0.33562719669E+01 -0.60139945883E+01  0.57518331493E+01  0.89730862730E+01  0.51100000000E-03 0. -1.
        -11    1    3    3    0    0  0.11340283993E+02 -0.19337774535E+02  0.28901312522E+02  0.36576460063E+02  0.51100000000E-03 0.  1.
         12    1    3    3    0    0  0.28252699606E+00  0.15172942028E+01 -0.16203095421E+01  0.22377234444E+01  0.00000000000E+00 0. -1.
</event>
<event>
 7    1  0.2318319E-009  0.4778727E+02  0.7816164E-02  0.1312668E+00
        -11   -1    0    0    0    0  0.00000000000E+00  0.00000000000E+00  0.45593999997E+02  0.45594000000E+02  0.51100000000E-03 0.  1.
         11   -1    0    0    0    0 -0.00000000000E+00 -0.00000000000E+00 -0.45593999997E+02  0.45594000000E+02  0.51100000000E-03 0. -1.
    9900012    2    1    2    0    0  0.20015918697E+02  0.38501539340E+02 -0.78603582951E+00  0.47787269763E+02  0.19999994155E+02 0.  0.
         12    1    1    2    0    0 -0.20015918697E+02 -0.38501539340E+02  0.78603582951E+00  0.43400730237E+02  0.00000000000E+00 0. -1.
         11    1    3    3    0    0 -0.22756182246E+01  0.38308957713E+01 -0.53915159330E+00  0.44883054059E+01  0.51100000000E-03 0. -1.
        -11    1    3    3    0    0  0.48756344026E+01  0.15276936754E+02  0.48207758731E+01  0.16745043676E+02  0.51100000000E-03 0.  1.
        -12    1    3    3    0    0  0.17415902519E+02  0.19393706814E+02 -0.50676601094E+01  0.26553920681E+02  0.00000000000E+00 0.  1.
</event>
<event>
 7    1  0.2318319E-009  0.4778727E+02  0.7816164E-02  0.1312668E+00
        -11   -1    0    0    0    0  0.00000000000E+00  0.00000000000E+00  0.45593999997E+02  0.45594000000E+02  0.51100000000E-03 0. -1.
         11   -1    0    0    0    0 -0.00000000000E+00 -0.00000000000E+00 -0.45593999997E+02  0.45594000000E+02  0.51100000000E-03 0.  1.
    9900012    2    1    2    0    0  0.50639981120E+01  0.88139327760E+01 -0.42193527720E+02  0.47787271097E+02  0.20000000241E+02 0.  0.
         12    1    1    2    0    0 -0.50639981120E+01 -0.88139327760E+01  0.42193527720E+02  0.43400728903E+02  0.00000000000E+00 0. -1.
         11    1    3    3    0    0  0.54515192653E+01  0.60090839836E+00 -0.52158891496E+01  0.75687286307E+01  0.51100000000E-03 0. -1.
        -11    1    3    3    0    0  0.57723499280E+01  0.44167793738E+00 -0.15999152015E+02  0.17014345963E+02  0.51100000000E-03 0.  1.
        -12    1    3    3    0    0 -0.61598710813E+01  0.77713464402E+01 -0.20978486555E+02  0.23204196504E+02  0.00000000000E+00 0.  1.
</event>
<event>
 7    1  0.2318319E-009  0.4778726E+02  0.7816164E-02  0.1312668E+00
        -11   -1    0    0    0    0  0.00000000000E+00  0.00000000000E+00  0.45593999997E+02  0.45594000000E+02  0.51100000000E-03 0. -1.
         11   -1    0    0    0    0 -0.00000000000E+00 -0.00000000000E+00 -0.45593999997E+02  0.45594000000E+02  0.51100000000E-03 0.  1.
    9900012    2    1    2    0    0  0.16240877814E+02  0.22430698733E+02 -0.33417389419E+02  0.47787259529E+02  0.19999947498E+02 0.  0.
         12    1    1    2    0    0 -0.16240877814E+02 -0.22430698733E+02  0.33417389419E+02  0.43400740471E+02  0.00000000000E+00 0. -1.
         11    1    3    3    0    0  0.17596740000E+01  0.20601874624E+01  0.57262777847E+00  0.27692467930E+01  0.51100000000E-03 0. -1.
        -11    1    3    3    0    0  0.32074899371E+01  0.87456745191E+01 -0.25585785138E+01  0.96602866812E+01  0.51100000000E-03 0.  1.
        -12    1    3    3    0    0  0.11273713877E+02  0.11624836751E+02 -0.31431438683E+02  0.35357726055E+02  0.00000000000E+00 0.  1.
</event>
<event>
 7    1  0.2318319E-009  0.4778727E+02  0.7816164E-02  0.1312668E+00
        -11   -1    0    0    0    0  0.00000000000E+00  0.00000000000E+00  0.45593999997E+02  0.45594000000E+02  0.51100000000E-03 0. -1.
         11   -1    0    0    0    0 -0.00000000000E+00 -0.00000000000E+00 -0.45593999997E+02  0.45594000000E+02  0.51100000000E-03 0.  1.
    9900012    2    1    2    0    0 -0.12151976308E+02  0.34202239711E+02  0.23794111130E+02  0.47787268970E+02  0.19999990543E+02 0.  0.
         12    1    1    2    0    0  0.12151976308E+02 -0.34202239711E+02 -0.23794111130E+02  0.43400731030E+02  0.00000000000E+00 0. -1.
         11    1    3    3    0    0 -0.54019974306E+01  0.47471004299E+01  0.85705530907E+01  0.11187981019E+02  0.51100000000E-03 0. -1.
        -11    1    3    3    0    0 -0.92787707423E+01  0.10316762675E+02  0.49573187212E+01  0.14734523669E+02  0.51100000000E-03 0.  1.
         12    1    3    3    0    0  0.25287918652E+01  0.19138376606E+02  0.10266239319E+02  0.21864764283E+02  0.00000000000E+00 0. -1.
</event>
<event>
 7    1  0.2318319E-009  0.4778727E+02  0.7816164E-02  0.1312668E+00
        -11   -1    0    0    0    0  0.00000000000E+00  0.00000000000E+00  0.45593999997E+02  0.45594000000E+02  0.51100000000E-03 0.  1.
         11   -1    0    0    0    0 -0.00000000000E+00 -0.00000000000E+00 -0.45593999997E+02  0.45594000000E+02  0.51100000000E-03 0. -1.
    9900012    2    1    2    0    0 -0.36621150664E+02  0.19306962633E+02  0.13029046704E+02  0.47787267978E+02  0.19999986017E+02 0.  0.
         12    1    1    2    0    0  0.36621150664E+02 -0.19306962633E+02 -0.13029046704E+02  0.43400732022E+02  0.00000000000E+00 0. -1.
         11    1    3    3    0    0 -0.20309293479E+02  0.15009173555E+02  0.16918730479E+02  0.30397140222E+02  0.51100000000E-03 0.  1.
        -11    1    3    3    0    0 -0.41487904626E+01  0.39441230672E+00 -0.72784018800E+00  0.42305761984E+01  0.51100000000E-03 0. -1.
        -12    1    3    3    0    0 -0.12163066722E+02  0.39033767712E+01 -0.31618435868E+01  0.13159551557E+02  0.00000000000E+00 0.  1.
</event>
<event>
 7    1  0.2318319E-009  0.4778729E+02  0.7816164E-02  0.1312668E+00
        -11   -1    0    0    0    0  0.00000000000E+00  0.00000000000E+00  0.45593999997E+02  0.45594000000E+02  0.51100000000E-03 0.  1.
         11   -1    0    0    0    0 -0.00000000000E+00 -0.00000000000E+00 -0.45593999997E+02  0.45594000000E+02  0.51100000000E-03 0. -1.
    9900012    2    1    2    0    0  0.33887415802E+02  0.26434693358E+02 -0.60391949953E+01  0.47787287576E+02  0.20000075375E+02 0.  0.
         12    1    1    2    0    0 -0.33887415802E+02 -0.26434693358E+02  0.60391949953E+01  0.43400712424E+02  0.00000000000E+00 0. -1.
         11    1    3    3    0    0  0.69021903768E+01  0.14956077739E+02 -0.27268784699E+01  0.16696118105E+02  0.51100000000E-03 0.  1.
        -11    1    3    3    0    0  0.13831540270E+02  0.88199004847E+01 -0.58832706967E+01  0.17427421644E+02  0.51100000000E-03 0. -1.
        -12    1    3    3    0    0  0.13153685155E+02  0.26587151347E+01  0.25709541714E+01  0.13663747827E+02  0.00000000000E+00 0.  1.
</event>
<event>
 7    1  0.2318319E-009  0.4778727E+02  0.7816164E-02  0.1312668E+00
        -11   -1    0    0    0    0  0.00000000000E+00  0.00000000000E+00  0.45593999997E+02  0.45594000000E+02  0.51100000000E-03 0. -1.
         11   -1    0    0    0    0 -0.00000000000E+00 -0.00000000000E+00 -0.45593999997E+02  0.45594000000E+02  0.51100000000E-03 0.  1.
    9900012    2    1    2    0    0 -0.20392681011E+02 -0.72713383991E+01 -0.37615014490E+02  0.47787272863E+02  0.20000008290E+02 0.  0.
         12    1    1    2    0    0  0.20392681011E+02  0.72713383991E+01  0.37615014490E+02  0.43400727137E+02  0.00000000000E+00 0. -1.
         11    1    3    3    0    0 -0.33892911049E+01  0.13484641811E+01 -0.23022652252E+01  0.43134760078E+01  0.51100000000E-03 0. -1.
        -11    1    3    3    0    0 -0.13457882417E+02 -0.64401725804E+01 -0.10329649453E+02  0.18146406809E+02  0.51100000000E-03 0.  1.
         12    1    3    3    0    0 -0.35455074894E+01 -0.21796299998E+01 -0.24983099812E+02  0.25327390046E+02  0.00000000000E+00 0. -1.
</event>
<event>
 7    1  0.2318319E-009  0.4778727E+02  0.7816164E-02  0.1312668E+00
        -11   -1    0    0    0    0  0.00000000000E+00  0.00000000000E+00  0.45593999997E+02  0.45594000000E+02  0.51100000000E-03 0.  1.
         11   -1    0    0    0    0 -0.00000000000E+00 -0.00000000000E+00 -0.45593999997E+02  0.45594000000E+02  0.51100000000E-03 0. -1.
    9900012    2    1    2    0    0 -0.12689853783E+02  0.24882712785E+02  0.33218089415E+02  0.47787271331E+02  0.20000001308E+02 0.  0.
         12    1    1    2    0    0  0.12689853783E+02 -0.24882712785E+02 -0.33218089415E+02  0.43400728669E+02  0.00000000000E+00 0. -1.
         11    1    3    3    0    0 -0.21180183040E+01  0.90756101817E+00 -0.24092961574E+01  0.33338231466E+01  0.51100000000E-03 0. -1.
        -11    1    3    3    0    0 -0.44823610090E+00  0.48166415415E+01  0.78987708012E+01  0.92623718222E+01  0.51100000000E-03 0.  1.
         12    1    3    3    0    0 -0.10123599378E+02  0.19158510226E+02  0.27728614771E+02  0.35191076363E+02  0.00000000000E+00 0. -1.
</event>
<event>
 7    1  0.2318319E-009  0.4778727E+02  0.7816164E-02  0.1312668E+00
        -11   -1    0    0    0    0  0.00000000000E+00  0.00000000000E+00  0.45593999997E+02  0.45594000000E+02  0.51100000000E-03 0.  1.
         11   -1    0    0    0    0 -0.00000000000E+00 -0.00000000000E+00 -0.45593999997E+02  0.45594000000E+02  0.51100000000E-03 0. -1.
    9900012    2    1    2    0    0  0.13180637780E+01 -0.36648976739E+02  0.23210743082E+02  0.47787269793E+02  0.19999994294E+02 0.  0.
         12    1    1    2    0    0 -0.13180637780E+01  0.36648976739E+02 -0.23210743082E+02  0.43400730207E+02  0.00000000000E+00 0. -1.
         11    1    3    3    0    0 -0.32852106348E+01 -0.38041203495E+01  0.59928172140E+00  0.50619244751E+01  0.51100000000E-03 0. -1.
        -11    1    3    3    0    0  0.23877872786E+01 -0.24265658438E+01  0.84283414407E+01  0.90899224191E+01  0.51100000000E-03 0.  1.
         12    1    3    3    0    0  0.22154871342E+01 -0.30418290545E+02  0.14183119919E+02  0.33635422899E+02  0.00000000000E+00 0. -1.
</event>
<event>
 7    1  0.2318319E-009  0.4778727E+02  0.7816164E-02  0.1312668E+00
        -11   -1    0    0    0    0  0.00000000000E+00  0.00000000000E+00  0.45593999997E+02  0.45594000000E+02  0.51100000000E-03 0.  1.
         11   -1    0    0    0    0 -0.00000000000E+00 -0.00000000000E+00 -0.45593999997E+02  0.45594000000E+02  0.51100000000E-03 0. -1.
    9900012    2    1    2    0    0  0.44119471124E+01  0.40098778177E+02  0.16007685993E+02  0.47787270750E+02  0.19999998656E+02 0.  0.
         12    1    1    2    0    0 -0.44119471124E+01 -0.40098778177E+02 -0.16007685993E+02  0.43400729250E+02  0.00000000000E+00 0. -1.
         11    1    3    3    0    0  0.90304842359E+01  0.25179115289E+02  0.10444456925E+02  0.28716270179E+02  0.51100000000E-03 0.  1.
        -11    1    3    3    0    0 -0.30474207668E+01  0.39597345933E+01  0.62214118581E+01  0.79794885268E+01  0.51100000000E-03 0. -1.
        -12    1    3    3    0    0 -0.15711163566E+01  0.10959928295E+02 -0.65818279011E+00  0.11091512044E+02  0.00000000000E+00 0.  1.
</event>
<event>
 7    1  0.2318319E-009  0.4778727E+02  0.7816164E-02  0.1312668E+00
        -11   -1    0    0    0    0  0.00000000000E+00  0.00000000000E+00  0.45593999997E+02  0.45594000000E+02  0.51100000000E-03 0.  1.
         11   -1    0    0    0    0 -0.00000000000E+00 -0.00000000000E+00 -0.45593999997E+02  0.45594000000E+02  0.51100000000E-03 0. -1.
    9900012    2    1    2    0    0  0.31806327188E+02 -0.15215093730E+02  0.25307744145E+02  0.47787269129E+02  0.19999991269E+02 0.  0.
         12    1    1    2    0    0 -0.31806327188E+02  0.15215093730E+02 -0.25307744145E+02  0.43400730871E+02  0.00000000000E+00 0. -1.
         11    1    3    3    0    0  0.10673526309E+02  0.15232013299E+00  0.42966127529E+01  0.11506878234E+02  0.51100000000E-03 0. -1.
        -11    1    3    3    0    0  0.18236715164E+02 -0.95413876646E+01  0.86784787289E+01  0.22336782487E+02  0.51100000000E-03 0.  1.
        -12    1    3    3    0    0  0.28960857145E+01 -0.58260261980E+01  0.12332652664E+02  0.13943608408E+02  0.00000000000E+00 0.  1.
</event>
<event>
 7    1  0.2318319E-009  0.4778727E+02  0.7816164E-02  0.1312668E+00
        -11   -1    0    0    0    0  0.00000000000E+00  0.00000000000E+00  0.45593999997E+02  0.45594000000E+02  0.51100000000E-03 0.  1.
         11   -1    0    0    0    0 -0.00000000000E+00 -0.00000000000E+00 -0.45593999997E+02  0.45594000000E+02  0.51100000000E-03 0. -1.
    9900012    2    1    2    0    0  0.26521612715E+02  0.29088068779E+01  0.34231067747E+02  0.47787273076E+02  0.20000009262E+02 0.  0.
         12    1    1    2    0    0 -0.26521612715E+02 -0.29088068779E+01 -0.34231067747E+02  0.43400726924E+02  0.00000000000E+00 0. -1.
         11    1    3    3    0    0  0.29747340793E+01 -0.47932657724E+01  0.48816255376E+01  0.74602082918E+01  0.51100000000E-03 0. -1.
        -11    1    3    3    0    0  0.16816774645E+01  0.25837358249E+01 -0.33992545983E+00  0.31014963303E+01  0.51100000000E-03 0.  1.
        -12    1    3    3    0    0  0.21865201171E+02  0.51183368254E+01  0.29689367669E+02  0.37225568454E+02  0.00000000000E+00 0.  1.
</event>
<event>
 7    1  0.2318319E-009  0.4778727E+02  0.7816164E-02  0.1312668E+00
        -11   -1    0    0    0    0  0.00000000000E+00  0.00000000000E+00  0.45593999997E+02  0.45594000000E+02  0.51100000000E-03 0. -1.
         11   -1    0    0    0    0 -0.00000000000E+00 -0.00000000000E+00 -0.45593999997E+02  0.45594000000E+02  0.51100000000E-03 0.  1.
    9900012    2    1    2    0    0 -0.13649568257E+02  0.24296270594E+02 -0.33271662709E+02  0.47787273995E+02  0.20000013452E+02 0.  0.
         12    1    1    2    0    0  0.13649568257E+02 -0.24296270594E+02  0.33271662709E+02  0.43400726005E+02  0.00000000000E+00 0. -1.
         11    1    3    3    0    0 -0.32672040757E+01 -0.71236579050E+00 -0.13082769299E+01  0.35907765564E+01  0.51100000000E-03 0. -1.
        -11    1    3    3    0    0 -0.62111594966E+01  0.15623701696E+02 -0.90665493500E+01  0.19101855260E+02  0.51100000000E-03 0.  1.
         12    1    3    3    0    0 -0.41712046846E+01  0.93849346877E+01 -0.22896836429E+02  0.25094642179E+02  0.00000000000E+00 0. -1.
</event>
<event>
 7    1  0.2318319E-009  0.4778727E+02  0.7816164E-02  0.1312668E+00
        -11   -1    0    0    0    0  0.00000000000E+00  0.00000000000E+00  0.45593999997E+02  0.45594000000E+02  0.51100000000E-03 0. -1.
         11   -1    0    0    0    0 -0.00000000000E+00 -0.00000000000E+00 -0.45593999997E+02  0.45594000000E+02  0.51100000000E-03 0.  1.
    9900012    2    1    2    0    0  0.36776339521E+02 -0.45234536559E+01 -0.22597849982E+02  0.47787267226E+02  0.19999982588E+02 0.  0.
         12    1    1    2    0    0 -0.36776339521E+02  0.45234536559E+01  0.22597849982E+02  0.43400732774E+02  0.00000000000E+00 0. -1.
         11    1    3    3    0    0  0.12687464260E+02 -0.33443118568E+01 -0.10940082838E+02  0.17083371562E+02  0.51100000000E-03 0. -1.
        -11    1    3    3    0    0  0.18454067898E+02 -0.73702569628E+01 -0.96715917958E+01  0.22100067824E+02  0.51100000000E-03 0.  1.
         12    1    3    3    0    0  0.56348073627E+01  0.61911151637E+01 -0.19861753475E+01  0.86038278397E+01  0.00000000000E+00 0. -1.
</event>
<event>
 7    1  0.2318319E-009  0.4778727E+02  0.7816164E-02  0.1312668E+00
        -11   -1    0    0    0    0  0.00000000000E+00  0.00000000000E+00  0.45593999997E+02  0.45594000000E+02  0.51100000000E-03 0.  1.
         11   -1    0    0    0    0 -0.00000000000E+00 -0.00000000000E+00 -0.45593999997E+02  0.45594000000E+02  0.51100000000E-03 0. -1.
    9900012    2    1    2    0    0 -0.29803736670E+01  0.50829456859E+01  0.42998886836E+02  0.47787271514E+02  0.20000002139E+02 0.  0.
         12    1    1    2    0    0  0.29803736670E+01 -0.50829456859E+01 -0.42998886836E+02  0.43400728486E+02  0.00000000000E+00 0. -1.
         11    1    3    3    0    0  0.15348629782E+01 -0.20246824643E+01  0.19343160496E+01  0.31932306970E+01  0.51100000000E-03 0. -1.
        -11    1    3    3    0    0  0.38523349022E+01  0.95308954407E+00  0.25966055643E+02  0.26267563835E+02  0.51100000000E-03 0.  1.
         12    1    3    3    0    0 -0.83675715474E+01  0.61545386062E+01  0.15098515143E+02  0.18326476982E+02  0.00000000000E+00 0. -1.
</event>
<event>
 7    1  0.2318319E-009  0.4778727E+02  0.7816164E-02  0.1312668E+00
        -11   -1    0    0    0    0  0.00000000000E+00  0.00000000000E+00  0.45593999997E+02  0.45594000000E+02  0.51100000000E-03 0.  1.
         11   -1    0    0    0    0 -0.00000000000E+00 -0.00000000000E+00 -0.45593999997E+02  0.45594000000E+02  0.51100000000E-03 0. -1.
    9900012    2    1    2    0    0 -0.39128014952E+02  0.16343330559E+02  0.92475638785E+01  0.47787269067E+02  0.19999990985E+02 0.  0.
         12    1    1    2    0    0  0.39128014952E+02 -0.16343330559E+02 -0.92475638785E+01  0.43400730933E+02  0.00000000000E+00 0. -1.
         11    1    3    3    0    0 -0.41581089511E+01  0.48897214690E+01  0.72069429528E+01  0.96508690324E+01  0.51100000000E-03 0. -1.
        -11    1    3    3    0    0 -0.14265313156E+02  0.92883956032E+01  0.30528040917E+01  0.17294307312E+02  0.51100000000E-03 0.  1.
         12    1    3    3    0    0 -0.20704592844E+02  0.21652134868E+01 -0.10121831660E+01  0.20842092722E+02  0.00000000000E+00 0. -1.
</event>
<event>
 7    1  0.2318319E-009  0.4778727E+02  0.7816164E-02  0.1312668E+00
        -11   -1    0    0    0    0  0.00000000000E+00  0.00000000000E+00  0.45593999997E+02  0.45594000000E+02  0.51100000000E-03 0. -1.
         11   -1    0    0    0    0 -0.00000000000E+00 -0.00000000000E+00 -0.45593999997E+02  0.45594000000E+02  0.51100000000E-03 0.  1.
    9900012    2    1    2    0    0  0.16833006924E+02  0.38657766896E+02 -0.10288371223E+02  0.47787266758E+02  0.19999980458E+02 0.  0.
         12    1    1    2    0    0 -0.16833006924E+02 -0.38657766896E+02  0.10288371223E+02  0.43400733242E+02  0.00000000000E+00 0. -1.
         11    1    3    3    0    0  0.48877120409E+01  0.74003127684E+01  0.45103315734E+00  0.88801908332E+01  0.51100000000E-03 0.  1.
        -11    1    3    3    0    0  0.14831277525E+02  0.16698397827E+02 -0.85001292580E+01  0.23896767159E+02  0.51100000000E-03 0. -1.
         12    1    3    3    0    0 -0.28859826412E+01  0.14559056301E+02 -0.22392751220E+01  0.15010308766E+02  0.00000000000E+00 0. -1.
</event>
<event>
 7    1  0.2318319E-009  0.4778728E+02  0.7816164E-02  0.1312668E+00
        -11   -1    0    0    0    0  0.00000000000E+00  0.00000000000E+00  0.45593999997E+02  0.45594000000E+02  0.51100000000E-03 0.  1.
         11   -1    0    0    0    0 -0.00000000000E+00 -0.00000000000E+00 -0.45593999997E+02  0.45594000000E+02  0.51100000000E-03 0. -1.
    9900012    2    1    2    0    0 -0.28472916125E+02 -0.27207190511E+02  0.18239642668E+02  0.47787277278E+02  0.20000028419E+02 0.  0.
         12    1    1    2    0    0  0.28472916125E+02  0.27207190511E+02 -0.18239642668E+02  0.43400722722E+02  0.00000000000E+00 0. -1.
         11    1    3    3    0    0 -0.50037014203E+00  0.15715827640E+01  0.29284014599E+00  0.16751114218E+01  0.51100000000E-03 0. -1.
        -11    1    3    3    0    0 -0.99748928872E+01 -0.55401870873E+01  0.11128979399E+02  0.15938831318E+02  0.51100000000E-03 0.  1.
        -12    1    3    3    0    0 -0.17997653096E+02 -0.23238586188E+02  0.68178231230E+01  0.30173334537E+02  0.00000000000E+00 0.  1.
</event>
<event>
 7    1  0.2318319E-009  0.4778726E+02  0.7816164E-02  0.1312668E+00
        -11   -1    0    0    0    0  0.00000000000E+00  0.00000000000E+00  0.45593999997E+02  0.45594000000E+02  0.51100000000E-03 0.  1.
         11   -1    0    0    0    0 -0.00000000000E+00 -0.00000000000E+00 -0.45593999997E+02  0.45594000000E+02  0.51100000000E-03 0. -1.
    9900012    2    1    2    0    0 -0.19093637054E+02 -0.17428777456E+02  0.34861087268E+02  0.47787255018E+02  0.19999926927E+02 0.  0.
         12    1    1    2    0    0  0.19093637054E+02  0.17428777456E+02 -0.34861087268E+02  0.43400744982E+02  0.00000000000E+00 0. -1.
         11    1    3    3    0    0 -0.90009283887E+01 -0.47062276398E+01  0.18084178475E+02  0.20741330763E+02  0.51100000000E-03 0. -1.
        -11    1    3    3    0    0 -0.60957020969E+01 -0.89939466720E+01  0.18378587382E+02  0.21349968038E+02  0.51100000000E-03 0.  1.
         12    1    3    3    0    0 -0.39970065681E+01 -0.37286031443E+01 -0.16016785897E+01  0.56959562162E+01  0.00000000000E+00 0. -1.
</event>
<event>
 7    1  0.2318319E-009  0.4778727E+02  0.7816164E-02  0.1312668E+00
        -11   -1    0    0    0    0  0.00000000000E+00  0.00000000000E+00  0.45593999997E+02  0.45594000000E+02  0.51100000000E-03 0. -1.
         11   -1    0    0    0    0 -0.00000000000E+00 -0.00000000000E+00 -0.45593999997E+02  0.45594000000E+02  0.51100000000E-03 0.  1.
    9900012    2    1    2    0    0 -0.34493406175E+02  0.26330284468E+02  0.73793798736E+00  0.47787268415E+02  0.19999988010E+02 0.  0.
         12    1    1    2    0    0  0.34493406175E+02 -0.26330284468E+02 -0.73793798736E+00  0.43400731585E+02  0.00000000000E+00 0. -1.
         11    1    3    3    0    0 -0.10796284495E+02  0.37370847528E+01 -0.30613963989E+01  0.11827836214E+02  0.51100000000E-03 0. -1.
        -11    1    3    3    0    0 -0.25557945206E+02  0.21946632100E+02  0.42018827382E+01  0.33948770854E+02  0.51100000000E-03 0.  1.
         12    1    3    3    0    0  0.18608235257E+01  0.64656761439E+00 -0.40254835203E+00  0.20106613463E+01  0.00000000000E+00 0. -1.
</event>
<event>
 7    1  0.2318319E-009  0.4778727E+02  0.7816164E-02  0.1312668E+00
        -11   -1    0    0    0    0  0.00000000000E+00  0.00000000000E+00  0.45593999997E+02  0.45594000000E+02  0.51100000000E-03 0. -1.
         11   -1    0    0    0    0 -0.00000000000E+00 -0.00000000000E+00 -0.45593999997E+02  0.45594000000E+02  0.51100000000E-03 0.  1.
    9900012    2    1    2    0    0 -0.18888786959E+02  0.34069444780E+02 -0.19134000714E+02  0.47787270470E+02  0.19999997379E+02 0.  0.
         12    1    1    2    0    0  0.18888786959E+02 -0.34069444780E+02  0.19134000714E+02  0.43400729530E+02  0.00000000000E+00 0. -1.
         11    1    3    3    0    0 -0.25542630532E+01  0.16441346259E+02 -0.46339332573E+01  0.17271811262E+02  0.51100000000E-03 0. -1.
        -11    1    3    3    0    0 -0.16762924431E+01  0.10282634152E+02 -0.64109865346E+01  0.12232876606E+02  0.51100000000E-03 0.  1.
         12    1    3    3    0    0 -0.14658231463E+02  0.73454643692E+01 -0.80890809220E+01  0.18282582602E+02  0.00000000000E+00 0. -1.
</event>
<event>
 7    1  0.2318319E-009  0.4778728E+02  0.7816164E-02  0.1312668E+00
        -11   -1    0    0    0    0  0.00000000000E+00  0.00000000000E+00  0.45593999997E+02  0.45594000000E+02  0.51100000000E-03 0.  1.
         11   -1    0    0    0    0 -0.00000000000E+00 -0.00000000000E+00 -0.45593999997E+02  0.45594000000E+02  0.51100000000E-03 0. -1.
    9900012    2    1    2    0    0 -0.23662654250E+02  0.19911015048E+02  0.30450825056E+02  0.47787280271E+02  0.20000042067E+02 0.  0.
         12    1    1    2    0    0  0.23662654250E+02 -0.19911015048E+02 -0.30450825056E+02  0.43400719729E+02  0.00000000000E+00 0. -1.
         11    1    3    3    0    0 -0.12727541896E+01  0.75065854488E+01  0.76505023642E+01  0.10793466311E+02  0.51100000000E-03 0. -1.
        -11    1    3    3    0    0 -0.96023225629E+01  0.12608103650E+02  0.15952559451E+02  0.22486730077E+02  0.51100000000E-03 0.  1.
        -12    1    3    3    0    0 -0.12787577497E+02 -0.20367405102E+00  0.68477632412E+01  0.14507083883E+02  0.00000000000E+00 0.  1.
</event>
<event>
 7    1  0.2318319E-009  0.4778727E+02  0.7816164E-02  0.1312668E+00
        -11   -1    0    0    0    0  0.00000000000E+00  0.00000000000E+00  0.45593999997E+02  0.45594000000E+02  0.51100000000E-03 0.  1.
         11   -1    0    0    0    0 -0.00000000000E+00 -0.00000000000E+00 -0.45593999997E+02  0.45594000000E+02  0.51100000000E-03 0. -1.
    9900012    2    1    2    0    0 -0.14413045149E+02  0.31834376189E+02  0.25738293216E+02  0.47787272868E+02  0.20000008317E+02 0.  0.
         12    1    1    2    0    0  0.14413045149E+02 -0.31834376189E+02 -0.25738293216E+02  0.43400727132E+02  0.00000000000E+00 0. -1.
         11    1    3    3    0    0 -0.43449439606E+01  0.42049418710E+01  0.36513034157E+01  0.70634333758E+01  0.51100000000E-03 0. -1.
        -11    1    3    3    0    0 -0.61960176408E+01  0.24028092594E+01  0.11100052083E+02  0.12937359988E+02  0.51100000000E-03 0.  1.
         12    1    3    3    0    0 -0.38720835481E+01  0.25226625059E+02  0.10986937717E+02  0.27786479505E+02  0.00000000000E+00 0. -1.
</event>
<event>
 7    1  0.2318319E-009  0.4778727E+02  0.7816164E-02  0.1312668E+00
        -11   -1    0    0    0    0  0.00000000000E+00  0.00000000000E+00  0.45593999997E+02  0.45594000000E+02  0.51100000000E-03 0.  1.
         11   -1    0    0    0    0 -0.00000000000E+00 -0.00000000000E+00 -0.45593999997E+02  0.45594000000E+02  0.51100000000E-03 0. -1.
    9900012    2    1    2    0    0  0.20089950628E+02 -0.36804894900E+02  0.11198965391E+02  0.47787271542E+02  0.20000002268E+02 0.  0.
         12    1    1    2    0    0 -0.20089950628E+02  0.36804894900E+02 -0.11198965391E+02  0.43400728458E+02  0.00000000000E+00 0. -1.
         11    1    3    3    0    0  0.13953969071E+01 -0.23588409008E+01  0.41690034538E+01  0.49891735771E+01  0.51100000000E-03 0. -1.
        -11    1    3    3    0    0  0.12732355298E+02 -0.85384569846E+01  0.12335415832E+00  0.15330796966E+02  0.51100000000E-03 0.  1.
         12    1    3    3    0    0  0.59621984229E+01 -0.25907597015E+02  0.69066077793E+01  0.27467300998E+02  0.00000000000E+00 0. -1.
</event>
<event>
 7    1  0.2318319E-009  0.4778727E+02  0.7816164E-02  0.1312668E+00
        -11   -1    0    0    0    0  0.00000000000E+00  0.00000000000E+00  0.45593999997E+02  0.45594000000E+02  0.51100000000E-03 0. -1.
         11   -1    0    0    0    0 -0.00000000000E+00 -0.00000000000E+00 -0.45593999997E+02  0.45594000000E+02  0.51100000000E-03 0.  1.
    9900012    2    1    2    0    0  0.24537372094E+02 -0.33879202462E+02 -0.11564600032E+02  0.47787274630E+02  0.20000016349E+02 0.  0.
         12    1    1    2    0    0 -0.24537372094E+02  0.33879202462E+02  0.11564600032E+02  0.43400725370E+02  0.00000000000E+00 0. -1.
         11    1    3    3    0    0  0.13170854382E+02 -0.17760014887E+02 -0.22119587559E+01  0.22221212742E+02  0.51100000000E-03 0. -1.
        -11    1    3    3    0    0  0.11856996800E+02 -0.61938059571E+01 -0.28130764298E+01  0.13669857520E+02  0.51100000000E-03 0.  1.
         12    1    3    3    0    0 -0.49047908798E+00 -0.99253816179E+01 -0.65395648463E+01  0.11896204368E+02  0.00000000000E+00 0. -1.
</event>
<event>
 7    1  0.2318319E-009  0.4778727E+02  0.7816164E-02  0.1312668E+00
        -11   -1    0    0    0    0  0.00000000000E+00  0.00000000000E+00  0.45593999997E+02  0.45594000000E+02  0.51100000000E-03 0.  1.
         11   -1    0    0    0    0 -0.00000000000E+00 -0.00000000000E+00 -0.45593999997E+02  0.45594000000E+02  0.51100000000E-03 0. -1.
    9900012    2    1    2    0    0  0.18903175971E+02 -0.32194561536E+02  0.22131505744E+02  0.47787269582E+02  0.19999993333E+02 0.  0.
         12    1    1    2    0    0 -0.18903175971E+02  0.32194561536E+02 -0.22131505744E+02  0.43400730418E+02  0.00000000000E+00 0. -1.
         11    1    3    3    0    0  0.50179430342E+01 -0.22347901656E+00  0.22088900301E+01  0.54871568768E+01  0.51100000000E-03 0. -1.
        -11    1    3    3    0    0  0.13844422789E+01 -0.56091590725E+01  0.98784224433E+01  0.11443888157E+02  0.51100000000E-03 0.  1.
        -12    1    3    3    0    0  0.12500790658E+02 -0.26361923447E+02  0.10044193271E+02  0.30856224548E+02  0.00000000000E+00 0.  1.
</event>
<event>
 7    1  0.2318319E-009  0.4778727E+02  0.7816164E-02  0.1312668E+00
        -11   -1    0    0    0    0  0.00000000000E+00  0.00000000000E+00  0.45593999997E+02  0.45594000000E+02  0.51100000000E-03 0.  1.
         11   -1    0    0    0    0 -0.00000000000E+00 -0.00000000000E+00 -0.45593999997E+02  0.45594000000E+02  0.51100000000E-03 0. -1.
    9900012    2    1    2    0    0 -0.33875807590E+02 -0.10054243202E+02  0.25198517617E+02  0.47787269173E+02  0.19999991467E+02 0.  0.
         12    1    1    2    0    0  0.33875807590E+02  0.10054243202E+02 -0.25198517617E+02  0.43400730827E+02  0.00000000000E+00 0. -1.
         11    1    3    3    0    0  0.45725063756E+00  0.37411336088E+00 -0.26008821261E+00  0.64551149626E+00  0.51100000000E-03 0.  1.
        -11    1    3    3    0    0 -0.49934298151E+01  0.45212166553E+01  0.39052236939E+01  0.77863029560E+01  0.51100000000E-03 0. -1.
        -12    1    3    3    0    0 -0.29339628413E+02 -0.14949573218E+02  0.21553382135E+02  0.39355454721E+02  0.00000000000E+00 0.  1.
</event>
<event>
 7    1  0.2318319E-009  0.4778727E+02  0.7816164E-02  0.1312668E+00
        -11   -1    0    0    0    0  0.00000000000E+00  0.00000000000E+00  0.45593999997E+02  0.45594000000E+02  0.51100000000E-03 0.  1.
         11   -1    0    0    0    0 -0.00000000000E+00 -0.00000000000E+00 -0.45593999997E+02  0.45594000000E+02  0.51100000000E-03 0. -1.
    9900012    2    1    2    0    0  0.16181709354E+02  0.96062306804E+01  0.39108772138E+02  0.47787269089E+02  0.19999991083E+02 0.  0.
         12    1    1    2    0    0 -0.16181709354E+02 -0.96062306804E+01 -0.39108772138E+02  0.43400730911E+02  0.00000000000E+00 0. -1.
         11    1    3    3    0    0  0.19367931581E+01  0.36784845939E+01 -0.74274512740E+00  0.42230424140E+01  0.51100000000E-03 0. -1.
        -11    1    3    3    0    0  0.45088330295E+00 -0.59234318502E+00 -0.14322690229E+00  0.75807678264E+00  0.51100000000E-03 0.  1.
        -12    1    3    3    0    0  0.13794032893E+02  0.65200892715E+01  0.39994744167E+02  0.42806149892E+02  0.00000000000E+00 0.  1.
</event>
<event>
 7    1  0.2318319E-009  0.4778727E+02  0.7816164E-02  0.1312668E+00
        -11   -1    0    0    0    0  0.00000000000E+00  0.00000000000E+00  0.45593999997E+02  0.45594000000E+02  0.51100000000E-03 0. -1.
         11   -1    0    0    0    0 -0.00000000000E+00 -0.00000000000E+00 -0.45593999997E+02  0.45594000000E+02  0.51100000000E-03 0.  1.
    9900012    2    1    2    0    0 -0.41046830842E+01 -0.43193019702E+02  0.10667028059E+01  0.47787271561E+02  0.20000002355E+02 0.  0.
         12    1    1    2    0    0  0.41046830842E+01  0.43193019702E+02 -0.10667028059E+01  0.43400728439E+02  0.00000000000E+00 0. -1.
         11    1    3    3    0    0  0.57331261568E+01 -0.64139129885E+01  0.26657926094E+01  0.90063014523E+01  0.51100000000E-03 0. -1.
        -11    1    3    3    0    0 -0.97076428381E+00 -0.11647989059E+02  0.21013174934E+01  0.11875755466E+02  0.51100000000E-03 0.  1.
         12    1    3    3    0    0 -0.88670449571E+01 -0.25131117654E+02 -0.37004072970E+01  0.26905214643E+02  0.00000000000E+00 0. -1.
</event>
<event>
 7    1  0.2318319E-009  0.4778727E+02  0.7816164E-02  0.1312668E+00
        -11   -1    0    0    0    0  0.00000000000E+00  0.00000000000E+00  0.45593999997E+02  0.45594000000E+02  0.51100000000E-03 0. -1.
         11   -1    0    0    0    0 -0.00000000000E+00 -0.00000000000E+00 -0.45593999997E+02  0.45594000000E+02  0.51100000000E-03 0.  1.
    9900012    2    1    2    0    0  0.25325215048E+01 -0.43211081120E+02 -0.31641878385E+01  0.47787270958E+02  0.19999999604E+02 0.  0.
         12    1    1    2    0    0 -0.25325215048E+01  0.43211081120E+02  0.31641878385E+01  0.43400729042E+02  0.00000000000E+00 0. -1.
         11    1    3    3    0    0  0.14277553072E+01 -0.22309272524E+02  0.77510013647E+01  0.23660518764E+02  0.51100000000E-03 0. -1.
        -11    1    3    3    0    0 -0.59662594634E+00 -0.79401454458E+01 -0.17262205612E+01  0.81474971560E+01  0.51100000000E-03 0.  1.
         12    1    3    3    0    0  0.17013921439E+01 -0.12961663150E+02 -0.91889686420E+01  0.15979255038E+02  0.00000000000E+00 0. -1.
</event>
<event>
 7    1  0.2318319E-009  0.4778729E+02  0.7816164E-02  0.1312668E+00
        -11   -1    0    0    0    0  0.00000000000E+00  0.00000000000E+00  0.45593999997E+02  0.45594000000E+02  0.51100000000E-03 0.  1.
         11   -1    0    0    0    0 -0.00000000000E+00 -0.00000000000E+00 -0.45593999997E+02  0.45594000000E+02  0.51100000000E-03 0. -1.
    9900012    2    1    2    0    0  0.19376702232E+02  0.36147728274E+02  0.14195319447E+02  0.47787286377E+02  0.20000069909E+02 0.  0.
         12    1    1    2    0    0 -0.19376702232E+02 -0.36147728274E+02 -0.14195319447E+02  0.43400713623E+02  0.00000000000E+00 0. -1.
         11    1    3    3    0    0  0.75551372458E+00  0.13417708520E+00 -0.97669032064E+00  0.12420663113E+01  0.51100000000E-03 0. -1.
        -11    1    3    3    0    0  0.12961574347E+02  0.29809982137E+02  0.18627230235E+02  0.37464798826E+02  0.51100000000E-03 0.  1.
        -12    1    3    3    0    0  0.56596141606E+01  0.62035690516E+01 -0.34552204676E+01  0.90804212404E+01  0.00000000000E+00 0.  1.
</event>
<event>
 7    1  0.2318319E-009  0.4778727E+02  0.7816164E-02  0.1312668E+00
        -11   -1    0    0    0    0  0.00000000000E+00  0.00000000000E+00  0.45593999997E+02  0.45594000000E+02  0.51100000000E-03 0.  1.
         11   -1    0    0    0    0 -0.00000000000E+00 -0.00000000000E+00 -0.45593999997E+02  0.45594000000E+02  0.51100000000E-03 0. -1.
    9900012    2    1    2    0    0 -0.37489261433E+02  0.18673605739E+02  0.11378703660E+02  0.47787272228E+02  0.20000005398E+02 0.  0.
         12    1    1    2    0    0  0.37489261433E+02 -0.18673605739E+02 -0.11378703660E+02  0.43400727772E+02  0.00000000000E+00 0. -1.
         11    1    3    3    0    0  0.89390241307E+00  0.95439922390E+00  0.43389761407E+01  0.45317384758E+01  0.51100000000E-03 0. -1.
        -11    1    3    3    0    0 -0.32982660118E+01  0.29071691768E+01  0.20348193607E+01  0.48446549309E+01  0.51100000000E-03 0.  1.
        -12    1    3    3    0    0 -0.35084897834E+02  0.14812037339E+02  0.50049081587E+01  0.38410878822E+02  0.00000000000E+00 0.  1.
</event>
<event>
 7    1  0.2318319E-009  0.4778727E+02  0.7816164E-02  0.1312668E+00
        -11   -1    0    0    0    0  0.00000000000E+00  0.00000000000E+00  0.45593999997E+02  0.45594000000E+02  0.51100000000E-03 0. -1.
         11   -1    0    0    0    0 -0.00000000000E+00 -0.00000000000E+00 -0.45593999997E+02  0.45594000000E+02  0.51100000000E-03 0.  1.
    9900012    2    1    2    0    0  0.35168582721E+02  0.25115357033E+02 -0.40015974587E+01  0.47787272452E+02  0.20000006417E+02 0.  0.
         12    1    1    2    0    0 -0.35168582721E+02 -0.25115357033E+02  0.40015974587E+01  0.43400727548E+02  0.00000000000E+00 0. -1.
         11    1    3    3    0    0  0.15045788165E+02  0.16921529645E+01 -0.53764262323E+00  0.15150187557E+02  0.51100000000E-03 0. -1.
        -11    1    3    3    0    0  0.15917991839E+01  0.32311314368E+01  0.27538751140E+01  0.45340780108E+01  0.51100000000E-03 0.  1.
        -12    1    3    3    0    0  0.18530995371E+02  0.20192072632E+02 -0.62178299494E+01  0.28103006884E+02  0.00000000000E+00 0.  1.
</event>
<event>
 7    1  0.2318319E-009  0.4778726E+02  0.7816164E-02  0.1312668E+00
        -11   -1    0    0    0    0  0.00000000000E+00  0.00000000000E+00  0.45593999997E+02  0.45594000000E+02  0.51100000000E-03 0.  1.
         11   -1    0    0    0    0 -0.00000000000E+00 -0.00000000000E+00 -0.45593999997E+02  0.45594000000E+02  0.51100000000E-03 0. -1.
    9900012    2    1    2    0    0  0.48378098612E+01 -0.27034479500E+02  0.33605899051E+02  0.47787263403E+02  0.19999965161E+02 0.  0.
         12    1    1    2    0    0 -0.48378098612E+01  0.27034479500E+02 -0.33605899051E+02  0.43400736597E+02  0.00000000000E+00 0. -1.
         11    1    3    3    0    0  0.18327013651E+01 -0.48822150429E+00 -0.32203213095E+00  0.19237618058E+01  0.51100000000E-03 0. -1.
        -11    1    3    3    0    0 -0.37894696497E+01 -0.61412679932E+01  0.17085276848E+02  0.18546750066E+02  0.51100000000E-03 0.  1.
         12    1    3    3    0    0  0.67945781458E+01 -0.20404990003E+02  0.16842654334E+02  0.27316751531E+02  0.00000000000E+00 0. -1.
</event>
<event>
 7    1  0.2580748E-009  0.4778727E+02  0.7816164E-02  0.1312668E+00
        -11   -1    0    0    0    0  0.00000000000E+00  0.00000000000E+00  0.45593999997E+02  0.45594000000E+02  0.51100000000E-03 0.  1.
         11   -1    0    0    0    0 -0.00000000000E+00 -0.00000000000E+00 -0.45593999997E+02  0.45594000000E+02  0.51100000000E-03 0. -1.
    9900012    2    1    2    0    0  0.28616177880E+01  0.29342772145E+02 -0.31850216389E+02  0.47787269389E+02  0.19999992452E+02 0.  0.
         12    1    1    2    0    0 -0.28616177880E+01 -0.29342772145E+02  0.31850216389E+02  0.43400730611E+02  0.00000000000E+00 0. -1.
         11    1    3    3    0    0  0.42587016419E+01  0.80901229260E+01 -0.28438798944E+01  0.95746687540E+01  0.51100000000E-03 0. -1.
        -11    1    3    3    0    0  0.18936758794E+01  0.19981008670E+02 -0.19137439811E+02  0.27732081036E+02  0.51100000000E-03 0.  1.
         12    1    3    3    0    0 -0.32907597333E+01  0.12716405490E+01 -0.98688966835E+01  0.10480519599E+02  0.00000000000E+00 0. -1.
</event>
<event>
 7    1  0.2318319E-009  0.4778727E+02  0.7816164E-02  0.1312668E+00
        -11   -1    0    0    0    0  0.00000000000E+00  0.00000000000E+00  0.45593999997E+02  0.45594000000E+02  0.51100000000E-03 0.  1.
         11   -1    0    0    0    0 -0.00000000000E+00 -0.00000000000E+00 -0.45593999997E+02  0.45594000000E+02  0.51100000000E-03 0. -1.
    9900012    2    1    2    0    0 -0.31844965383E+02 -0.25729404751E+02  0.14405526762E+02  0.47787270854E+02  0.19999999133E+02 0.  0.
         12    1    1    2    0    0  0.31844965383E+02  0.25729404751E+02 -0.14405526762E+02  0.43400729146E+02  0.00000000000E+00 0. -1.
         11    1    3    3    0    0 -0.24171280736E+02 -0.10423006287E+02  0.85699393881E+01  0.27682733497E+02  0.51100000000E-03 0. -1.
        -11    1    3    3    0    0 -0.92790168445E+01 -0.11110768177E+02  0.58475096694E+01  0.15612260972E+02  0.51100000000E-03 0.  1.
        -12    1    3    3    0    0  0.16053321983E+01 -0.41956302872E+01 -0.11922295293E-01  0.44922763845E+01  0.00000000000E+00 0.  1.
</event>
<event>
 7    1  0.2318319E-009  0.4778728E+02  0.7816164E-02  0.1312668E+00
        -11   -1    0    0    0    0  0.00000000000E+00  0.00000000000E+00  0.45593999997E+02  0.45594000000E+02  0.51100000000E-03 0.  1.
         11   -1    0    0    0    0 -0.00000000000E+00 -0.00000000000E+00 -0.45593999997E+02  0.45594000000E+02  0.51100000000E-03 0. -1.
    9900012    2    1    2    0    0 -0.24022567603E+01  0.61220542856E+01  0.42899560593E+02  0.47787277826E+02  0.20000030918E+02 0.  0.
         12    1    1    2    0    0  0.24022567603E+01 -0.61220542856E+01 -0.42899560593E+02  0.43400722174E+02  0.00000000000E+00 0. -1.
         11    1    3    3    0    0  0.24438737945E+01 -0.26747947412E+01  0.46762607238E+01  0.59156116040E+01  0.51100000000E-03 0. -1.
        -11    1    3    3    0    0 -0.68376119839E+01 -0.43100443265E+00  0.22620421682E+02  0.23635189439E+02  0.51100000000E-03 0.  1.
        -12    1    3    3    0    0  0.19914814291E+01  0.92278534595E+01  0.15602878187E+02  0.18236476783E+02  0.00000000000E+00 0.  1.
</event>
<event>
 7    1  0.2318319E-009  0.4778727E+02  0.7816164E-02  0.1312668E+00
        -11   -1    0    0    0    0  0.00000000000E+00  0.00000000000E+00  0.45593999997E+02  0.45594000000E+02  0.51100000000E-03 0.  1.
         11   -1    0    0    0    0 -0.00000000000E+00 -0.00000000000E+00 -0.45593999997E+02  0.45594000000E+02  0.51100000000E-03 0. -1.
    9900012    2    1    2    0    0  0.33419463479E+02  0.13090694368E+02  0.24400746124E+02  0.47787271554E+02  0.20000002322E+02 0.  0.
         12    1    1    2    0    0 -0.33419463479E+02 -0.13090694368E+02 -0.24400746124E+02  0.43400728446E+02  0.00000000000E+00 0. -1.
         11    1    3    3    0    0  0.77732357021E+01  0.52087469976E+01  0.19605479502E+01  0.95602294476E+01  0.51100000000E-03 0. -1.
        -11    1    3    3    0    0  0.16953346152E+02  0.45821785395E+01  0.22969555365E+02  0.28913885589E+02  0.51100000000E-03 0.  1.
        -12    1    3    3    0    0  0.86928816251E+01  0.32997688307E+01 -0.52935719067E+00  0.93131565175E+01  0.00000000000E+00 0.  1.
</event>
<event>
 7    1  0.2318319E-009  0.4778728E+02  0.7816164E-02  0.1312668E+00
        -11   -1    0    0    0    0  0.00000000000E+00  0.00000000000E+00  0.45593999997E+02  0.45594000000E+02  0.51100000000E-03 0.  1.
         11   -1    0    0    0    0 -0.00000000000E+00 -0.00000000000E+00 -0.45593999997E+02  0.45594000000E+02  0.51100000000E-03 0. -1.
    9900012    2    1    2    0    0  0.14495203983E+02 -0.35114780052E+02  0.20987235885E+02  0.47787276657E+02  0.20000025589E+02 0.  0.
         12    1    1    2    0    0 -0.14495203983E+02  0.35114780052E+02 -0.20987235885E+02  0.43400723343E+02  0.00000000000E+00 0. -1.
         11    1    3    3    0    0  0.12473378440E+01 -0.80637202672E+01  0.79770643927E+01  0.11411090782E+02  0.51100000000E-03 0. -1.
        -11    1    3    3    0    0  0.12503600927E+02 -0.29124038598E+02  0.12731362019E+02  0.34156071781E+02  0.51100000000E-03 0.  1.
         12    1    3    3    0    0  0.74426521167E+00  0.20729788134E+01  0.27880947329E+00  0.22201140936E+01  0.00000000000E+00 0. -1.
</event>
<event>
 7    1  0.2318319E-009  0.4778728E+02  0.7816164E-02  0.1312668E+00
        -11   -1    0    0    0    0  0.00000000000E+00  0.00000000000E+00  0.45593999997E+02  0.45594000000E+02  0.51100000000E-03 0.  1.
         11   -1    0    0    0    0 -0.00000000000E+00 -0.00000000000E+00 -0.45593999997E+02  0.45594000000E+02  0.51100000000E-03 0. -1.
    9900012    2    1    2    0    0 -0.29469247415E+02  0.60763790483E+01  0.31277211882E+02  0.47787275252E+02  0.20000019186E+02 0.  0.
         12    1    1    2    0    0  0.29469247415E+02 -0.60763790483E+01 -0.31277211882E+02  0.43400724748E+02  0.00000000000E+00 0. -1.
         11    1    3    3    0    0 -0.12372700581E+02 -0.42856064290E+01  0.16919252543E+02  0.21394187272E+02  0.51100000000E-03 0. -1.
        -11    1    3    3    0    0 -0.20681991593E+01 -0.17147841770E+01  0.29553594036E+01  0.39940057589E+01  0.51100000000E-03 0.  1.
        -12    1    3    3    0    0 -0.15028347674E+02  0.12076769654E+02  0.11402599935E+02  0.22399082222E+02  0.00000000000E+00 0.  1.
</event>
<event>
 7    1  0.2318319E-009  0.4778727E+02  0.7816164E-02  0.1312668E+00
        -11   -1    0    0    0    0  0.00000000000E+00  0.00000000000E+00  0.45593999997E+02  0.45594000000E+02  0.51100000000E-03 0.  1.
         11   -1    0    0    0    0 -0.00000000000E+00 -0.00000000000E+00 -0.45593999997E+02  0.45594000000E+02  0.51100000000E-03 0. -1.
    9900012    2    1    2    0    0 -0.21499047125E+02 -0.25747612896E+01  0.37613625893E+02  0.47787271022E+02  0.19999999899E+02 0.  0.
         12    1    1    2    0    0  0.21499047125E+02  0.25747612896E+01 -0.37613625893E+02  0.43400728978E+02  0.00000000000E+00 0. -1.
         11    1    3    3    0    0 -0.45462744852E+01  0.63408988243E+01  0.72376716959E+01  0.10642344734E+02  0.51100000000E-03 0. -1.
        -11    1    3    3    0    0 -0.12767241181E+02 -0.15131181052E+01  0.17528205193E+02  0.21737754055E+02  0.51100000000E-03 0.  1.
        -12    1    3    3    0    0 -0.41855314588E+01 -0.74025420087E+01  0.12847749004E+02  0.15407172234E+02  0.00000000000E+00 0.  1.
</event>
<event>
 7    1  0.2318319E-009  0.4778727E+02  0.7816164E-02  0.1312668E+00
        -11   -1    0    0    0    0  0.00000000000E+00  0.00000000000E+00  0.45593999997E+02  0.45594000000E+02  0.51100000000E-03 0.  1.
         11   -1    0    0    0    0 -0.00000000000E+00 -0.00000000000E+00 -0.45593999997E+02  0.45594000000E+02  0.51100000000E-03 0. -1.
    9900012    2    1    2    0    0 -0.22183077519E+02  0.14849015341E+02  0.34220477243E+02  0.47787271347E+02  0.20000001382E+02 0.  0.
         12    1    1    2    0    0  0.22183077519E+02 -0.14849015341E+02 -0.34220477243E+02  0.43400728653E+02  0.00000000000E+00 0. -1.
         11    1    3    3    0    0  0.50278899640E+00  0.15127105114E+01  0.97220993974E+01  0.98519189410E+01  0.51100000000E-03 0. -1.
        -11    1    3    3    0    0  0.14254450950E+01  0.13539777913E+01  0.24063532078E+01  0.31073599083E+01  0.51100000000E-03 0.  1.
        -12    1    3    3    0    0 -0.24111311611E+02  0.11982327038E+02  0.22092024638E+02  0.34827992498E+02  0.00000000000E+00 0.  1.
</event>
<event>
 7    1  0.2318319E-009  0.4778727E+02  0.7816164E-02  0.1312668E+00
        -11   -1    0    0    0    0  0.00000000000E+00  0.00000000000E+00  0.45593999997E+02  0.45594000000E+02  0.51100000000E-03 0. -1.
         11   -1    0    0    0    0 -0.00000000000E+00 -0.00000000000E+00 -0.45593999997E+02  0.45594000000E+02  0.51100000000E-03 0.  1.
    9900012    2    1    2    0    0 -0.70988130386E+01  0.11003337030E+02 -0.41378211664E+02  0.47787274512E+02  0.20000015810E+02 0.  0.
         12    1    1    2    0    0  0.70988130386E+01 -0.11003337030E+02  0.41378211664E+02  0.43400725488E+02  0.00000000000E+00 0. -1.
         11    1    3    3    0    0 -0.63787086338E+01  0.55300848336E+01 -0.18046288628E+02  0.19923310357E+02  0.51100000000E-03 0.  1.
        -11    1    3    3    0    0  0.31649402818E+01  0.83398133758E+01 -0.20272254129E+02  0.22147993631E+02  0.51100000000E-03 0. -1.
         12    1    3    3    0    0 -0.38850446865E+01 -0.28665611789E+01 -0.30596689073E+01  0.57159705240E+01  0.00000000000E+00 0. -1.
</event>
<event>
 7    1  0.2318319E-009  0.4778727E+02  0.7816164E-02  0.1312668E+00
        -11   -1    0    0    0    0  0.00000000000E+00  0.00000000000E+00  0.45593999997E+02  0.45594000000E+02  0.51100000000E-03 0.  1.
         11   -1    0    0    0    0 -0.00000000000E+00 -0.00000000000E+00 -0.45593999997E+02  0.45594000000E+02  0.51100000000E-03 0. -1.
    9900012    2    1    2    0    0  0.39422875874E+02  0.91671768522E+01 -0.15665980939E+02  0.47787271522E+02  0.20000002179E+02 0.  0.
         12    1    1    2    0    0 -0.39422875874E+02 -0.91671768522E+01  0.15665980939E+02  0.43400728478E+02  0.00000000000E+00 0. -1.
         11    1    3    3    0    0  0.37109801391E+01 -0.31841633599E+01 -0.70875862320E+01  0.86106996669E+01  0.51100000000E-03 0. -1.
        -11    1    3    3    0    0  0.13990330644E+02  0.43400834778E+01 -0.61887016310E+01  0.15901751610E+02  0.51100000000E-03 0.  1.
         12    1    3    3    0    0  0.21721565091E+02  0.80112567343E+01 -0.23896930755E+01  0.23274820246E+02  0.00000000000E+00 0. -1.
</event>
<event>
 7    1  0.2318319E-009  0.4778727E+02  0.7816164E-02  0.1312668E+00
        -11   -1    0    0    0    0  0.00000000000E+00  0.00000000000E+00  0.45593999997E+02  0.45594000000E+02  0.51100000000E-03 0.  1.
         11   -1    0    0    0    0 -0.00000000000E+00 -0.00000000000E+00 -0.45593999997E+02  0.45594000000E+02  0.51100000000E-03 0. -1.
    9900012    2    1    2    0    0  0.89303020781E+01 -0.32361360832E+02 -0.27506638699E+02  0.47787272556E+02  0.20000006893E+02 0.  0.
         12    1    1    2    0    0 -0.89303020781E+01  0.32361360832E+02  0.27506638699E+02  0.43400727444E+02  0.00000000000E+00 0. -1.
         11    1    3    3    0    0 -0.97889550939E+00 -0.89152238619E+01 -0.14531444305E+01  0.90857625945E+01  0.51100000000E-03 0. -1.
        -11    1    3    3    0    0  0.65778314652E+01 -0.51378292431E+01 -0.25588135603E+01  0.87299875838E+01  0.51100000000E-03 0.  1.
         12    1    3    3    0    0  0.33313661223E+01 -0.18308307727E+02 -0.23494680708E+02  0.29971522378E+02  0.00000000000E+00 0. -1.
</event>
<event>
 7    1  0.2318319E-009  0.4778727E+02  0.7816164E-02  0.1312668E+00
        -11   -1    0    0    0    0  0.00000000000E+00  0.00000000000E+00  0.45593999997E+02  0.45594000000E+02  0.51100000000E-03 0.  1.
         11   -1    0    0    0    0 -0.00000000000E+00 -0.00000000000E+00 -0.45593999997E+02  0.45594000000E+02  0.51100000000E-03 0. -1.
    9900012    2    1    2    0    0  0.17436499979E+02  0.12563468003E+02  0.37706112855E+02  0.47787271822E+02  0.20000003544E+02 0.  0.
         12    1    1    2    0    0 -0.17436499979E+02 -0.12563468003E+02 -0.37706112855E+02  0.43400728178E+02  0.00000000000E+00 0. -1.
         11    1    3    3    0    0  0.41605258191E+01  0.87683294915E+01  0.14806892311E+02  0.17704170055E+02  0.51100000000E-03 0.  1.
        -11    1    3    3    0    0  0.65681780212E+01  0.70961864289E+01  0.19712273132E+02  0.21956104770E+02  0.51100000000E-03 0. -1.
         12    1    3    3    0    0  0.67077961390E+01 -0.33010479170E+01  0.31869474115E+01  0.81269969974E+01  0.00000000000E+00 0. -1.
</event>
<event>
 7    1  0.2318319E-009  0.4778727E+02  0.7816164E-02  0.1312668E+00
        -11   -1    0    0    0    0  0.00000000000E+00  0.00000000000E+00  0.45593999997E+02  0.45594000000E+02  0.51100000000E-03 0. -1.
         11   -1    0    0    0    0 -0.00000000000E+00 -0.00000000000E+00 -0.45593999997E+02  0.45594000000E+02  0.51100000000E-03 0.  1.
    9900012    2    1    2    0    0 -0.27093676013E+02  0.33345924492E+02 -0.61323309780E+01  0.47787269092E+02  0.19999991099E+02 0.  0.
         12    1    1    2    0    0  0.27093676013E+02 -0.33345924492E+02  0.61323309780E+01  0.43400730908E+02  0.00000000000E+00 0. -1.
         11    1    3    3    0    0 -0.25171855276E+01  0.96599649750E+00  0.41289697380E+01  0.49313044493E+01  0.51100000000E-03 0. -1.
        -11    1    3    3    0    0 -0.89621138841E+01  0.60070168352E+01 -0.98327450215E+00  0.10833769683E+02  0.51100000000E-03 0.  1.
        -12    1    3    3    0    0 -0.15614376601E+02  0.26372911159E+02 -0.92780262139E+01  0.32022194960E+02  0.00000000000E+00 0.  1.
</event>
<event>
 7    1  0.2318319E-009  0.4778727E+02  0.7816164E-02  0.1312668E+00
        -11   -1    0    0    0    0  0.00000000000E+00  0.00000000000E+00  0.45593999997E+02  0.45594000000E+02  0.51100000000E-03 0.  1.
         11   -1    0    0    0    0 -0.00000000000E+00 -0.00000000000E+00 -0.45593999997E+02  0.45594000000E+02  0.51100000000E-03 0. -1.
    9900012    2    1    2    0    0 -0.28230573860E+02  0.22504650748E+02 -0.24087312639E+02  0.47787271481E+02  0.20000001992E+02 0.  0.
         12    1    1    2    0    0  0.28230573860E+02 -0.22504650748E+02  0.24087312639E+02  0.43400728519E+02  0.00000000000E+00 0. -1.
         11    1    3    3    0    0 -0.29055488683E+02  0.15845159799E+02 -0.23934359696E+02  0.40842919656E+02  0.51100000000E-03 0. -1.
        -11    1    3    3    0    0  0.43629830256E+00  0.39777933182E+01 -0.96350434023E+00  0.41160098112E+01  0.51100000000E-03 0.  1.
         12    1    3    3    0    0  0.38861652071E+00  0.26816976310E+01  0.81055139666E+00  0.28283420145E+01  0.00000000000E+00 0. -1.
</event>
<event>
 7    1  0.2318319E-009  0.4778727E+02  0.7816164E-02  0.1312668E+00
        -11   -1    0    0    0    0  0.00000000000E+00  0.00000000000E+00  0.45593999997E+02  0.45594000000E+02  0.51100000000E-03 0. -1.
         11   -1    0    0    0    0 -0.00000000000E+00 -0.00000000000E+00 -0.45593999997E+02  0.45594000000E+02  0.51100000000E-03 0.  1.
    9900012    2    1    2    0    0 -0.15429599200E+02 -0.38958137830E+02 -0.11305491163E+02  0.47787272298E+02  0.20000005715E+02 0.  0.
         12    1    1    2    0    0  0.15429599200E+02  0.38958137830E+02  0.11305491163E+02  0.43400727702E+02  0.00000000000E+00 0. -1.
         11    1    3    3    0    0 -0.67044581457E+00 -0.64924339641E+01 -0.31371268391E+01  0.72417374596E+01  0.51100000000E-03 0.  1.
        -11    1    3    3    0    0  0.15195552432E+01  0.13679064303E+01  0.27160003735E+00  0.20625186013E+01  0.51100000000E-03 0. -1.
         12    1    3    3    0    0 -0.16278708628E+02 -0.33833610296E+02 -0.84399643615E+01  0.38483016237E+02  0.00000000000E+00 0. -1.
</event>
<event>
 7    1  0.2318319E-009  0.4778728E+02  0.7816164E-02  0.1312668E+00
        -11   -1    0    0    0    0  0.00000000000E+00  0.00000000000E+00  0.45593999997E+02  0.45594000000E+02  0.51100000000E-03 0.  1.
         11   -1    0    0    0    0 -0.00000000000E+00 -0.00000000000E+00 -0.45593999997E+02  0.45594000000E+02  0.51100000000E-03 0. -1.
    9900012    2    1    2    0    0  0.32537920702E+02  0.12747834753E+02  0.25737116634E+02  0.47787277113E+02  0.20000027668E+02 0.  0.
         12    1    1    2    0    0 -0.32537920702E+02 -0.12747834753E+02 -0.25737116634E+02  0.43400722887E+02  0.00000000000E+00 0. -1.
         11    1    3    3    0    0  0.96938129553E+01 -0.11247342943E+01  0.96101305589E+01  0.13696336973E+02  0.51100000000E-03 0. -1.
        -11    1    3    3    0    0 -0.21898175974E-01  0.13963912216E+01 -0.19399924262E+01  0.23903888488E+01  0.51100000000E-03 0.  1.
        -12    1    3    3    0    0  0.22866005922E+02  0.12476177826E+02  0.18066978502E+02  0.31700551291E+02  0.00000000000E+00 0.  1.
</event>
<event>
 7    1  0.2318319E-009  0.4778727E+02  0.7816164E-02  0.1312668E+00
        -11   -1    0    0    0    0  0.00000000000E+00  0.00000000000E+00  0.45593999997E+02  0.45594000000E+02  0.51100000000E-03 0. -1.
         11   -1    0    0    0    0 -0.00000000000E+00 -0.00000000000E+00 -0.45593999997E+02  0.45594000000E+02  0.51100000000E-03 0.  1.
    9900012    2    1    2    0    0 -0.32126415617E+02 -0.12083053546E+02 -0.26561565649E+02  0.47787268058E+02  0.19999986383E+02 0.  0.
         12    1    1    2    0    0  0.32126415617E+02  0.12083053546E+02  0.26561565649E+02  0.43400731942E+02  0.00000000000E+00 0. -1.
         11    1    3    3    0    0 -0.67355542497E+01 -0.55125493016E+01  0.13836275082E+00  0.87048857181E+01  0.51100000000E-03 0. -1.
        -11    1    3    3    0    0 -0.25826850742E+01  0.58669836912E+00  0.68106739356E+00  0.27346535840E+01  0.51100000000E-03 0.  1.
        -12    1    3    3    0    0 -0.22808176294E+02 -0.71572026131E+01 -0.27380995793E+02  0.36347728756E+02  0.00000000000E+00 0.  1.
</event>
<event>
 7    1  0.2318319E-009  0.4778727E+02  0.7816164E-02  0.1312668E+00
        -11   -1    0    0    0    0  0.00000000000E+00  0.00000000000E+00  0.45593999997E+02  0.45594000000E+02  0.51100000000E-03 0.  1.
         11   -1    0    0    0    0 -0.00000000000E+00 -0.00000000000E+00 -0.45593999997E+02  0.45594000000E+02  0.51100000000E-03 0. -1.
    9900012    2    1    2    0    0 -0.72711394686E+01 -0.36107174280E+01  0.42634692372E+02  0.47787265638E+02  0.19999975348E+02 0.  0.
         12    1    1    2    0    0  0.72711394686E+01  0.36107174280E+01 -0.42634692372E+02  0.43400734362E+02  0.00000000000E+00 0. -1.
         11    1    3    3    0    0 -0.31104536737E+01 -0.31364515807E+01  0.34645295041E+01  0.56138414227E+01  0.51100000000E-03 0. -1.
        -11    1    3    3    0    0 -0.53185753303E+01 -0.70167202961E+01  0.19089994839E+02  0.21022595237E+02  0.51100000000E-03 0.  1.
         12    1    3    3    0    0  0.11578895354E+01  0.65424544488E+01  0.20080168029E+02  0.21150828978E+02  0.00000000000E+00 0. -1.
</event>
<event>
 7    1  0.2318319E-009  0.4778723E+02  0.7816164E-02  0.1312668E+00
        -11   -1    0    0    0    0  0.00000000000E+00  0.00000000000E+00  0.45593999997E+02  0.45594000000E+02  0.51100000000E-03 0. -1.
         11   -1    0    0    0    0 -0.00000000000E+00 -0.00000000000E+00 -0.45593999997E+02  0.45594000000E+02  0.51100000000E-03 0.  1.
    9900012    2    1    2    0    0 -0.14373367973E+02 -0.35159526471E+02 -0.20996208024E+02  0.47787230884E+02  0.19999816890E+02 0.  0.
         12    1    1    2    0    0  0.14373367973E+02  0.35159526471E+02  0.20996208024E+02  0.43400769116E+02  0.00000000000E+00 0. -1.
         11    1    3    3    0    0 -0.13719950864E+00 -0.58431457594E+01  0.31485633083E+01  0.66388724373E+01  0.51100000000E-03 0. -1.
        -11    1    3    3    0    0 -0.52953350982E+01 -0.91836276610E+01 -0.41042902004E+01  0.11367708174E+02  0.51100000000E-03 0.  1.
        -12    1    3    3    0    0 -0.89408333657E+01 -0.20132753050E+02 -0.20040481132E+02  0.29780650272E+02  0.00000000000E+00 0.  1.
</event>
<event>
 7    1  0.2318319E-009  0.4778727E+02  0.7816164E-02  0.1312668E+00
        -11   -1    0    0    0    0  0.00000000000E+00  0.00000000000E+00  0.45593999997E+02  0.45594000000E+02  0.51100000000E-03 0. -1.
         11   -1    0    0    0    0 -0.00000000000E+00 -0.00000000000E+00 -0.45593999997E+02  0.45594000000E+02  0.51100000000E-03 0.  1.
    9900012    2    1    2    0    0  0.70580431978E+01 -0.15639308881E+02 -0.39865015787E+02  0.47787269133E+02  0.19999991286E+02 0.  0.
         12    1    1    2    0    0 -0.70580431978E+01  0.15639308881E+02  0.39865015787E+02  0.43400730867E+02  0.00000000000E+00 0. -1.
         11    1    3    3    0    0  0.13605674209E+01 -0.26022181018E+00 -0.24362577300E+02  0.24401926811E+02  0.51100000000E-03 0. -1.
        -11    1    3    3    0    0  0.32948985564E+01 -0.46388054234E+01 -0.21518593981E+01  0.60832040392E+01  0.51100000000E-03 0.  1.
        -12    1    3    3    0    0  0.24025772205E+01 -0.10740281648E+02 -0.13350579089E+02  0.17302138283E+02  0.00000000000E+00 0.  1.
</event>
<event>
 7    1  0.2318319E-009  0.4778727E+02  0.7816164E-02  0.1312668E+00
        -11   -1    0    0    0    0  0.00000000000E+00  0.00000000000E+00  0.45593999997E+02  0.45594000000E+02  0.51100000000E-03 0.  1.
         11   -1    0    0    0    0 -0.00000000000E+00 -0.00000000000E+00 -0.45593999997E+02  0.45594000000E+02  0.51100000000E-03 0. -1.
    9900012    2    1    2    0    0  0.91788879045E+01  0.27541290339E+01  0.42329496589E+02  0.47787268539E+02  0.19999988577E+02 0.  0.
         12    1    1    2    0    0 -0.91788879045E+01 -0.27541290339E+01 -0.42329496589E+02  0.43400731461E+02  0.00000000000E+00 0. -1.
         11    1    3    3    0    0  0.16115798633E+01  0.36427247107E+01  0.69842541770E+01  0.80403009672E+01  0.51100000000E-03 0. -1.
        -11    1    3    3    0    0  0.43726609408E+01  0.43403406437E+01  0.30483888504E+01  0.68739650458E+01  0.51100000000E-03 0.  1.
        -12    1    3    3    0    0  0.31946471004E+01 -0.52289363204E+01  0.32296853561E+02  0.32873002526E+02  0.00000000000E+00 0.  1.
</event>
<event>
 7    1  0.2318319E-009  0.4778724E+02  0.7816164E-02  0.1312668E+00
        -11   -1    0    0    0    0  0.00000000000E+00  0.00000000000E+00  0.45593999997E+02  0.45594000000E+02  0.51100000000E-03 0. -1.
         11   -1    0    0    0    0 -0.00000000000E+00 -0.00000000000E+00 -0.45593999997E+02  0.45594000000E+02  0.51100000000E-03 0.  1.
    9900012    2    1    2    0    0  0.17304838000E+02  0.39166674702E+01 -0.39608438436E+02  0.47787238513E+02  0.19999851677E+02 0.  0.
         12    1    1    2    0    0 -0.17304838000E+02 -0.39166674702E+01  0.39608438436E+02  0.43400761487E+02  0.00000000000E+00 0. -1.
         11    1    3    3    0    0  0.71178115443E+01 -0.48982256168E+01 -0.12385660198E+02  0.15101669913E+02  0.51100000000E-03 0. -1.
        -11    1    3    3    0    0  0.26832736131E+01 -0.30163262628E+01 -0.70681084001E+01  0.81397996304E+01  0.51100000000E-03 0.  1.
         12    1    3    3    0    0  0.75037528429E+01  0.11831219350E+02 -0.20154669838E+02  0.24545768970E+02  0.00000000000E+00 0. -1.
</event>
<event>
 7    1  0.2318319E-009  0.4778727E+02  0.7816164E-02  0.1312668E+00
        -11   -1    0    0    0    0  0.00000000000E+00  0.00000000000E+00  0.45593999997E+02  0.45594000000E+02  0.51100000000E-03 0.  1.
         11   -1    0    0    0    0 -0.00000000000E+00 -0.00000000000E+00 -0.45593999997E+02  0.45594000000E+02  0.51100000000E-03 0. -1.
    9900012    2    1    2    0    0  0.25239458748E+02  0.10866179380E+02  0.33593442871E+02  0.47787268023E+02  0.19999986224E+02 0.  0.
         12    1    1    2    0    0 -0.25239458748E+02 -0.10866179380E+02 -0.33593442871E+02  0.43400731977E+02  0.00000000000E+00 0. -1.
         11    1    3    3    0    0  0.87215742364E+01  0.11109132983E+02  0.24249251321E+02  0.28062517398E+02  0.51100000000E-03 0. -1.
        -11    1    3    3    0    0  0.62779766331E+01  0.25080337011E+01  0.33547753174E+01  0.75470352684E+01  0.51100000000E-03 0.  1.
        -12    1    3    3    0    0  0.10239907879E+02 -0.27509873038E+01  0.59894162320E+01  0.12177715357E+02  0.00000000000E+00 0.  1.
</event>
<event>
 7    1  0.2318319E-009  0.4778727E+02  0.7816164E-02  0.1312668E+00
        -11   -1    0    0    0    0  0.00000000000E+00  0.00000000000E+00  0.45593999997E+02  0.45594000000E+02  0.51100000000E-03 0.  1.
         11   -1    0    0    0    0 -0.00000000000E+00 -0.00000000000E+00 -0.45593999997E+02  0.45594000000E+02  0.51100000000E-03 0. -1.
    9900012    2    1    2    0    0 -0.24679014896E+02 -0.19218394342E+02  0.30086922628E+02  0.47787269931E+02  0.19999994922E+02 0.  0.
         12    1    1    2    0    0  0.24679014896E+02  0.19218394342E+02 -0.30086922628E+02  0.43400730069E+02  0.00000000000E+00 0. -1.
         11    1    3    3    0    0  0.20084190366E+01 -0.45438926174E+01  0.59576565033E+01  0.77572146043E+01  0.51100000000E-03 0. -1.
        -11    1    3    3    0    0 -0.10066251052E+02 -0.68847917426E+01  0.15567045606E+02  0.19775304719E+02  0.51100000000E-03 0.  1.
         12    1    3    3    0    0 -0.16621182880E+02 -0.77897099820E+01  0.85622205195E+01  0.20254750607E+02  0.00000000000E+00 0. -1.
</event>
<event>
 7    1  0.2318319E-009  0.4778727E+02  0.7816164E-02  0.1312668E+00
        -11   -1    0    0    0    0  0.00000000000E+00  0.00000000000E+00  0.45593999997E+02  0.45594000000E+02  0.51100000000E-03 0. -1.
         11   -1    0    0    0    0 -0.00000000000E+00 -0.00000000000E+00 -0.45593999997E+02  0.45594000000E+02  0.51100000000E-03 0.  1.
    9900012    2    1    2    0    0  0.13531025639E+02  0.14728052808E+01 -0.41211229764E+02  0.47787271101E+02  0.20000000260E+02 0.  0.
         12    1    1    2    0    0 -0.13531025639E+02 -0.14728052808E+01  0.41211229764E+02  0.43400728899E+02  0.00000000000E+00 0. -1.
         11    1    3    3    0    0  0.35083248419E+01  0.39263249492E+01 -0.14229615435E+02  0.15172551747E+02  0.51100000000E-03 0. -1.
        -11    1    3    3    0    0  0.92752237364E+01  0.50510190910E+01 -0.13205859375E+02  0.16909680403E+02  0.51100000000E-03 0.  1.
         12    1    3    3    0    0  0.74747706053E+00 -0.75045387595E+01 -0.13775754953E+02  0.15705038952E+02  0.00000000000E+00 0. -1.
</event>
<event>
 7    1  0.2318319E-009  0.4778727E+02  0.7816164E-02  0.1312668E+00
        -11   -1    0    0    0    0  0.00000000000E+00  0.00000000000E+00  0.45593999997E+02  0.45594000000E+02  0.51100000000E-03 0.  1.
         11   -1    0    0    0    0 -0.00000000000E+00 -0.00000000000E+00 -0.45593999997E+02  0.45594000000E+02  0.51100000000E-03 0. -1.
    9900012    2    1    2    0    0  0.24294143237E+02  0.21659136667E+02  0.28710620369E+02  0.47787270527E+02  0.19999997643E+02 0.  0.
         12    1    1    2    0    0 -0.24294143237E+02 -0.21659136667E+02 -0.28710620369E+02  0.43400729473E+02  0.00000000000E+00 0. -1.
         11    1    3    3    0    0  0.34569356238E+01  0.78137879509E+01  0.69580049024E+00  0.85726206397E+01  0.51100000000E-03 0. -1.
        -11    1    3    3    0    0  0.88041715220E+00 -0.15786283510E+01  0.39942308932E+01  0.43841855026E+01  0.51100000000E-03 0.  1.
         12    1    3    3    0    0  0.19956790461E+02  0.15423977067E+02  0.24020588986E+02  0.34830464385E+02  0.00000000000E+00 0. -1.
</event>
<event>
 7    1  0.2318319E-009  0.4778727E+02  0.7816164E-02  0.1312668E+00
        -11   -1    0    0    0    0  0.00000000000E+00  0.00000000000E+00  0.45593999997E+02  0.45594000000E+02  0.51100000000E-03 0.  1.
         11   -1    0    0    0    0 -0.00000000000E+00 -0.00000000000E+00 -0.45593999997E+02  0.45594000000E+02  0.51100000000E-03 0. -1.
    9900012    2    1    2    0    0  0.41267874675E+02  0.33914483520E+01  0.13003227078E+02  0.47787270553E+02  0.19999997758E+02 0.  0.
         12    1    1    2    0    0 -0.41267874675E+02 -0.33914483520E+01 -0.13003227078E+02  0.43400729447E+02  0.00000000000E+00 0. -1.
         11    1    3    3    0    0  0.11312010744E+02  0.16242999467E+01 -0.15494438689E+01  0.11532593548E+02  0.51100000000E-03 0. -1.
        -11    1    3    3    0    0  0.27010201746E+02  0.18302783087E+01  0.67308361183E+01  0.27896327217E+02  0.51100000000E-03 0.  1.
        -12    1    3    3    0    0  0.29456621846E+01 -0.63129903396E-01  0.78218348285E+01  0.83583497878E+01  0.00000000000E+00 0.  1.
</event>
<event>
 7    1  0.2318319E-009  0.4778727E+02  0.7816164E-02  0.1312668E+00
        -11   -1    0    0    0    0  0.00000000000E+00  0.00000000000E+00  0.45593999997E+02  0.45594000000E+02  0.51100000000E-03 0.  1.
         11   -1    0    0    0    0 -0.00000000000E+00 -0.00000000000E+00 -0.45593999997E+02  0.45594000000E+02  0.51100000000E-03 0. -1.
    9900012    2    1    2    0    0 -0.41947158503E+02  0.10239214047E+02  0.43837984394E+01  0.47787270749E+02  0.19999998654E+02 0.  0.
         12    1    1    2    0    0  0.41947158503E+02 -0.10239214047E+02 -0.43837984394E+01  0.43400729251E+02  0.00000000000E+00 0. -1.
         11    1    3    3    0    0 -0.24711468457E+02  0.58929604694E+01  0.99839164281E+01  0.27295828324E+02  0.51100000000E-03 0.  1.
        -11    1    3    3    0    0 -0.15383320337E+02  0.64002726826E+01 -0.35168584183E+01  0.17028750054E+02  0.51100000000E-03 0. -1.
        -12    1    3    3    0    0 -0.18523697083E+01 -0.20540191048E+01 -0.20832595703E+01  0.34626923710E+01  0.00000000000E+00 0.  1.
</event>
<event>
 7    1  0.2318319E-009  0.4778727E+02  0.7816164E-02  0.1312668E+00
        -11   -1    0    0    0    0  0.00000000000E+00  0.00000000000E+00  0.45593999997E+02  0.45594000000E+02  0.51100000000E-03 0.  1.
         11   -1    0    0    0    0 -0.00000000000E+00 -0.00000000000E+00 -0.45593999997E+02  0.45594000000E+02  0.51100000000E-03 0. -1.
    9900012    2    1    2    0    0  0.39320352209E+01 -0.10065088499E+02  0.42033991137E+02  0.47787270531E+02  0.19999997661E+02 0.  0.
         12    1    1    2    0    0 -0.39320352209E+01  0.10065088499E+02 -0.42033991137E+02  0.43400729469E+02  0.00000000000E+00 0. -1.
         11    1    3    3    0    0  0.17760874872E+01  0.14905558650E+01  0.13840188790E+02  0.14033070567E+02  0.51100000000E-03 0. -1.
        -11    1    3    3    0    0  0.82925080084E+01 -0.73306021733E+01  0.17938294237E+02  0.21078088568E+02  0.51100000000E-03 0.  1.
         12    1    3    3    0    0 -0.61365602747E+01 -0.42250421910E+01  0.10255508110E+02  0.12676111396E+02  0.00000000000E+00 0. -1.
</event>
<event>
 7    1  0.2318319E-009  0.4778727E+02  0.7816164E-02  0.1312668E+00
        -11   -1    0    0    0    0  0.00000000000E+00  0.00000000000E+00  0.45593999997E+02  0.45594000000E+02  0.51100000000E-03 0.  1.
         11   -1    0    0    0    0 -0.00000000000E+00 -0.00000000000E+00 -0.45593999997E+02  0.45594000000E+02  0.51100000000E-03 0. -1.
    9900012    2    1    2    0    0 -0.32995843245E+01  0.41382837789E+02  0.12656874782E+02  0.47787274206E+02  0.20000014415E+02 0.  0.
         12    1    1    2    0    0  0.32995843245E+01 -0.41382837789E+02 -0.12656874782E+02  0.43400725794E+02  0.00000000000E+00 0. -1.
         11    1    3    3    0    0 -0.13257532725E+01  0.34808612861E+01  0.38979002555E+01  0.53914417085E+01  0.51100000000E-03 0. -1.
        -11    1    3    3    0    0 -0.24528065274E+01 -0.17656297137E+00  0.30034974209E+01  0.38818077441E+01  0.51100000000E-03 0.  1.
         12    1    3    3    0    0  0.47897547535E+00  0.38078539474E+02  0.57554771056E+01  0.38514024754E+02  0.00000000000E+00 0. -1.
</event>
<event>
 7    1  0.2318319E-009  0.4778727E+02  0.7816164E-02  0.1312668E+00
        -11   -1    0    0    0    0  0.00000000000E+00  0.00000000000E+00  0.45593999997E+02  0.45594000000E+02  0.51100000000E-03 0.  1.
         11   -1    0    0    0    0 -0.00000000000E+00 -0.00000000000E+00 -0.45593999997E+02  0.45594000000E+02  0.51100000000E-03 0. -1.
    9900012    2    1    2    0    0 -0.70659575953E+01  0.23332769623E+02  0.35906508658E+02  0.47787271215E+02  0.20000000779E+02 0.  0.
         12    1    1    2    0    0  0.70659575953E+01 -0.23332769623E+02 -0.35906508658E+02  0.43400728785E+02  0.00000000000E+00 0. -1.
         11    1    3    3    0    0 -0.24440893673E+01  0.13049797358E+02  0.22149669430E+02  0.25823993495E+02  0.51100000000E-03 0.  1.
        -11    1    3    3    0    0 -0.56725730642E+00 -0.30706166426E+01  0.31397423432E+01  0.44281429132E+01  0.51100000000E-03 0. -1.
         12    1    3    3    0    0 -0.40546109215E+01  0.13353588907E+02  0.10617096886E+02  0.17535134807E+02  0.00000000000E+00 0. -1.
</event>
<event>
 7    1  0.2318319E-009  0.4778729E+02  0.7816164E-02  0.1312668E+00
        -11   -1    0    0    0    0  0.00000000000E+00  0.00000000000E+00  0.45593999997E+02  0.45594000000E+02  0.51100000000E-03 0.  1.
         11   -1    0    0    0    0 -0.00000000000E+00 -0.00000000000E+00 -0.45593999997E+02  0.45594000000E+02  0.51100000000E-03 0. -1.
    9900012    2    1    2    0    0 -0.48911725060E+01  0.25338293565E+02  0.34895119005E+02  0.47787285494E+02  0.20000065882E+02 0.  0.
         12    1    1    2    0    0  0.48911725060E+01 -0.25338293565E+02 -0.34895119005E+02  0.43400714506E+02  0.00000000000E+00 0. -1.
         11    1    3    3    0    0 -0.13875472757E+01 -0.36001378462E-02 -0.97969645221E+00  0.16985599203E+01  0.51100000000E-03 0. -1.
        -11    1    3    3    0    0 -0.57522122436E+01  0.13291002718E+02  0.10437647740E+02  0.17851699906E+02  0.51100000000E-03 0.  1.
         12    1    3    3    0    0  0.22485870133E+01  0.12050890985E+02  0.25437167717E+02  0.28237025668E+02  0.00000000000E+00 0. -1.
</event>
<event>
 7    1  0.2398793E-009  0.4778727E+02  0.7816164E-02  0.1312668E+00
        -11   -1    0    0    0    0  0.00000000000E+00  0.00000000000E+00  0.45593999997E+02  0.45594000000E+02  0.51100000000E-03 0. -1.
         11   -1    0    0    0    0 -0.00000000000E+00 -0.00000000000E+00 -0.45593999997E+02  0.45594000000E+02  0.51100000000E-03 0.  1.
    9900012    2    1    2    0    0  0.25992981597E+01  0.18663307814E+02 -0.39096652453E+02  0.47787266798E+02  0.19999980637E+02 0.  0.
         12    1    1    2    0    0 -0.25992981597E+01 -0.18663307814E+02  0.39096652453E+02  0.43400733202E+02  0.00000000000E+00 0. -1.
         11    1    3    3    0    0 -0.18408776898E+01  0.12130010203E+00  0.91238037185E+00  0.20581502830E+01  0.51100000000E-03 0. -1.
        -11    1    3    3    0    0  0.31993812502E+01 -0.30654954991E+00 -0.48745305575E+01  0.58387551265E+01  0.51100000000E-03 0.  1.
        -12    1    3    3    0    0  0.12407945993E+01  0.18848557262E+02 -0.35134502267E+02  0.39890361388E+02  0.00000000000E+00 0.  1.
</event>
<event>
 7    1  0.2318319E-009  0.4778727E+02  0.7816164E-02  0.1312668E+00
        -11   -1    0    0    0    0  0.00000000000E+00  0.00000000000E+00  0.45593999997E+02  0.45594000000E+02  0.51100000000E-03 0.  1.
         11   -1    0    0    0    0 -0.00000000000E+00 -0.00000000000E+00 -0.45593999997E+02  0.45594000000E+02  0.51100000000E-03 0. -1.
    9900012    2    1    2    0    0  0.44044947412E+01  0.36851961630E+02  0.22497918825E+02  0.47787274184E+02  0.20000014315E+02 0.  0.
         12    1    1    2    0    0 -0.44044947412E+01 -0.36851961630E+02 -0.22497918825E+02  0.43400725816E+02  0.00000000000E+00 0. -1.
         11    1    3    3    0    0 -0.10806204244E+01  0.34394575853E+01  0.17303658677E+01  0.39989717778E+01  0.51100000000E-03 0. -1.
        -11    1    3    3    0    0  0.23941154112E+01  0.34561244177E+02  0.16438189256E+02  0.38346126974E+02  0.51100000000E-03 0.  1.
         12    1    3    3    0    0  0.30909997544E+01 -0.11487401322E+01  0.43293637012E+01  0.54421754318E+01  0.00000000000E+00 0. -1.
</event>
<event>
 7    1  0.2318319E-009  0.4778727E+02  0.7816164E-02  0.1312668E+00
        -11   -1    0    0    0    0  0.00000000000E+00  0.00000000000E+00  0.45593999997E+02  0.45594000000E+02  0.51100000000E-03 0.  1.
         11   -1    0    0    0    0 -0.00000000000E+00 -0.00000000000E+00 -0.45593999997E+02  0.45594000000E+02  0.51100000000E-03 0. -1.
    9900012    2    1    2    0    0 -0.27501824600E+02 -0.22598733718E+02  0.24830830650E+02  0.47787271058E+02  0.20000000062E+02 0.  0.
         12    1    1    2    0    0  0.27501824600E+02  0.22598733718E+02 -0.24830830650E+02  0.43400728942E+02  0.00000000000E+00 0. -1.
         11    1    3    3    0    0  0.23662300792E+01 -0.41330760296E+01  0.32404510662E+01  0.57603720043E+01  0.51100000000E-03 0. -1.
        -11    1    3    3    0    0 -0.93420593839E+01 -0.10374199470E+02  0.92507063650E+01  0.16747347751E+02  0.51100000000E-03 0.  1.
         12    1    3    3    0    0 -0.20525995295E+02 -0.80914582184E+01  0.12339673218E+02  0.25279551303E+02  0.00000000000E+00 0. -1.
</event>
<event>
 7    1  0.2318319E-009  0.4778726E+02  0.7816164E-02  0.1312668E+00
        -11   -1    0    0    0    0  0.00000000000E+00  0.00000000000E+00  0.45593999997E+02  0.45594000000E+02  0.51100000000E-03 0.  1.
         11   -1    0    0    0    0 -0.00000000000E+00 -0.00000000000E+00 -0.45593999997E+02  0.45594000000E+02  0.51100000000E-03 0. -1.
    9900012    2    1    2    0    0  0.95067592056E+01  0.18095969561E+02  0.38285523572E+02  0.47787263830E+02  0.19999967105E+02 0.  0.
         12    1    1    2    0    0 -0.95067592056E+01 -0.18095969561E+02 -0.38285523572E+02  0.43400736170E+02  0.00000000000E+00 0. -1.
         11    1    3    3    0    0 -0.56311468426E-01 -0.10586655645E+01  0.12341197985E+01  0.16269590336E+01  0.51100000000E-03 0.  1.
        -11    1    3    3    0    0 -0.17513962922E+01  0.13779953175E+02  0.12915104540E+02  0.18967193362E+02  0.51100000000E-03 0. -1.
        -12    1    3    3    0    0  0.11314466966E+02  0.53746819506E+01  0.24136299233E+02  0.27193111434E+02  0.00000000000E+00 0.  1.
</event>
<event>
 7    1  0.2318319E-009  0.4778727E+02  0.7816164E-02  0.1312668E+00
        -11   -1    0    0    0    0  0.00000000000E+00  0.00000000000E+00  0.45593999997E+02  0.45594000000E+02  0.51100000000E-03 0.  1.
         11   -1    0    0    0    0 -0.00000000000E+00 -0.00000000000E+00 -0.45593999997E+02  0.45594000000E+02  0.51100000000E-03 0. -1.
    9900012    2    1    2    0    0  0.30904545364E+02 -0.20703888232E+02  0.22358024799E+02  0.47787272068E+02  0.20000004669E+02 0.  0.
         12    1    1    2    0    0 -0.30904545364E+02  0.20703888232E+02 -0.22358024799E+02  0.43400727932E+02  0.00000000000E+00 0. -1.
         11    1    3    3    0    0  0.32065135540E+01  0.27702080736E+01  0.55435260044E+01  0.69775685425E+01  0.51100000000E-03 0. -1.
        -11    1    3    3    0    0  0.18073390923E+02 -0.10380667249E+02  0.10866832921E+02  0.23505186023E+02  0.51100000000E-03 0.  1.
        -12    1    3    3    0    0  0.96246408872E+01 -0.13093429057E+02  0.59476658737E+01  0.17304517503E+02  0.00000000000E+00 0.  1.
</event>
<event>
 7    1  0.2318319E-009  0.4778726E+02  0.7816164E-02  0.1312668E+00
        -11   -1    0    0    0    0  0.00000000000E+00  0.00000000000E+00  0.45593999997E+02  0.45594000000E+02  0.51100000000E-03 0.  1.
         11   -1    0    0    0    0 -0.00000000000E+00 -0.00000000000E+00 -0.45593999997E+02  0.45594000000E+02  0.51100000000E-03 0. -1.
    9900012    2    1    2    0    0 -0.21455746973E+02  0.30341371894E+02  0.22420449485E+02  0.47787257130E+02  0.19999936557E+02 0.  0.
         12    1    1    2    0    0  0.21455746973E+02 -0.30341371894E+02 -0.22420449485E+02  0.43400742870E+02  0.00000000000E+00 0. -1.
         11    1    3    3    0    0 -0.39664219589E+01  0.44104059438E+01 -0.19984571902E+01  0.62592343899E+01  0.51100000000E-03 0. -1.
        -11    1    3    3    0    0  0.74728873776E+00  0.61721975273E+01  0.20345391804E+01  0.65416979991E+01  0.51100000000E-03 0.  1.
         12    1    3    3    0    0 -0.18236613752E+02  0.19758768423E+02  0.22384367494E+02  0.34986324741E+02  0.00000000000E+00 0. -1.
</event>
<event>
 7    1  0.2318319E-009  0.4778727E+02  0.7816164E-02  0.1312668E+00
        -11   -1    0    0    0    0  0.00000000000E+00  0.00000000000E+00  0.45593999997E+02  0.45594000000E+02  0.51100000000E-03 0.  1.
         11   -1    0    0    0    0 -0.00000000000E+00 -0.00000000000E+00 -0.45593999997E+02  0.45594000000E+02  0.51100000000E-03 0. -1.
    9900012    2    1    2    0    0  0.13475865065E+01  0.77589478553E+00  0.43372862399E+02  0.47787271956E+02  0.20000004154E+02 0.  0.
         12    1    1    2    0    0 -0.13475865065E+01 -0.77589478553E+00 -0.43372862399E+02  0.43400728044E+02  0.00000000000E+00 0. -1.
         11    1    3    3    0    0 -0.29552876953E+01  0.21757459450E+01  0.21973741430E+01  0.42773881242E+01  0.51100000000E-03 0. -1.
        -11    1    3    3    0    0 -0.47354541496E+01  0.51596019622E+00  0.12196578987E+02  0.13093787847E+02  0.51100000000E-03 0.  1.
         12    1    3    3    0    0  0.90383283514E+01 -0.19158113557E+01  0.28978909269E+02  0.30416095984E+02  0.00000000000E+00 0. -1.
</event>
<event>
 7    1  0.2318319E-009  0.4778728E+02  0.7816164E-02  0.1312668E+00
        -11   -1    0    0    0    0  0.00000000000E+00  0.00000000000E+00  0.45593999997E+02  0.45594000000E+02  0.51100000000E-03 0.  1.
         11   -1    0    0    0    0 -0.00000000000E+00 -0.00000000000E+00 -0.45593999997E+02  0.45594000000E+02  0.51100000000E-03 0. -1.
    9900012    2    1    2    0    0  0.30938703003E+02  0.27241114792E+02  0.13577202572E+02  0.47787284473E+02  0.20000061226E+02 0.  0.
         12    1    1    2    0    0 -0.30938703003E+02 -0.27241114792E+02 -0.13577202572E+02  0.43400715527E+02  0.00000000000E+00 0. -1.
         11    1    3    3    0    0  0.23276598030E+01  0.68648466270E+01 -0.33730903078E+01  0.79951146244E+01  0.51100000000E-03 0. -1.
        -11    1    3    3    0    0  0.64921379649E+01  0.42220191526E+01  0.32412827938E+00  0.77510231894E+01  0.51100000000E-03 0.  1.
        -12    1    3    3    0    0  0.22118905235E+02  0.16154249012E+02  0.16626164600E+02  0.32041146659E+02  0.00000000000E+00 0.  1.
</event>
<event>
 7    1  0.2318319E-009  0.4778727E+02  0.7816164E-02  0.1312668E+00
        -11   -1    0    0    0    0  0.00000000000E+00  0.00000000000E+00  0.45593999997E+02  0.45594000000E+02  0.51100000000E-03 0.  1.
         11   -1    0    0    0    0 -0.00000000000E+00 -0.00000000000E+00 -0.45593999997E+02  0.45594000000E+02  0.51100000000E-03 0. -1.
    9900012    2    1    2    0    0 -0.13557053468E+02 -0.22537103802E+02  0.34524033099E+02  0.47787267196E+02  0.19999982453E+02 0.  0.
         12    1    1    2    0    0  0.13557053468E+02  0.22537103802E+02 -0.34524033099E+02  0.43400732804E+02  0.00000000000E+00 0. -1.
         11    1    3    3    0    0 -0.47960423355E+00 -0.32240421405E+01  0.46483116736E+01  0.56772589883E+01  0.51100000000E-03 0. -1.
        -11    1    3    3    0    0 -0.16471848225E+02 -0.17522984348E+02  0.29770776773E+02  0.38271084572E+02  0.51100000000E-03 0.  1.
         12    1    3    3    0    0  0.33943989909E+01 -0.17900773139E+01  0.10494465231E+00  0.38389236355E+01  0.00000000000E+00 0. -1.
</event>
<event>
 7    1  0.2318319E-009  0.4778726E+02  0.7816164E-02  0.1312668E+00
        -11   -1    0    0    0    0  0.00000000000E+00  0.00000000000E+00  0.45593999997E+02  0.45594000000E+02  0.51100000000E-03 0.  1.
         11   -1    0    0    0    0 -0.00000000000E+00 -0.00000000000E+00 -0.45593999997E+02  0.45594000000E+02  0.51100000000E-03 0. -1.
    9900012    2    1    2    0    0  0.73338653416E+01  0.25023051610E+02  0.34694171663E+02  0.47787259912E+02  0.19999949245E+02 0.  0.
         12    1    1    2    0    0 -0.73338653416E+01 -0.25023051610E+02 -0.34694171663E+02  0.43400740088E+02  0.00000000000E+00 0. -1.
         11    1    3    3    0    0 -0.41490374503E+01  0.14090763789E+01  0.70000303351E+01  0.82583553423E+01  0.51100000000E-03 0. -1.
        -11    1    3    3    0    0  0.98880001539E+00  0.11740491363E+02  0.15829957167E+02  0.19733332387E+02  0.51100000000E-03 0.  1.
        -12    1    3    3    0    0  0.10494102776E+02  0.11873483868E+02  0.11864184161E+02  0.19795572184E+02  0.00000000000E+00 0.  1.
</event>
<event>
 7    1  0.2318319E-009  0.4778728E+02  0.7816164E-02  0.1312668E+00
        -11   -1    0    0    0    0  0.00000000000E+00  0.00000000000E+00  0.45593999997E+02  0.45594000000E+02  0.51100000000E-03 0.  1.
         11   -1    0    0    0    0 -0.00000000000E+00 -0.00000000000E+00 -0.45593999997E+02  0.45594000000E+02  0.51100000000E-03 0. -1.
    9900012    2    1    2    0    0 -0.35624304063E+02 -0.19877934895E+02  0.14812141728E+02  0.47787275602E+02  0.20000020781E+02 0.  0.
         12    1    1    2    0    0  0.35624304063E+02  0.19877934895E+02 -0.14812141728E+02  0.43400724398E+02  0.00000000000E+00 0. -1.
         11    1    3    3    0    0 -0.16879419378E+01  0.21135972304E+01  0.39228117634E+01  0.47649652286E+01  0.51100000000E-03 0. -1.
        -11    1    3    3    0    0  0.18282033362E+00 -0.19380748046E+01  0.11667076835E+01  0.22695295333E+01  0.51100000000E-03 0.  1.
        -12    1    3    3    0    0 -0.34119182459E+02 -0.20053457321E+02  0.97226222808E+01  0.40752780840E+02  0.00000000000E+00 0.  1.
</event>
<event>
 7    1  0.2318319E-009  0.4778727E+02  0.7816164E-02  0.1312668E+00
        -11   -1    0    0    0    0  0.00000000000E+00  0.00000000000E+00  0.45593999997E+02  0.45594000000E+02  0.51100000000E-03 0.  1.
         11   -1    0    0    0    0 -0.00000000000E+00 -0.00000000000E+00 -0.45593999997E+02  0.45594000000E+02  0.51100000000E-03 0. -1.
    9900012    2    1    2    0    0  0.63779647520E+01 -0.30541714670E+01  0.42820752801E+02  0.47787271110E+02  0.20000000300E+02 0.  0.
         12    1    1    2    0    0 -0.63779647520E+01  0.30541714670E+01 -0.42820752801E+02  0.43400728890E+02  0.00000000000E+00 0. -1.
         11    1    3    3    0    0  0.32033844206E+01 -0.41865579096E+00  0.39386323288E+01  0.50940916070E+01  0.51100000000E-03 0. -1.
        -11    1    3    3    0    0  0.41457113348E+01 -0.79866551227E+01  0.34657323515E+02  0.35806475057E+02  0.51100000000E-03 0.  1.
        -12    1    3    3    0    0 -0.97113100346E+00  0.53511394467E+01  0.42247969572E+01  0.68867044465E+01  0.00000000000E+00 0.  1.
</event>
<event>
 7    1  0.2318319E-009  0.4778727E+02  0.7816164E-02  0.1312668E+00
        -11   -1    0    0    0    0  0.00000000000E+00  0.00000000000E+00  0.45593999997E+02  0.45594000000E+02  0.51100000000E-03 0.  1.
         11   -1    0    0    0    0 -0.00000000000E+00 -0.00000000000E+00 -0.45593999997E+02  0.45594000000E+02  0.51100000000E-03 0. -1.
    9900012    2    1    2    0    0 -0.17179626930E+02  0.22965351656E+02  0.32574161618E+02  0.47787274623E+02  0.20000016315E+02 0.  0.
         12    1    1    2    0    0  0.17179626930E+02 -0.22965351656E+02 -0.32574161618E+02  0.43400725377E+02  0.00000000000E+00 0. -1.
         11    1    3    3    0    0 -0.33606352381E+01  0.55087203569E+01  0.17373705995E+02  0.18533362605E+02  0.51100000000E-03 0. -1.
        -11    1    3    3    0    0 -0.18412833775E+01 -0.82890425048E+00  0.44658147431E+01  0.49011129668E+01  0.51100000000E-03 0.  1.
         12    1    3    3    0    0 -0.11977708315E+02  0.18285535550E+02  0.10734640880E+02  0.24352799051E+02  0.00000000000E+00 0. -1.
</event>
<event>
 7    1  0.2318319E-009  0.4778727E+02  0.7816164E-02  0.1312668E+00
        -11   -1    0    0    0    0  0.00000000000E+00  0.00000000000E+00  0.45593999997E+02  0.45594000000E+02  0.51100000000E-03 0. -1.
         11   -1    0    0    0    0 -0.00000000000E+00 -0.00000000000E+00 -0.45593999997E+02  0.45594000000E+02  0.51100000000E-03 0.  1.
    9900012    2    1    2    0    0 -0.32322202349E+02  0.12119211824E+02  0.26306332848E+02  0.47787271805E+02  0.20000003468E+02 0.  0.
         12    1    1    2    0    0  0.32322202349E+02 -0.12119211824E+02 -0.26306332848E+02  0.43400728195E+02  0.00000000000E+00 0. -1.
         11    1    3    3    0    0 -0.14966199611E+02  0.67477231257E+01  0.89266784214E+01  0.18687013835E+02  0.51100000000E-03 0. -1.
        -11    1    3    3    0    0 -0.19061989853E+02  0.26530839183E+01  0.11549851352E+02  0.22445431115E+02  0.51100000000E-03 0.  1.
         12    1    3    3    0    0  0.17059871144E+01  0.27184047801E+01  0.58298030743E+01  0.66548268548E+01  0.00000000000E+00 0. -1.
</event>
<event>
 7    1  0.2318319E-009  0.4778728E+02  0.7816164E-02  0.1312668E+00
        -11   -1    0    0    0    0  0.00000000000E+00  0.00000000000E+00  0.45593999997E+02  0.45594000000E+02  0.51100000000E-03 0.  1.
         11   -1    0    0    0    0 -0.00000000000E+00 -0.00000000000E+00 -0.45593999997E+02  0.45594000000E+02  0.51100000000E-03 0. -1.
    9900012    2    1    2    0    0 -0.41423509366E+02 -0.96722671829E+01  0.86117921306E+01  0.47787275993E+02  0.20000022562E+02 0.  0.
         12    1    1    2    0    0  0.41423509366E+02  0.96722671829E+01 -0.86117921306E+01  0.43400724007E+02  0.00000000000E+00 0. -1.
         11    1    3    3    0    0 -0.15322779964E+02 -0.10690900225E+02 -0.31902113677E+01  0.18954165301E+02  0.51100000000E-03 0. -1.
        -11    1    3    3    0    0 -0.81516333820E+01 -0.10454963808E+01  0.31562827676E+01  0.88036532557E+01  0.51100000000E-03 0.  1.
         12    1    3    3    0    0 -0.17949096020E+02  0.20641294230E+01  0.86457207306E+01  0.20029457436E+02  0.00000000000E+00 0. -1.
</event>
<event>
 7    1  0.2318319E-009  0.4778727E+02  0.7816164E-02  0.1312668E+00
        -11   -1    0    0    0    0  0.00000000000E+00  0.00000000000E+00  0.45593999997E+02  0.45594000000E+02  0.51100000000E-03 0. -1.
         11   -1    0    0    0    0 -0.00000000000E+00 -0.00000000000E+00 -0.45593999997E+02  0.45594000000E+02  0.51100000000E-03 0.  1.
    9900012    2    1    2    0    0 -0.26138654583E+02 -0.23110382768E+02 -0.25812874069E+02  0.47787268177E+02  0.19999986925E+02 0.  0.
         12    1    1    2    0    0  0.26138654583E+02  0.23110382768E+02  0.25812874069E+02  0.43400731823E+02  0.00000000000E+00 0. -1.
         11    1    3    3    0    0  0.24423071794E+00 -0.43992321121E+01 -0.86062913493E+00  0.44892732807E+01  0.51100000000E-03 0. -1.
        -11    1    3    3    0    0 -0.13991670758E+02 -0.97547587888E+01 -0.42784378071E+01  0.17584857121E+02  0.51100000000E-03 0.  1.
        -12    1    3    3    0    0 -0.12391214543E+02 -0.89563918674E+01 -0.20673807127E+02  0.25713137775E+02  0.00000000000E+00 0.  1.
</event>
<event>
 7    1  0.2318319E-009  0.4778727E+02  0.7816164E-02  0.1312668E+00
        -11   -1    0    0    0    0  0.00000000000E+00  0.00000000000E+00  0.45593999997E+02  0.45594000000E+02  0.51100000000E-03 0. -1.
         11   -1    0    0    0    0 -0.00000000000E+00 -0.00000000000E+00 -0.45593999997E+02  0.45594000000E+02  0.51100000000E-03 0.  1.
    9900012    2    1    2    0    0  0.68361424724E+01 -0.13022620142E+02 -0.40832603743E+02  0.47787274111E+02  0.20000013983E+02 0.  0.
         12    1    1    2    0    0 -0.68361424724E+01  0.13022620142E+02  0.40832603743E+02  0.43400725889E+02  0.00000000000E+00 0. -1.
         11    1    3    3    0    0  0.45274687279E+01 -0.84130220559E+01 -0.11311327695E+02  0.14806182752E+02  0.51100000000E-03 0. -1.
        -11    1    3    3    0    0  0.70539837935E+00  0.49400912400E+01 -0.90329878461E+01  0.10319736335E+02  0.51100000000E-03 0.  1.
         12    1    3    3    0    0  0.16032753651E+01 -0.95496893263E+01 -0.20488288201E+02  0.22661355024E+02  0.00000000000E+00 0. -1.
</event>
<event>
 7    1  0.2318319E-009  0.4778727E+02  0.7816164E-02  0.1312668E+00
        -11   -1    0    0    0    0  0.00000000000E+00  0.00000000000E+00  0.45593999997E+02  0.45594000000E+02  0.51100000000E-03 0.  1.
         11   -1    0    0    0    0 -0.00000000000E+00 -0.00000000000E+00 -0.45593999997E+02  0.45594000000E+02  0.51100000000E-03 0. -1.
    9900012    2    1    2    0    0  0.10286433778E+02  0.36490465607E+02  0.21124836228E+02  0.47787268373E+02  0.19999987822E+02 0.  0.
         12    1    1    2    0    0 -0.10286433778E+02 -0.36490465607E+02 -0.21124836228E+02  0.43400731627E+02  0.00000000000E+00 0. -1.
         11    1    3    3    0    0  0.11385877237E+01 -0.11253357453E+01 -0.16038614393E+01  0.22660834763E+01  0.51100000000E-03 0. -1.
        -11    1    3    3    0    0  0.12171299402E+01  0.96611774669E+01  0.23132434343E+01  0.10008538894E+02  0.51100000000E-03 0.  1.
        -12    1    3    3    0    0  0.79307161138E+01  0.27954623885E+02  0.20415454233E+02  0.35512646004E+02  0.00000000000E+00 0.  1.
</event>
<event>
 7    1  0.2318319E-009  0.4778727E+02  0.7816164E-02  0.1312668E+00
        -11   -1    0    0    0    0  0.00000000000E+00  0.00000000000E+00  0.45593999997E+02  0.45594000000E+02  0.51100000000E-03 0.  1.
         11   -1    0    0    0    0 -0.00000000000E+00 -0.00000000000E+00 -0.45593999997E+02  0.45594000000E+02  0.51100000000E-03 0. -1.
    9900012    2    1    2    0    0 -0.41080650657E+02  0.13722904863E+02  0.27722296722E+01  0.47787271508E+02  0.20000002112E+02 0.  0.
         12    1    1    2    0    0  0.41080650657E+02 -0.13722904863E+02 -0.27722296722E+01  0.43400728492E+02  0.00000000000E+00 0. -1.
         11    1    3    3    0    0 -0.16183710225E+02  0.99599554358E+01 -0.48658036390E+01  0.19616045326E+02  0.51100000000E-03 0. -1.
        -11    1    3    3    0    0 -0.72585991248E+01 -0.75419884053E+00 -0.20045066491E+01  0.75679669868E+01  0.51100000000E-03 0.  1.
        -12    1    3    3    0    0 -0.17638341308E+02  0.45171482682E+01  0.96425399603E+01  0.20603259195E+02  0.00000000000E+00 0.  1.
</event>
<event>
 7    1  0.2318319E-009  0.4778727E+02  0.7816164E-02  0.1312668E+00
        -11   -1    0    0    0    0  0.00000000000E+00  0.00000000000E+00  0.45593999997E+02  0.45594000000E+02  0.51100000000E-03 0.  1.
         11   -1    0    0    0    0 -0.00000000000E+00 -0.00000000000E+00 -0.45593999997E+02  0.45594000000E+02  0.51100000000E-03 0. -1.
    9900012    2    1    2    0    0  0.16994710790E+02  0.39138612015E+02  0.79354839339E+01  0.47787273618E+02  0.20000011732E+02 0.  0.
         12    1    1    2    0    0 -0.16994710790E+02 -0.39138612015E+02 -0.79354839339E+01  0.43400726382E+02  0.00000000000E+00 0. -1.
         11    1    3    3    0    0  0.17449156892E+02  0.28967842186E+02  0.11229930265E+02  0.35633134736E+02  0.51100000000E-03 0.  1.
        -11    1    3    3    0    0  0.46830081468E+00 -0.57353243658E+00 -0.79106967691E+00  0.10835296967E+01  0.51100000000E-03 0. -1.
        -12    1    3    3    0    0 -0.92274691693E+00  0.10744302265E+02 -0.25033766537E+01  0.11070609184E+02  0.00000000000E+00 0.  1.
</event>
<event>
 7    1  0.2318319E-009  0.4778727E+02  0.7816164E-02  0.1312668E+00
        -11   -1    0    0    0    0  0.00000000000E+00  0.00000000000E+00  0.45593999997E+02  0.45594000000E+02  0.51100000000E-03 0.  1.
         11   -1    0    0    0    0 -0.00000000000E+00 -0.00000000000E+00 -0.45593999997E+02  0.45594000000E+02  0.51100000000E-03 0. -1.
    9900012    2    1    2    0    0  0.24251744091E+02 -0.76265657081E+01  0.35175443119E+02  0.47787269654E+02  0.19999993661E+02 0.  0.
         12    1    1    2    0    0 -0.24251744091E+02  0.76265657081E+01 -0.35175443119E+02  0.43400730346E+02  0.00000000000E+00 0. -1.
         11    1    3    3    0    0 -0.25328517595E+01 -0.38851729764E+01  0.73993170568E+01  0.87326857415E+01  0.51100000000E-03 0. -1.
        -11    1    3    3    0    0  0.31542848084E+01 -0.14788835598E+01  0.20175217995E+01  0.40257923082E+01  0.51100000000E-03 0.  1.
        -12    1    3    3    0    0  0.23630311043E+02 -0.22625091718E+01  0.25758604262E+02  0.35028791604E+02  0.00000000000E+00 0.  1.
</event>
<event>
 7    1  0.2318319E-009  0.4778726E+02  0.7816164E-02  0.1312668E+00
        -11   -1    0    0    0    0  0.00000000000E+00  0.00000000000E+00  0.45593999997E+02  0.45594000000E+02  0.51100000000E-03 0.  1.
         11   -1    0    0    0    0 -0.00000000000E+00 -0.00000000000E+00 -0.45593999997E+02  0.45594000000E+02  0.51100000000E-03 0. -1.
    9900012    2    1    2    0    0  0.31013118259E+02 -0.29040587178E+02 -0.88574738144E+01  0.47787262101E+02  0.19999959224E+02 0.  0.
         12    1    1    2    0    0 -0.31013118259E+02  0.29040587178E+02  0.88574738144E+01  0.43400737899E+02  0.00000000000E+00 0. -1.
         11    1    3    3    0    0  0.28530129582E-01 -0.97204071043E+00 -0.21357469168E+01  0.23467194687E+01  0.51100000000E-03 0. -1.
        -11    1    3    3    0    0  0.11978362076E+02 -0.14745251700E+02  0.47020074256E+01  0.19570704632E+02  0.51100000000E-03 0.  1.
        -12    1    3    3    0    0  0.19006226053E+02 -0.13323294768E+02 -0.11423734323E+02  0.25869838000E+02  0.00000000000E+00 0.  1.
</event>
<event>
 7    1  0.2318319E-009  0.4778726E+02  0.7816164E-02  0.1312668E+00
        -11   -1    0    0    0    0  0.00000000000E+00  0.00000000000E+00  0.45593999997E+02  0.45594000000E+02  0.51100000000E-03 0.  1.
         11   -1    0    0    0    0 -0.00000000000E+00 -0.00000000000E+00 -0.45593999997E+02  0.45594000000E+02  0.51100000000E-03 0. -1.
    9900012    2    1    2    0    0 -0.17325024497E+02  0.37593665178E+02  0.13045475319E+02  0.47787256208E+02  0.19999932356E+02 0.  0.
         12    1    1    2    0    0  0.17325024497E+02 -0.37593665178E+02 -0.13045475319E+02  0.43400743792E+02  0.00000000000E+00 0. -1.
         11    1    3    3    0    0 -0.21975215237E+01  0.49642059989E+00 -0.12903848768E+01  0.25962718753E+01  0.51100000000E-03 0. -1.
        -11    1    3    3    0    0 -0.17909222149E+02  0.28680511905E+02  0.96436974152E+01  0.35161241463E+02  0.51100000000E-03 0.  1.
         12    1    3    3    0    0  0.27817191762E+01  0.84167326732E+01  0.46921627809E+01  0.10029742870E+02  0.00000000000E+00 0. -1.
</event>
<event>
 7    1  0.2318319E-009  0.4778727E+02  0.7816164E-02  0.1312668E+00
        -11   -1    0    0    0    0  0.00000000000E+00  0.00000000000E+00  0.45593999997E+02  0.45594000000E+02  0.51100000000E-03 0. -1.
         11   -1    0    0    0    0 -0.00000000000E+00 -0.00000000000E+00 -0.45593999997E+02  0.45594000000E+02  0.51100000000E-03 0.  1.
    9900012    2    1    2    0    0 -0.41957408777E+02 -0.10751870939E+02  0.27562295300E+01  0.47787266352E+02  0.19999978606E+02 0.  0.
         12    1    1    2    0    0  0.41957408777E+02  0.10751870939E+02 -0.27562295300E+01  0.43400733648E+02  0.00000000000E+00 0. -1.
         11    1    3    3    0    0 -0.14328947120E+01 -0.60672395118E+00  0.16488152388E+01  0.22671332474E+01  0.51100000000E-03 0. -1.
        -11    1    3    3    0    0 -0.41089114727E+02 -0.65324293008E+01 -0.28858131290E+00  0.41606144510E+02  0.51100000000E-03 0.  1.
        -12    1    3    3    0    0  0.56460066154E+00 -0.36127176866E+01  0.13959956041E+01  0.39139885943E+01  0.00000000000E+00 0.  1.
</event>
<event>
 7    1  0.2318319E-009  0.4778726E+02  0.7816164E-02  0.1312668E+00
        -11   -1    0    0    0    0  0.00000000000E+00  0.00000000000E+00  0.45593999997E+02  0.45594000000E+02  0.51100000000E-03 0.  1.
         11   -1    0    0    0    0 -0.00000000000E+00 -0.00000000000E+00 -0.45593999997E+02  0.45594000000E+02  0.51100000000E-03 0. -1.
    9900012    2    1    2    0    0  0.11808227783E+02  0.10365558101E+02  0.40456706355E+02  0.47787261213E+02  0.19999955175E+02 0.  0.
         12    1    1    2    0    0 -0.11808227783E+02 -0.10365558101E+02 -0.40456706355E+02  0.43400738787E+02  0.00000000000E+00 0. -1.
         11    1    3    3    0    0  0.27655062459E+01 -0.21907137473E+01  0.14967477820E+02  0.15377667055E+02  0.51100000000E-03 0. -1.
        -11    1    3    3    0    0 -0.14785348073E+01  0.76199370318E+01  0.14332815936E+02  0.16299666207E+02  0.51100000000E-03 0.  1.
        -12    1    3    3    0    0  0.10521256344E+02  0.49363348160E+01  0.11156412599E+02  0.16109927950E+02  0.00000000000E+00 0.  1.
</event>
<event>
 7    1  0.2318319E-009  0.4778727E+02  0.7816164E-02  0.1312668E+00
        -11   -1    0    0    0    0  0.00000000000E+00  0.00000000000E+00  0.45593999997E+02  0.45594000000E+02  0.51100000000E-03 0.  1.
         11   -1    0    0    0    0 -0.00000000000E+00 -0.00000000000E+00 -0.45593999997E+02  0.45594000000E+02  0.51100000000E-03 0. -1.
    9900012    2    1    2    0    0  0.14806223209E+02 -0.19277028471E+02  0.35955464673E+02  0.47787268298E+02  0.19999987479E+02 0.  0.
         12    1    1    2    0    0 -0.14806223209E+02  0.19277028471E+02 -0.35955464673E+02  0.43400731702E+02  0.00000000000E+00 0. -1.
         11    1    3    3    0    0 -0.13195120680E+01 -0.50681210544E+00 -0.91763647696E+00  0.16852381353E+01  0.51100000000E-03 0. -1.
        -11    1    3    3    0    0  0.10720430212E+02 -0.10290339063E+02  0.11441374169E+02  0.18754299377E+02  0.51100000000E-03 0.  1.
        -12    1    3    3    0    0  0.54053050642E+01 -0.84798773022E+01  0.25431726981E+02  0.27347730786E+02  0.00000000000E+00 0.  1.
</event>
<event>
 7    1  0.2318319E-009  0.4778727E+02  0.7816164E-02  0.1312668E+00
        -11   -1    0    0    0    0  0.00000000000E+00  0.00000000000E+00  0.45593999997E+02  0.45594000000E+02  0.51100000000E-03 0.  1.
         11   -1    0    0    0    0 -0.00000000000E+00 -0.00000000000E+00 -0.45593999997E+02  0.45594000000E+02  0.51100000000E-03 0. -1.
    9900012    2    1    2    0    0  0.19575484968E+02  0.16666179956E+02  0.34966583777E+02  0.47787272505E+02  0.20000006659E+02 0.  0.
         12    1    1    2    0    0 -0.19575484968E+02 -0.16666179956E+02 -0.34966583777E+02  0.43400727495E+02  0.00000000000E+00 0. -1.
         11    1    3    3    0    0  0.51106552905E+01  0.10689737987E+02  0.14189110116E+02  0.18485673963E+02  0.51100000000E-03 0. -1.
        -11    1    3    3    0    0  0.79910191245E+01  0.68219578935E+01  0.20172566035E+02  0.22744843742E+02  0.51100000000E-03 0.  1.
         12    1    3    3    0    0  0.64738105535E+01 -0.84551592517E+00  0.60490762585E+00  0.65567547993E+01  0.00000000000E+00 0. -1.
</event>
<event>
 7    1  0.2318319E-009  0.4778727E+02  0.7816164E-02  0.1312668E+00
        -11   -1    0    0    0    0  0.00000000000E+00  0.00000000000E+00  0.45593999997E+02  0.45594000000E+02  0.51100000000E-03 0.  1.
         11   -1    0    0    0    0 -0.00000000000E+00 -0.00000000000E+00 -0.45593999997E+02  0.45594000000E+02  0.51100000000E-03 0. -1.
    9900012    2    1    2    0    0 -0.17129359446E+02 -0.39259023035E+02  0.69955297401E+01  0.47787270962E+02  0.19999999623E+02 0.  0.
         12    1    1    2    0    0  0.17129359446E+02  0.39259023035E+02 -0.69955297401E+01  0.43400729038E+02  0.00000000000E+00 0. -1.
         11    1    3    3    0    0 -0.17134924951E+01 -0.23699364724E+01  0.25866664580E+01  0.39042923867E+01  0.51100000000E-03 0. -1.
        -11    1    3    3    0    0 -0.28942493827E+01 -0.25679594084E+02 -0.19465134638E+01  0.25915384364E+02  0.51100000000E-03 0.  1.
        -12    1    3    3    0    0 -0.12521617568E+02 -0.11209492479E+02  0.63553767459E+01  0.17967594211E+02  0.00000000000E+00 0.  1.
</event>
<event>
 7    1  0.2318319E-009  0.4778727E+02  0.7816164E-02  0.1312668E+00
        -11   -1    0    0    0    0  0.00000000000E+00  0.00000000000E+00  0.45593999997E+02  0.45594000000E+02  0.51100000000E-03 0. -1.
         11   -1    0    0    0    0 -0.00000000000E+00 -0.00000000000E+00 -0.45593999997E+02  0.45594000000E+02  0.51100000000E-03 0.  1.
    9900012    2    1    2    0    0 -0.18625968777E+02 -0.26935801527E+02 -0.28480856424E+02  0.47787270750E+02  0.19999998656E+02 0.  0.
         12    1    1    2    0    0  0.18625968777E+02  0.26935801527E+02  0.28480856424E+02  0.43400729250E+02  0.00000000000E+00 0. -1.
         11    1    3    3    0    0 -0.63371970433E+01 -0.37191549440E+01 -0.78444084787E+01  0.10748345198E+02  0.51100000000E-03 0. -1.
        -11    1    3    3    0    0 -0.87432272775E+01 -0.17275068795E+02 -0.22683863291E+02  0.29823307650E+02  0.51100000000E-03 0.  1.
         12    1    3    3    0    0 -0.35455444566E+01 -0.59415777882E+01  0.20474153453E+01  0.72156179016E+01  0.00000000000E+00 0. -1.
</event>
<event>
 7    1  0.2318319E-009  0.4778727E+02  0.7816164E-02  0.1312668E+00
        -11   -1    0    0    0    0  0.00000000000E+00  0.00000000000E+00  0.45593999997E+02  0.45594000000E+02  0.51100000000E-03 0.  1.
         11   -1    0    0    0    0 -0.00000000000E+00 -0.00000000000E+00 -0.45593999997E+02  0.45594000000E+02  0.51100000000E-03 0. -1.
    9900012    2    1    2    0    0 -0.33736047907E+02 -0.26544187700E+02  0.63959539869E+01  0.47787273549E+02  0.20000011419E+02 0.  0.
         12    1    1    2    0    0  0.33736047907E+02  0.26544187700E+02 -0.63959539869E+01  0.43400726451E+02  0.00000000000E+00 0. -1.
         11    1    3    3    0    0 -0.17764888282E+02 -0.31307195138E+01  0.44612774683E+00  0.18044159459E+02  0.51100000000E-03 0. -1.
        -11    1    3    3    0    0 -0.94648641884E+01 -0.89431789062E+01  0.46390173730E+01  0.13823334818E+02  0.51100000000E-03 0.  1.
         12    1    3    3    0    0 -0.65062954367E+01 -0.14470289280E+02  0.13108088671E+01  0.15919779271E+02  0.00000000000E+00 0. -1.
</event>
<event>
 7    1  0.2318319E-009  0.4778727E+02  0.7816164E-02  0.1312668E+00
        -11   -1    0    0    0    0  0.00000000000E+00  0.00000000000E+00  0.45593999997E+02  0.45594000000E+02  0.51100000000E-03 0. -1.
         11   -1    0    0    0    0 -0.00000000000E+00 -0.00000000000E+00 -0.45593999997E+02  0.45594000000E+02  0.51100000000E-03 0.  1.
    9900012    2    1    2    0    0  0.20557789120E+02 -0.14101467375E+01 -0.38197017691E+02  0.47787269962E+02  0.19999995066E+02 0.  0.
         12    1    1    2    0    0 -0.20557789120E+02  0.14101467375E+01  0.38197017691E+02  0.43400730038E+02  0.00000000000E+00 0. -1.
         11    1    3    3    0    0  0.26115601844E+01  0.61925092645E+01 -0.98483904455E+01  0.11923011877E+02  0.51100000000E-03 0.  1.
        -11    1    3    3    0    0  0.21906998267E+01  0.51912137707E+00  0.20010186711E+00  0.22602419678E+01  0.51100000000E-03 0. -1.
        -12    1    3    3    0    0  0.15755529109E+02 -0.81217773790E+01 -0.28548729113E+02  0.33604016118E+02  0.00000000000E+00 0.  1.
</event>
<event>
 7    1  0.2318319E-009  0.4778727E+02  0.7816164E-02  0.1312668E+00
        -11   -1    0    0    0    0  0.00000000000E+00  0.00000000000E+00  0.45593999997E+02  0.45594000000E+02  0.51100000000E-03 0.  1.
         11   -1    0    0    0    0 -0.00000000000E+00 -0.00000000000E+00 -0.45593999997E+02  0.45594000000E+02  0.51100000000E-03 0. -1.
    9900012    2    1    2    0    0  0.41000850727E+02 -0.50711265021E+01  0.13298007398E+02  0.47787273219E+02  0.20000009915E+02 0.  0.
         12    1    1    2    0    0 -0.41000850727E+02  0.50711265021E+01 -0.13298007398E+02  0.43400726781E+02  0.00000000000E+00 0. -1.
         11    1    3    3    0    0  0.11068734214E+02  0.64581666700E+01  0.13724106923E+01  0.12888301098E+02  0.51100000000E-03 0. -1.
        -11    1    3    3    0    0  0.13677279619E+02 -0.19528381509E+01  0.35985272291E+01  0.14276937806E+02  0.51100000000E-03 0.  1.
         12    1    3    3    0    0  0.16254836894E+02 -0.95764550211E+01  0.83270694767E+01  0.20622034315E+02  0.00000000000E+00 0. -1.
</event>
<event>
 7    1  0.2318319E-009  0.4778727E+02  0.7816164E-02  0.1312668E+00
        -11   -1    0    0    0    0  0.00000000000E+00  0.00000000000E+00  0.45593999997E+02  0.45594000000E+02  0.51100000000E-03 0. -1.
         11   -1    0    0    0    0 -0.00000000000E+00 -0.00000000000E+00 -0.45593999997E+02  0.45594000000E+02  0.51100000000E-03 0.  1.
    9900012    2    1    2    0    0  0.21253783084E+02  0.46107578741E+01 -0.37558502101E+02  0.47787268859E+02  0.19999990034E+02 0.  0.
         12    1    1    2    0    0 -0.21253783084E+02 -0.46107578741E+01  0.37558502101E+02  0.43400731141E+02  0.00000000000E+00 0. -1.
         11    1    3    3    0    0  0.44256778713E+01 -0.50472019852E+00 -0.16586361120E+01  0.47531506511E+01  0.51100000000E-03 0. -1.
        -11    1    3    3    0    0 -0.14806222301E+01 -0.28959079707E+00 -0.13582167729E+02  0.13665701061E+02  0.51100000000E-03 0.  1.
        -12    1    3    3    0    0  0.18308727443E+02  0.54050688697E+01 -0.22317698260E+02  0.29368417146E+02  0.00000000000E+00 0.  1.
</event>
<event>
 7    1  0.2318319E-009  0.4778727E+02  0.7816164E-02  0.1312668E+00
        -11   -1    0    0    0    0  0.00000000000E+00  0.00000000000E+00  0.45593999997E+02  0.45594000000E+02  0.51100000000E-03 0. -1.
         11   -1    0    0    0    0 -0.00000000000E+00 -0.00000000000E+00 -0.45593999997E+02  0.45594000000E+02  0.51100000000E-03 0.  1.
    9900012    2    1    2    0    0 -0.11931592634E+02  0.18343899625E+01 -0.41688070773E+02  0.47787272655E+02  0.20000007341E+02 0.  0.
         12    1    1    2    0    0  0.11931592634E+02 -0.18343899625E+01  0.41688070773E+02  0.43400727345E+02  0.00000000000E+00 0. -1.
         11    1    3    3    0    0 -0.38350157930E+00 -0.42159666362E+01 -0.13887495710E+02  0.14518401617E+02  0.51100000000E-03 0. -1.
        -11    1    3    3    0    0  0.16936340009E+01  0.44816557125E+01 -0.55816110983E+01  0.73558151668E+01  0.51100000000E-03 0.  1.
         12    1    3    3    0    0 -0.13241725056E+02  0.15687008863E+01 -0.22218963964E+02  0.25913055871E+02  0.00000000000E+00 0. -1.
</event>
<event>
 7    1  0.2318319E-009  0.4778727E+02  0.7816164E-02  0.1312668E+00
        -11   -1    0    0    0    0  0.00000000000E+00  0.00000000000E+00  0.45593999997E+02  0.45594000000E+02  0.51100000000E-03 0. -1.
         11   -1    0    0    0    0 -0.00000000000E+00 -0.00000000000E+00 -0.45593999997E+02  0.45594000000E+02  0.51100000000E-03 0.  1.
    9900012    2    1    2    0    0  0.26934299335E+02  0.31752555830E+02 -0.12245098267E+02  0.47787265974E+02  0.19999976881E+02 0.  0.
         12    1    1    2    0    0 -0.26934299335E+02 -0.31752555830E+02  0.12245098267E+02  0.43400734026E+02  0.00000000000E+00 0. -1.
         11    1    3    3    0    0 -0.26994218464E+01  0.41474177240E+01 -0.22688963184E+00  0.49537290246E+01  0.51100000000E-03 0. -1.
        -11    1    3    3    0    0  0.10779077454E+01  0.32547724557E+01 -0.20852598964E+01  0.40129462920E+01  0.51100000000E-03 0.  1.
         12    1    3    3    0    0  0.28555813436E+02  0.24350365651E+02 -0.99329487391E+01  0.38820590657E+02  0.00000000000E+00 0. -1.
</event>
<event>
 7    1  0.2318319E-009  0.4778727E+02  0.7816164E-02  0.1312668E+00
        -11   -1    0    0    0    0  0.00000000000E+00  0.00000000000E+00  0.45593999997E+02  0.45594000000E+02  0.51100000000E-03 0. -1.
         11   -1    0    0    0    0 -0.00000000000E+00 -0.00000000000E+00 -0.45593999997E+02  0.45594000000E+02  0.51100000000E-03 0.  1.
    9900012    2    1    2    0    0 -0.72057930513E+01 -0.34940956691E+02 -0.24714961155E+02  0.47787271747E+02  0.20000003203E+02 0.  0.
         12    1    1    2    0    0  0.72057930513E+01  0.34940956691E+02  0.24714961155E+02  0.43400728253E+02  0.00000000000E+00 0. -1.
         11    1    3    3    0    0 -0.74182454966E+00 -0.72824516941E-01  0.22625822501E+01  0.23822018748E+01  0.51100000000E-03 0. -1.
        -11    1    3    3    0    0  0.67921672713E+00 -0.13009103434E+02 -0.62614166701E+01  0.14453492536E+02  0.51100000000E-03 0.  1.
        -12    1    3    3    0    0 -0.71431852288E+01 -0.21859028740E+02 -0.20716126735E+02  0.30951577336E+02  0.00000000000E+00 0.  1.
</event>
<event>
 7    1  0.2318319E-009  0.4778725E+02  0.7816164E-02  0.1312668E+00
        -11   -1    0    0    0    0  0.00000000000E+00  0.00000000000E+00  0.45593999997E+02  0.45594000000E+02  0.51100000000E-03 0.  1.
         11   -1    0    0    0    0 -0.00000000000E+00 -0.00000000000E+00 -0.45593999997E+02  0.45594000000E+02  0.51100000000E-03 0. -1.
    9900012    2    1    2    0    0  0.84224926809E+01  0.13338347253E+01  0.42554761908E+02  0.47787248173E+02  0.19999895722E+02 0.  0.
         12    1    1    2    0    0 -0.84224926809E+01 -0.13338347253E+01 -0.42554761908E+02  0.43400751827E+02  0.00000000000E+00 0. -1.
         11    1    3    3    0    0  0.29898288993E+01 -0.38251425512E+01  0.77701799306E+01  0.91622316495E+01  0.51100000000E-03 0. -1.
        -11    1    3    3    0    0  0.79963376580E+01  0.65476401168E+00  0.31461662712E+02  0.32468544049E+02  0.51100000000E-03 0.  1.
        -12    1    3    3    0    0 -0.25636738763E+01  0.45042132649E+01  0.33229192660E+01  0.61564724744E+01  0.00000000000E+00 0.  1.
</event>
<event>
 7    1  0.2318319E-009  0.4778727E+02  0.7816164E-02  0.1312668E+00
        -11   -1    0    0    0    0  0.00000000000E+00  0.00000000000E+00  0.45593999997E+02  0.45594000000E+02  0.51100000000E-03 0. -1.
         11   -1    0    0    0    0 -0.00000000000E+00 -0.00000000000E+00 -0.45593999997E+02  0.45594000000E+02  0.51100000000E-03 0.  1.
    9900012    2    1    2    0    0  0.97229425758E+00 -0.26698380369E+02 -0.34203426045E+02  0.47787271623E+02  0.20000002640E+02 0.  0.
         12    1    1    2    0    0 -0.97229425758E+00  0.26698380369E+02  0.34203426045E+02  0.43400728377E+02  0.00000000000E+00 0. -1.
         11    1    3    3    0    0  0.41503453840E+01 -0.34476344436E+01 -0.75067932081E+01  0.92446468074E+01  0.51100000000E-03 0. -1.
        -11    1    3    3    0    0 -0.30985815541E+01 -0.86333490872E+01 -0.20887903818E+02  0.22813163969E+02  0.51100000000E-03 0.  1.
         12    1    3    3    0    0 -0.79469572355E-01 -0.14617396838E+02 -0.58087290185E+01  0.15729460847E+02  0.00000000000E+00 0. -1.
</event>
<event>
 7    1  0.2318319E-009  0.4778727E+02  0.7816164E-02  0.1312668E+00
        -11   -1    0    0    0    0  0.00000000000E+00  0.00000000000E+00  0.45593999997E+02  0.45594000000E+02  0.51100000000E-03 0.  1.
         11   -1    0    0    0    0 -0.00000000000E+00 -0.00000000000E+00 -0.45593999997E+02  0.45594000000E+02  0.51100000000E-03 0. -1.
    9900012    2    1    2    0    0 -0.22748841228E+02 -0.31319656235E+02 -0.19626326300E+02  0.47787270422E+02  0.19999997162E+02 0.  0.
         12    1    1    2    0    0  0.22748841228E+02  0.31319656235E+02  0.19626326300E+02  0.43400729578E+02  0.00000000000E+00 0. -1.
         11    1    3    3    0    0 -0.53759596893E+01 -0.13676476619E+02 -0.72536622973E+01  0.16387878822E+02  0.51100000000E-03 0. -1.
        -11    1    3    3    0    0  0.12355295846E+01 -0.70657796875E+01 -0.50680672645E+01  0.87827718862E+01  0.51100000000E-03 0.  1.
         12    1    3    3    0    0 -0.18608411124E+02 -0.10577399928E+02 -0.73045967377E+01  0.22616619714E+02  0.00000000000E+00 0. -1.
</event>
<event>
 7    1  0.2318319E-009  0.4778727E+02  0.7816164E-02  0.1312668E+00
        -11   -1    0    0    0    0  0.00000000000E+00  0.00000000000E+00  0.45593999997E+02  0.45594000000E+02  0.51100000000E-03 0.  1.
         11   -1    0    0    0    0 -0.00000000000E+00 -0.00000000000E+00 -0.45593999997E+02  0.45594000000E+02  0.51100000000E-03 0. -1.
    9900012    2    1    2    0    0 -0.16478776296E+02 -0.35153061684E+02  0.19399365217E+02  0.47787272070E+02  0.20000004677E+02 0.  0.
         12    1    1    2    0    0  0.16478776296E+02  0.35153061684E+02 -0.19399365217E+02  0.43400727930E+02  0.00000000000E+00 0. -1.
         11    1    3    3    0    0 -0.75884811028E+00 -0.42987919364E+01 -0.15529073214E+01  0.46332476705E+01  0.51100000000E-03 0. -1.
        -11    1    3    3    0    0 -0.46287094818E+01 -0.47171090904E+01 -0.17091985852E+01  0.68262310027E+01  0.51100000000E-03 0.  1.
        -12    1    3    3    0    0 -0.11091218704E+02 -0.26137160658E+02  0.22661471124E+02  0.36327793397E+02  0.00000000000E+00 0.  1.
</event>
<event>
 7    1  0.2318319E-009  0.4778727E+02  0.7816164E-02  0.1312668E+00
        -11   -1    0    0    0    0  0.00000000000E+00  0.00000000000E+00  0.45593999997E+02  0.45594000000E+02  0.51100000000E-03 0.  1.
         11   -1    0    0    0    0 -0.00000000000E+00 -0.00000000000E+00 -0.45593999997E+02  0.45594000000E+02  0.51100000000E-03 0. -1.
    9900012    2    1    2    0    0 -0.21351108816E+02 -0.22171021661E+02  0.30597369074E+02  0.47787273699E+02  0.20000012105E+02 0.  0.
         12    1    1    2    0    0  0.21351108816E+02  0.22171021661E+02 -0.30597369074E+02  0.43400726301E+02  0.00000000000E+00 0. -1.
         11    1    3    3    0    0 -0.90241705451E+01 -0.14072947804E+01  0.37348246086E+01  0.98673728897E+01  0.51100000000E-03 0. -1.
        -11    1    3    3    0    0 -0.12943719521E+02 -0.12389987977E+02  0.14894006222E+02  0.23299851903E+02  0.51100000000E-03 0.  1.
        -12    1    3    3    0    0  0.61678125027E+00 -0.83737389036E+01  0.11968538243E+02  0.14620048906E+02  0.00000000000E+00 0.  1.
</event>
<event>
 7    1  0.2318319E-009  0.4778727E+02  0.7816164E-02  0.1312668E+00
        -11   -1    0    0    0    0  0.00000000000E+00  0.00000000000E+00  0.45593999997E+02  0.45594000000E+02  0.51100000000E-03 0.  1.
         11   -1    0    0    0    0 -0.00000000000E+00 -0.00000000000E+00 -0.45593999997E+02  0.45594000000E+02  0.51100000000E-03 0. -1.
    9900012    2    1    2    0    0 -0.30416137077E+02  0.30956606437E+02 -0.41238163495E+00  0.47787274944E+02  0.20000017778E+02 0.  0.
         12    1    1    2    0    0  0.30416137077E+02 -0.30956606437E+02  0.41238163495E+00  0.43400725056E+02  0.00000000000E+00 0. -1.
         11    1    3    3    0    0 -0.33368280612E+01 -0.87600854564E+00  0.28190958884E+01  0.44552344911E+01  0.51100000000E-03 0. -1.
        -11    1    3    3    0    0 -0.13366182491E+02  0.13204053894E+02  0.37723816086E+01  0.19163317481E+02  0.51100000000E-03 0.  1.
         12    1    3    3    0    0 -0.13713126524E+02  0.18628561089E+02 -0.70038591320E+01  0.24168722972E+02  0.00000000000E+00 0. -1.
</event>
<event>
 7    1  0.2318319E-009  0.4778727E+02  0.7816164E-02  0.1312668E+00
        -11   -1    0    0    0    0  0.00000000000E+00  0.00000000000E+00  0.45593999997E+02  0.45594000000E+02  0.51100000000E-03 0.  1.
         11   -1    0    0    0    0 -0.00000000000E+00 -0.00000000000E+00 -0.45593999997E+02  0.45594000000E+02  0.51100000000E-03 0. -1.
    9900012    2    1    2    0    0 -0.15174771820E+01 -0.41744431185E+02  0.11778065307E+02  0.47787273112E+02  0.20000009429E+02 0.  0.
         12    1    1    2    0    0  0.15174771820E+01  0.41744431185E+02 -0.11778065307E+02  0.43400726888E+02  0.00000000000E+00 0. -1.
         11    1    3    3    0    0 -0.39509281718E+01 -0.12948087755E+02  0.41592187561E+01  0.14161988238E+02  0.51100000000E-03 0. -1.
        -11    1    3    3    0    0  0.37044915229E+01 -0.15339965707E+02  0.11541781745E+02  0.19551228387E+02  0.51100000000E-03 0.  1.
         12    1    3    3    0    0 -0.12710405331E+01 -0.13456377724E+02 -0.39229351941E+01  0.14074056488E+02  0.00000000000E+00 0. -1.
</event>
<event>
 7    1  0.2318319E-009  0.4778727E+02  0.7816164E-02  0.1312668E+00
        -11   -1    0    0    0    0  0.00000000000E+00  0.00000000000E+00  0.45593999997E+02  0.45594000000E+02  0.51100000000E-03 0.  1.
         11   -1    0    0    0    0 -0.00000000000E+00 -0.00000000000E+00 -0.45593999997E+02  0.45594000000E+02  0.51100000000E-03 0. -1.
    9900012    2    1    2    0    0 -0.23657646023E+02  0.31404281040E+02  0.18376890608E+02  0.47787271994E+02  0.20000004331E+02 0.  0.
         12    1    1    2    0    0  0.23657646023E+02 -0.31404281040E+02 -0.18376890608E+02  0.43400728006E+02  0.00000000000E+00 0. -1.
         11    1    3    3    0    0 -0.29344571875E+01  0.11180101509E+02 -0.18503942572E+01  0.11705967192E+02  0.51100000000E-03 0. -1.
        -11    1    3    3    0    0 -0.56995575257E+01  0.18609883466E+01  0.26577140686E+01  0.65583288989E+01  0.51100000000E-03 0.  1.
        -12    1    3    3    0    0 -0.15023631310E+02  0.18363191184E+02  0.17569570797E+02  0.29522975904E+02  0.00000000000E+00 0.  1.
</event>
<event>
 7    1  0.2318319E-009  0.4778727E+02  0.7816164E-02  0.1312668E+00
        -11   -1    0    0    0    0  0.00000000000E+00  0.00000000000E+00  0.45593999997E+02  0.45594000000E+02  0.51100000000E-03 0.  1.
         11   -1    0    0    0    0 -0.00000000000E+00 -0.00000000000E+00 -0.45593999997E+02  0.45594000000E+02  0.51100000000E-03 0. -1.
    9900012    2    1    2    0    0  0.64649673934E+01  0.23188823355E+02  0.36112405271E+02  0.47787272513E+02  0.20000006694E+02 0.  0.
         12    1    1    2    0    0 -0.64649673934E+01 -0.23188823355E+02 -0.36112405271E+02  0.43400727487E+02  0.00000000000E+00 0. -1.
         11    1    3    3    0    0  0.36447131097E+01  0.11756623211E+01  0.89150926601E+01  0.97028342738E+01  0.51100000000E-03 0. -1.
        -11    1    3    3    0    0 -0.24936924487E+00 -0.12545607892E+01 -0.83279022053E+00  0.15263183176E+01  0.51100000000E-03 0.  1.
        -12    1    3    3    0    0  0.30696235285E+01  0.23267721823E+02  0.28030102831E+02  0.36558119921E+02  0.00000000000E+00 0.  1.
</event>
<event>
 7    1  0.2318319E-009  0.4778722E+02  0.7816164E-02  0.1312668E+00
        -11   -1    0    0    0    0  0.00000000000E+00  0.00000000000E+00  0.45593999997E+02  0.45594000000E+02  0.51100000000E-03 0.  1.
         11   -1    0    0    0    0 -0.00000000000E+00 -0.00000000000E+00 -0.45593999997E+02  0.45594000000E+02  0.51100000000E-03 0. -1.
    9900012    2    1    2    0    0  0.35687449034E+02  0.16480329741E+02  0.18396540712E+02  0.47787216630E+02  0.19999751903E+02 0.  0.
         12    1    1    2    0    0 -0.35687449034E+02 -0.16480329741E+02 -0.18396540712E+02  0.43400783370E+02  0.00000000000E+00 0. -1.
         11    1    3    3    0    0  0.53963948193E+01  0.46996413005E+00  0.37145196698E+01  0.65680742968E+01  0.51100000000E-03 0. -1.
        -11    1    3    3    0    0  0.95708552697E+01  0.10323250339E+02  0.13802014571E+02  0.19714623371E+02  0.51100000000E-03 0.  1.
         12    1    3    3    0    0  0.20720198945E+02  0.56871152715E+01  0.88000647044E+00  0.21504518963E+02  0.00000000000E+00 0. -1.
</event>
<event>
 7    1  0.2318319E-009  0.4778727E+02  0.7816164E-02  0.1312668E+00
        -11   -1    0    0    0    0  0.00000000000E+00  0.00000000000E+00  0.45593999997E+02  0.45594000000E+02  0.51100000000E-03 0.  1.
         11   -1    0    0    0    0 -0.00000000000E+00 -0.00000000000E+00 -0.45593999997E+02  0.45594000000E+02  0.51100000000E-03 0. -1.
    9900012    2    1    2    0    0 -0.16112019506E+02  0.22881967029E+01  0.40234195987E+02  0.47787267939E+02  0.19999985839E+02 0.  0.
         12    1    1    2    0    0  0.16112019506E+02 -0.22881967029E+01 -0.40234195987E+02  0.43400732061E+02  0.00000000000E+00 0. -1.
         11    1    3    3    0    0 -0.77871268155E+01 -0.45210629512E+00  0.19340372927E+02  0.20854106774E+02  0.51100000000E-03 0. -1.
        -11    1    3    3    0    0 -0.28261292746E+01  0.18448990417E+00  0.20672303486E+02  0.20865406176E+02  0.51100000000E-03 0.  1.
         12    1    3    3    0    0 -0.54987634162E+01  0.25558130939E+01  0.22151957437E+00  0.60677549885E+01  0.00000000000E+00 0. -1.
</event>
<event>
 7    1  0.2318319E-009  0.4778727E+02  0.7816164E-02  0.1312668E+00
        -11   -1    0    0    0    0  0.00000000000E+00  0.00000000000E+00  0.45593999997E+02  0.45594000000E+02  0.51100000000E-03 0.  1.
         11   -1    0    0    0    0 -0.00000000000E+00 -0.00000000000E+00 -0.45593999997E+02  0.45594000000E+02  0.51100000000E-03 0. -1.
    9900012    2    1    2    0    0 -0.40061423470E+02  0.16682163329E+02  0.64142281249E+00  0.47787266746E+02  0.19999980401E+02 0.  0.
         12    1    1    2    0    0  0.40061423470E+02 -0.16682163329E+02 -0.64142281249E+00  0.43400733254E+02  0.00000000000E+00 0. -1.
         11    1    3    3    0    0 -0.33065931238E+02  0.12242059638E+02 -0.33101605905E+01  0.35414417914E+02  0.51100000000E-03 0.  1.
        -11    1    3    3    0    0 -0.61986433747E+01  0.64091905372E+01  0.13560024354E+01  0.90188494773E+01  0.51100000000E-03 0. -1.
        -12    1    3    3    0    0 -0.79684885738E+00 -0.19690868463E+01  0.25955809675E+01  0.33539993543E+01  0.00000000000E+00 0.  1.
</event>
<event>
 7    1  0.2318319E-009  0.4778727E+02  0.7816164E-02  0.1312668E+00
        -11   -1    0    0    0    0  0.00000000000E+00  0.00000000000E+00  0.45593999997E+02  0.45594000000E+02  0.51100000000E-03 0. -1.
         11   -1    0    0    0    0 -0.00000000000E+00 -0.00000000000E+00 -0.45593999997E+02  0.45594000000E+02  0.51100000000E-03 0.  1.
    9900012    2    1    2    0    0  0.35325584470E+02  0.45216014490E+01 -0.24804869896E+02  0.47787269956E+02  0.19999995039E+02 0.  0.
         12    1    1    2    0    0 -0.35325584470E+02 -0.45216014490E+01  0.24804869896E+02  0.43400730044E+02  0.00000000000E+00 0. -1.
         11    1    3    3    0    0  0.10545219462E+01 -0.19525066917E+01 -0.87852573220E+01  0.90611834432E+01  0.51100000000E-03 0.  1.
        -11    1    3    3    0    0  0.32045411361E+01 -0.72943023685E+00 -0.76355890409E+00  0.33740442832E+01  0.51100000000E-03 0. -1.
        -12    1    3    3    0    0  0.31066521387E+02  0.72035383776E+01 -0.15256053670E+02  0.35352042230E+02  0.00000000000E+00 0.  1.
</event>
<event>
 7    1  0.2318319E-009  0.4778727E+02  0.7816164E-02  0.1312668E+00
        -11   -1    0    0    0    0  0.00000000000E+00  0.00000000000E+00  0.45593999997E+02  0.45594000000E+02  0.51100000000E-03 0.  1.
         11   -1    0    0    0    0 -0.00000000000E+00 -0.00000000000E+00 -0.45593999997E+02  0.45594000000E+02  0.51100000000E-03 0. -1.
    9900012    2    1    2    0    0  0.16068575556E+02  0.20057502717E+02  0.34973144397E+02  0.47787269999E+02  0.19999995231E+02 0.  0.
         12    1    1    2    0    0 -0.16068575556E+02 -0.20057502717E+02 -0.34973144397E+02  0.43400730001E+02  0.00000000000E+00 0. -1.
         11    1    3    3    0    0 -0.13394411689E+01  0.45894546997E+01  0.17513159779E+02  0.18154006797E+02  0.51100000000E-03 0. -1.
        -11    1    3    3    0    0  0.26891445301E+01  0.36474029233E+01  0.61067859758E+01  0.76044645837E+01  0.51100000000E-03 0.  1.
         12    1    3    3    0    0  0.14718872195E+02  0.11820645094E+02  0.11353198642E+02  0.22028798618E+02  0.00000000000E+00 0. -1.
</event>
<event>
 7    1  0.2318319E-009  0.4778727E+02  0.7816164E-02  0.1312668E+00
        -11   -1    0    0    0    0  0.00000000000E+00  0.00000000000E+00  0.45593999997E+02  0.45594000000E+02  0.51100000000E-03 0. -1.
         11   -1    0    0    0    0 -0.00000000000E+00 -0.00000000000E+00 -0.45593999997E+02  0.45594000000E+02  0.51100000000E-03 0.  1.
    9900012    2    1    2    0    0 -0.33616802733E+02 -0.21870462061E+01 -0.27363305780E+02  0.47787273044E+02  0.20000009118E+02 0.  0.
         12    1    1    2    0    0  0.33616802733E+02  0.21870462061E+01  0.27363305780E+02  0.43400726956E+02  0.00000000000E+00 0. -1.
         11    1    3    3    0    0 -0.45761437366E+00  0.16427784153E+01 -0.59222216757E+01  0.61628598616E+01  0.51100000000E-03 0. -1.
        -11    1    3    3    0    0 -0.18638005509E+01  0.23477390787E+01 -0.47643128696E+01  0.56288816523E+01  0.51100000000E-03 0.  1.
        -12    1    3    3    0    0 -0.31295387808E+02 -0.61775637001E+01 -0.16676771234E+02  0.35995531530E+02  0.00000000000E+00 0.  1.
</event>
<event>
 7    1  0.2318319E-009  0.4778726E+02  0.7816164E-02  0.1312668E+00
        -11   -1    0    0    0    0  0.00000000000E+00  0.00000000000E+00  0.45593999997E+02  0.45594000000E+02  0.51100000000E-03 0. -1.
         11   -1    0    0    0    0 -0.00000000000E+00 -0.00000000000E+00 -0.45593999997E+02  0.45594000000E+02  0.51100000000E-03 0.  1.
    9900012    2    1    2    0    0 -0.76910200617E+01  0.27245593570E+02 -0.32896045241E+02  0.47787263242E+02  0.19999964427E+02 0.  0.
         12    1    1    2    0    0  0.76910200617E+01 -0.27245593570E+02  0.32896045241E+02  0.43400736758E+02  0.00000000000E+00 0. -1.
         11    1    3    3    0    0 -0.10148948362E+02  0.55498709635E+01 -0.75661059911E+01  0.13822017967E+02  0.51100000000E-03 0. -1.
        -11    1    3    3    0    0 -0.17589937066E+01  0.10208710007E+02 -0.12521065047E+02  0.16250811950E+02  0.51100000000E-03 0.  1.
         12    1    3    3    0    0  0.42169220064E+01  0.11487012600E+02 -0.12808874203E+02  0.17714433326E+02  0.00000000000E+00 0. -1.
</event>
<event>
 7    1  0.2318319E-009  0.4778727E+02  0.7816164E-02  0.1312668E+00
        -11   -1    0    0    0    0  0.00000000000E+00  0.00000000000E+00  0.45593999997E+02  0.45594000000E+02  0.51100000000E-03 0.  1.
         11   -1    0    0    0    0 -0.00000000000E+00 -0.00000000000E+00 -0.45593999997E+02  0.45594000000E+02  0.51100000000E-03 0. -1.
    9900012    2    1    2    0    0  0.23740444108E+00  0.17388178494E+02  0.39764537171E+02  0.47787268110E+02  0.19999986619E+02 0.  0.
         12    1    1    2    0    0 -0.23740444108E+00 -0.17388178494E+02 -0.39764537171E+02  0.43400731890E+02  0.00000000000E+00 0. -1.
         11    1    3    3    0    0  0.71481510683E+01  0.96576992574E+01  0.14007180871E+02  0.18454493622E+02  0.51100000000E-03 0. -1.
        -11    1    3    3    0    0 -0.77672041057E+00  0.77251214665E+01  0.16386721957E+02  0.18132993493E+02  0.51100000000E-03 0.  1.
        -12    1    3    3    0    0 -0.61340262167E+01  0.53577703073E-02  0.93706343428E+01  0.11199780994E+02  0.00000000000E+00 0.  1.
</event>
<event>
 7    1  0.2318319E-009  0.4778727E+02  0.7816164E-02  0.1312668E+00
        -11   -1    0    0    0    0  0.00000000000E+00  0.00000000000E+00  0.45593999997E+02  0.45594000000E+02  0.51100000000E-03 0.  1.
         11   -1    0    0    0    0 -0.00000000000E+00 -0.00000000000E+00 -0.45593999997E+02  0.45594000000E+02  0.51100000000E-03 0. -1.
    9900012    2    1    2    0    0  0.32970466902E+02  0.26622796942E+02 -0.93700713346E+01  0.47787271416E+02  0.20000001695E+02 0.  0.
         12    1    1    2    0    0 -0.32970466902E+02 -0.26622796942E+02  0.93700713346E+01  0.43400728584E+02  0.00000000000E+00 0. -1.
         11    1    3    3    0    0  0.64093670817E+01  0.30049821418E+01 -0.15446165159E+01  0.72453947100E+01  0.51100000000E-03 0. -1.
        -11    1    3    3    0    0  0.16490583460E+02  0.47197551595E+01 -0.84453412911E+01  0.19119080036E+02  0.51100000000E-03 0.  1.
         12    1    3    3    0    0  0.10070516360E+02  0.18898059641E+02  0.61988647237E+00  0.21422796671E+02  0.00000000000E+00 0. -1.
</event>
<event>
 7    1  0.2318319E-009  0.4778727E+02  0.7816164E-02  0.1312668E+00
        -11   -1    0    0    0    0  0.00000000000E+00  0.00000000000E+00  0.45593999997E+02  0.45594000000E+02  0.51100000000E-03 0. -1.
         11   -1    0    0    0    0 -0.00000000000E+00 -0.00000000000E+00 -0.45593999997E+02  0.45594000000E+02  0.51100000000E-03 0.  1.
    9900012    2    1    2    0    0 -0.35895405388E+01 -0.30163500886E+02 -0.30998417569E+02  0.47787268684E+02  0.19999989236E+02 0.  0.
         12    1    1    2    0    0  0.35895405388E+01  0.30163500886E+02  0.30998417569E+02  0.43400731316E+02  0.00000000000E+00 0. -1.
         11    1    3    3    0    0  0.38965510565E+01 -0.19587107520E+01 -0.44214061297E+01  0.62103534820E+01  0.51100000000E-03 0. -1.
        -11    1    3    3    0    0 -0.51212360067E+01 -0.28930670426E+02 -0.23460436892E+02  0.37597910167E+02  0.51100000000E-03 0.  1.
        -12    1    3    3    0    0 -0.23648555885E+01  0.72588029140E+00 -0.31165745479E+01  0.39790050345E+01  0.00000000000E+00 0.  1.
</event>
<event>
 7    1  0.2318319E-009  0.4778728E+02  0.7816164E-02  0.1312668E+00
        -11   -1    0    0    0    0  0.00000000000E+00  0.00000000000E+00  0.45593999997E+02  0.45594000000E+02  0.51100000000E-03 0.  1.
         11   -1    0    0    0    0 -0.00000000000E+00 -0.00000000000E+00 -0.45593999997E+02  0.45594000000E+02  0.51100000000E-03 0. -1.
    9900012    2    1    2    0    0 -0.21933332931E+01  0.21908737895E+02  0.37400793487E+02  0.47787275807E+02  0.20000021713E+02 0.  0.
         12    1    1    2    0    0  0.21933332931E+01 -0.21908737895E+02 -0.37400793487E+02  0.43400724193E+02  0.00000000000E+00 0. -1.
         11    1    3    3    0    0  0.50953490778E+00  0.55288856942E+01  0.20290757839E+00  0.55560214712E+01  0.51100000000E-03 0. -1.
        -11    1    3    3    0    0 -0.27851581386E+01  0.38622599052E+01  0.25716682949E+01  0.54118051990E+01  0.51100000000E-03 0.  1.
        -12    1    3    3    0    0  0.82289937637E-01  0.12517592295E+02  0.34626217613E+02  0.36819449136E+02  0.00000000000E+00 0.  1.
</event>
<event>
 7    1  0.2318319E-009  0.4778727E+02  0.7816164E-02  0.1312668E+00
        -11   -1    0    0    0    0  0.00000000000E+00  0.00000000000E+00  0.45593999997E+02  0.45594000000E+02  0.51100000000E-03 0.  1.
         11   -1    0    0    0    0 -0.00000000000E+00 -0.00000000000E+00 -0.45593999997E+02  0.45594000000E+02  0.51100000000E-03 0. -1.
    9900012    2    1    2    0    0 -0.25132121985E+02 -0.34348556346E+02 -0.84956588273E+01  0.47787273077E+02  0.20000009269E+02 0.  0.
         12    1    1    2    0    0  0.25132121985E+02  0.34348556346E+02  0.84956588273E+01  0.43400726923E+02  0.00000000000E+00 0. -1.
         11    1    3    3    0    0  0.87797348634E+00 -0.10931713829E+00 -0.47888592303E+00  0.10060415836E+01  0.51100000000E-03 0.  1.
        -11    1    3    3    0    0 -0.16326151421E+01  0.17728714575E+01 -0.14179280503E+01  0.27962520673E+01  0.51100000000E-03 0. -1.
         12    1    3    3    0    0 -0.24377480329E+02 -0.36012110665E+02 -0.65988448540E+01  0.43984979427E+02  0.00000000000E+00 0. -1.
</event>
<event>
 7    1  0.2318319E-009  0.4778727E+02  0.7816164E-02  0.1312668E+00
        -11   -1    0    0    0    0  0.00000000000E+00  0.00000000000E+00  0.45593999997E+02  0.45594000000E+02  0.51100000000E-03 0.  1.
         11   -1    0    0    0    0 -0.00000000000E+00 -0.00000000000E+00 -0.45593999997E+02  0.45594000000E+02  0.51100000000E-03 0. -1.
    9900012    2    1    2    0    0 -0.10871218180E+02  0.29216781437E+02  0.30196352841E+02  0.47787269279E+02  0.19999991951E+02 0.  0.
         12    1    1    2    0    0  0.10871218180E+02 -0.29216781437E+02 -0.30196352841E+02  0.43400730721E+02  0.00000000000E+00 0. -1.
         11    1    3    3    0    0 -0.82682134886E+00 -0.13373856957E+01  0.37876365849E+01  0.41010273350E+01  0.51100000000E-03 0. -1.
        -11    1    3    3    0    0 -0.65475563193E+01  0.61371521102E+01  0.24567517167E+01  0.93043408706E+01  0.51100000000E-03 0.  1.
        -12    1    3    3    0    0 -0.34968405116E+01  0.24417015022E+02  0.23951964539E+02  0.34381901074E+02  0.00000000000E+00 0.  1.
</event>
<event>
 7    1  0.2318319E-009  0.4778726E+02  0.7816164E-02  0.1312668E+00
        -11   -1    0    0    0    0  0.00000000000E+00  0.00000000000E+00  0.45593999997E+02  0.45594000000E+02  0.51100000000E-03 0.  1.
         11   -1    0    0    0    0 -0.00000000000E+00 -0.00000000000E+00 -0.45593999997E+02  0.45594000000E+02  0.51100000000E-03 0. -1.
    9900012    2    1    2    0    0 -0.20186253183E+02  0.34420209940E+01  0.38266066672E+02  0.47787260552E+02  0.19999952160E+02 0.  0.
         12    1    1    2    0    0  0.20186253183E+02 -0.34420209940E+01 -0.38266066672E+02  0.43400739448E+02  0.00000000000E+00 0. -1.
         11    1    3    3    0    0 -0.78795159473E+01 -0.10982029424E+01  0.10046068934E+02  0.12814691668E+02  0.51100000000E-03 0. -1.
        -11    1    3    3    0    0 -0.12110323821E+02 -0.98273827453E+00  0.26551964818E+02  0.29199872491E+02  0.51100000000E-03 0.  1.
        -12    1    3    3    0    0 -0.19641341453E+00  0.55229622110E+01  0.16680329207E+01  0.57726963923E+01  0.00000000000E+00 0.  1.
</event>
<event>
 7    1  0.2318319E-009  0.4778727E+02  0.7816164E-02  0.1312668E+00
        -11   -1    0    0    0    0  0.00000000000E+00  0.00000000000E+00  0.45593999997E+02  0.45594000000E+02  0.51100000000E-03 0.  1.
         11   -1    0    0    0    0 -0.00000000000E+00 -0.00000000000E+00 -0.45593999997E+02  0.45594000000E+02  0.51100000000E-03 0. -1.
    9900012    2    1    2    0    0 -0.13392969428E+02  0.30109593354E+02  0.28242947167E+02  0.47787270666E+02  0.19999998273E+02 0.  0.
         12    1    1    2    0    0  0.13392969428E+02 -0.30109593354E+02 -0.28242947167E+02  0.43400729334E+02  0.00000000000E+00 0. -1.
         11    1    3    3    0    0 -0.14109286327E-01 -0.21427732837E+01  0.34292701548E+01  0.40437075158E+01  0.51100000000E-03 0. -1.
        -11    1    3    3    0    0 -0.57966168483E+01  0.11071962971E+02  0.14051495459E+02  0.18805149715E+02  0.51100000000E-03 0.  1.
        -12    1    3    3    0    0 -0.75822432934E+01  0.21180403667E+02  0.10762181554E+02  0.24938413435E+02  0.00000000000E+00 0.  1.
</event>
<event>
 7    1  0.2318319E-009  0.4778726E+02  0.7816164E-02  0.1312668E+00
        -11   -1    0    0    0    0  0.00000000000E+00  0.00000000000E+00  0.45593999997E+02  0.45594000000E+02  0.51100000000E-03 0.  1.
         11   -1    0    0    0    0 -0.00000000000E+00 -0.00000000000E+00 -0.45593999997E+02  0.45594000000E+02  0.51100000000E-03 0. -1.
    9900012    2    1    2    0    0 -0.22168656450E+02  0.35426221005E+02  0.11711449916E+02  0.47787256658E+02  0.19999934408E+02 0.  0.
         12    1    1    2    0    0  0.22168656450E+02 -0.35426221005E+02 -0.11711449916E+02  0.43400743342E+02  0.00000000000E+00 0. -1.
         11    1    3    3    0    0 -0.11488849745E+01  0.95922543452E+01 -0.15554118881E+01  0.97852228646E+01  0.51100000000E-03 0. -1.
        -11    1    3    3    0    0 -0.72197248007E+01  0.12829645230E+01  0.15307664029E+01  0.74909058335E+01  0.51100000000E-03 0.  1.
        -12    1    3    3    0    0 -0.13800046675E+02  0.24551002137E+02  0.11736095401E+02  0.30511127960E+02  0.00000000000E+00 0.  1.
</event>
<event>
 7    1  0.2318319E-009  0.4778727E+02  0.7816164E-02  0.1312668E+00
        -11   -1    0    0    0    0  0.00000000000E+00  0.00000000000E+00  0.45593999997E+02  0.45594000000E+02  0.51100000000E-03 0.  1.
         11   -1    0    0    0    0 -0.00000000000E+00 -0.00000000000E+00 -0.45593999997E+02  0.45594000000E+02  0.51100000000E-03 0. -1.
    9900012    2    1    2    0    0 -0.30693385433E+02 -0.25483172115E+02  0.17092320347E+02  0.47787269761E+02  0.19999994148E+02 0.  0.
         12    1    1    2    0    0  0.30693385433E+02  0.25483172115E+02 -0.17092320347E+02  0.43400730239E+02  0.00000000000E+00 0. -1.
         11    1    3    3    0    0 -0.43577137489E+01  0.14894775230E+01  0.15654581617E+01  0.48640386435E+01  0.51100000000E-03 0. -1.
        -11    1    3    3    0    0 -0.19361846643E+02 -0.12680680269E+02  0.13751386887E+02  0.26921764413E+02  0.51100000000E-03 0.  1.
        -12    1    3    3    0    0 -0.69738250411E+01 -0.14291969370E+02  0.17754752987E+01  0.16001466705E+02  0.00000000000E+00 0.  1.
</event>
<event>
 7    1  0.2318319E-009  0.4778727E+02  0.7816164E-02  0.1312668E+00
        -11   -1    0    0    0    0  0.00000000000E+00  0.00000000000E+00  0.45593999997E+02  0.45594000000E+02  0.51100000000E-03 0. -1.
         11   -1    0    0    0    0 -0.00000000000E+00 -0.00000000000E+00 -0.45593999997E+02  0.45594000000E+02  0.51100000000E-03 0.  1.
    9900012    2    1    2    0    0 -0.82820274717E+01 -0.26657708901E+02 -0.33232484298E+02  0.47787269182E+02  0.19999991509E+02 0.  0.
         12    1    1    2    0    0  0.82820274717E+01  0.26657708901E+02  0.33232484298E+02  0.43400730818E+02  0.00000000000E+00 0. -1.
         11    1    3    3    0    0  0.23983613206E+01 -0.10731135385E+01 -0.55772729846E+00  0.26860323325E+01  0.51100000000E-03 0. -1.
        -11    1    3    3    0    0 -0.22759959218E+01 -0.19710708706E+02 -0.15836737460E+02  0.25386895218E+02  0.51100000000E-03 0.  1.
        -12    1    3    3    0    0 -0.84043928705E+01 -0.58738866561E+01 -0.16838019539E+02  0.19714341632E+02  0.00000000000E+00 0.  1.
</event>
<event>
 7    1  0.2318319E-009  0.4778727E+02  0.7816164E-02  0.1312668E+00
        -11   -1    0    0    0    0  0.00000000000E+00  0.00000000000E+00  0.45593999997E+02  0.45594000000E+02  0.51100000000E-03 0.  1.
         11   -1    0    0    0    0 -0.00000000000E+00 -0.00000000000E+00 -0.45593999997E+02  0.45594000000E+02  0.51100000000E-03 0. -1.
    9900012    2    1    2    0    0 -0.30344686542E+01 -0.40990651949E+02  0.13934917297E+02  0.47787268816E+02  0.19999989839E+02 0.  0.
         12    1    1    2    0    0  0.30344686542E+01  0.40990651949E+02 -0.13934917297E+02  0.43400731184E+02  0.00000000000E+00 0. -1.
         11    1    3    3    0    0 -0.29174642872E+01 -0.10994362232E+02  0.10071193746E+02  0.15192647646E+02  0.51100000000E-03 0. -1.
        -11    1    3    3    0    0  0.82724549517E+00 -0.22190282646E+02  0.81320390338E+01  0.23647897119E+02  0.51100000000E-03 0.  1.
        -12    1    3    3    0    0 -0.94424986216E+00 -0.78060070711E+01 -0.42683154826E+01  0.89467240516E+01  0.00000000000E+00 0.  1.
</event>
<event>
 7    1  0.2318319E-009  0.4778727E+02  0.7816164E-02  0.1312668E+00
        -11   -1    0    0    0    0  0.00000000000E+00  0.00000000000E+00  0.45593999997E+02  0.45594000000E+02  0.51100000000E-03 0. -1.
         11   -1    0    0    0    0 -0.00000000000E+00 -0.00000000000E+00 -0.45593999997E+02  0.45594000000E+02  0.51100000000E-03 0.  1.
    9900012    2    1    2    0    0  0.19094845550E+02 -0.31758250331E+02 -0.22592568989E+02  0.47787265395E+02  0.19999974243E+02 0.  0.
         12    1    1    2    0    0 -0.19094845550E+02  0.31758250331E+02  0.22592568989E+02  0.43400734605E+02  0.00000000000E+00 0. -1.
         11    1    3    3    0    0  0.28244996402E+01 -0.64644210272E+01 -0.12563608535E+02  0.14408705602E+02  0.51100000000E-03 0. -1.
        -11    1    3    3    0    0  0.60300484893E+01 -0.19986742183E+01 -0.26546204247E+01  0.68849976960E+01  0.51100000000E-03 0.  1.
        -12    1    3    3    0    0  0.10240297421E+02 -0.23295155086E+02 -0.73743400290E+01  0.26493562097E+02  0.00000000000E+00 0.  1.
</event>
<event>
 7    1  0.2318319E-009  0.4778726E+02  0.7816164E-02  0.1312668E+00
        -11   -1    0    0    0    0  0.00000000000E+00  0.00000000000E+00  0.45593999997E+02  0.45594000000E+02  0.51100000000E-03 0.  1.
         11   -1    0    0    0    0 -0.00000000000E+00 -0.00000000000E+00 -0.45593999997E+02  0.45594000000E+02  0.51100000000E-03 0. -1.
    9900012    2    1    2    0    0  0.17357482213E+02  0.10472907672E+02  0.38375253793E+02  0.47787261670E+02  0.19999957258E+02 0.  0.
         12    1    1    2    0    0 -0.17357482213E+02 -0.10472907672E+02 -0.38375253793E+02  0.43400738330E+02  0.00000000000E+00 0. -1.
         11    1    3    3    0    0  0.96668115938E+01 -0.24961335002E+00  0.34462807707E+01  0.10265788066E+02  0.51100000000E-03 0. -1.
        -11    1    3    3    0    0  0.18825999946E+00  0.24052405739E+01  0.46802371395E+01  0.52654766156E+01  0.51100000000E-03 0.  1.
        -12    1    3    3    0    0  0.75024106195E+01  0.83172804484E+01  0.30248735883E+02  0.32255996988E+02  0.00000000000E+00 0.  1.
</event>
<event>
 7    1  0.2318319E-009  0.4778727E+02  0.7816164E-02  0.1312668E+00
        -11   -1    0    0    0    0  0.00000000000E+00  0.00000000000E+00  0.45593999997E+02  0.45594000000E+02  0.51100000000E-03 0.  1.
         11   -1    0    0    0    0 -0.00000000000E+00 -0.00000000000E+00 -0.45593999997E+02  0.45594000000E+02  0.51100000000E-03 0. -1.
    9900012    2    1    2    0    0  0.37490629947E+02  0.78390876909E+01  0.20411388743E+02  0.47787269360E+02  0.19999992322E+02 0.  0.
         12    1    1    2    0    0 -0.37490629947E+02 -0.78390876909E+01 -0.20411388743E+02  0.43400730640E+02  0.00000000000E+00 0. -1.
         11    1    3    3    0    0  0.66537762111E+01 -0.23157597412E+01  0.90116321119E+01  0.11438749697E+02  0.51100000000E-03 0. -1.
        -11    1    3    3    0    0  0.11991627654E+02  0.49880219108E+01  0.10645898514E+02  0.16793291870E+02  0.51100000000E-03 0.  1.
        -12    1    3    3    0    0  0.18845226081E+02  0.51668255214E+01  0.75385811758E+00  0.19555227794E+02  0.00000000000E+00 0.  1.
</event>
<event>
 7    1  0.2318319E-009  0.4778727E+02  0.7816164E-02  0.1312668E+00
        -11   -1    0    0    0    0  0.00000000000E+00  0.00000000000E+00  0.45593999997E+02  0.45594000000E+02  0.51100000000E-03 0. -1.
         11   -1    0    0    0    0 -0.00000000000E+00 -0.00000000000E+00 -0.45593999997E+02  0.45594000000E+02  0.51100000000E-03 0.  1.
    9900012    2    1    2    0    0 -0.26312663510E+02 -0.34514021565E+02 -0.22243528069E+00  0.47787269326E+02  0.19999992167E+02 0.  0.
         12    1    1    2    0    0  0.26312663510E+02  0.34514021565E+02  0.22243528069E+00  0.43400730674E+02  0.00000000000E+00 0. -1.
         11    1    3    3    0    0 -0.21230503733E+01 -0.83789316546E+01  0.39408705772E+01  0.94996999809E+01  0.51100000000E-03 0. -1.
        -11    1    3    3    0    0 -0.15848943186E+02 -0.13388114642E+02  0.38100594492E+01  0.21093770811E+02  0.51100000000E-03 0.  1.
        -12    1    3    3    0    0 -0.83406699502E+01 -0.12746975269E+02 -0.79733653071E+01  0.17193798534E+02  0.00000000000E+00 0.  1.
</event>
<event>
 7    1  0.2318319E-009  0.4778725E+02  0.7816164E-02  0.1312668E+00
        -11   -1    0    0    0    0  0.00000000000E+00  0.00000000000E+00  0.45593999997E+02  0.45594000000E+02  0.51100000000E-03 0.  1.
         11   -1    0    0    0    0 -0.00000000000E+00 -0.00000000000E+00 -0.45593999997E+02  0.45594000000E+02  0.51100000000E-03 0. -1.
    9900012    2    1    2    0    0 -0.35687356019E+02 -0.89786200917E+01  0.23009169081E+02  0.47787252769E+02  0.19999916677E+02 0.  0.
         12    1    1    2    0    0  0.35687356019E+02  0.89786200917E+01 -0.23009169081E+02  0.43400747231E+02  0.00000000000E+00 0. -1.
         11    1    3    3    0    0  0.47027140299E+00  0.21731402390E+01  0.28627214992E+00  0.22417951949E+01  0.51100000000E-03 0. -1.
        -11    1    3    3    0    0 -0.18385306445E+01  0.16862453578E+01  0.31033372808E+01  0.39817484698E+01  0.51100000000E-03 0.  1.
        -12    1    3    3    0    0 -0.34319096777E+02 -0.12838005689E+02  0.19619559651E+02  0.41563709105E+02  0.00000000000E+00 0.  1.
</event>
<event>
 7    1  0.2318319E-009  0.4778727E+02  0.7816164E-02  0.1312668E+00
        -11   -1    0    0    0    0  0.00000000000E+00  0.00000000000E+00  0.45593999997E+02  0.45594000000E+02  0.51100000000E-03 0. -1.
         11   -1    0    0    0    0 -0.00000000000E+00 -0.00000000000E+00 -0.45593999997E+02  0.45594000000E+02  0.51100000000E-03 0.  1.
    9900012    2    1    2    0    0 -0.10250848665E+02 -0.41367877539E+02 -0.82001099211E+01  0.47787274279E+02  0.20000014746E+02 0.  0.
         12    1    1    2    0    0  0.10250848665E+02  0.41367877539E+02  0.82001099211E+01  0.43400725721E+02  0.00000000000E+00 0. -1.
         11    1    3    3    0    0 -0.12444212020E+02 -0.32727272426E+02 -0.33371186744E+01  0.35171993611E+02  0.51100000000E-03 0.  1.
        -11    1    3    3    0    0 -0.23903310307E+01 -0.39702360086E+01 -0.37842610730E+01  0.59830668164E+01  0.51100000000E-03 0. -1.
        -12    1    3    3    0    0  0.45836943852E+01 -0.46703691042E+01 -0.10787301738E+01  0.66322138516E+01  0.00000000000E+00 0.  1.
</event>
<event>
 7    1  0.2318319E-009  0.4778727E+02  0.7816164E-02  0.1312668E+00
        -11   -1    0    0    0    0  0.00000000000E+00  0.00000000000E+00  0.45593999997E+02  0.45594000000E+02  0.51100000000E-03 0. -1.
         11   -1    0    0    0    0 -0.00000000000E+00 -0.00000000000E+00 -0.45593999997E+02  0.45594000000E+02  0.51100000000E-03 0.  1.
    9900012    2    1    2    0    0  0.16886351164E+02  0.34422849405E+02 -0.20335725722E+02  0.47787272386E+02  0.20000006115E+02 0.  0.
         12    1    1    2    0    0 -0.16886351164E+02 -0.34422849405E+02  0.20335725722E+02  0.43400727614E+02  0.00000000000E+00 0. -1.
         11    1    3    3    0    0  0.43555265120E+01  0.75592040796E+01 -0.12555149799E+02  0.15288687460E+02  0.51100000000E-03 0.  1.
        -11    1    3    3    0    0 -0.12862432411E+01  0.35744918845E-01  0.15404421918E+00  0.12959279521E+01  0.51100000000E-03 0. -1.
         12    1    3    3    0    0  0.13817067893E+02  0.26827900407E+02 -0.79346201425E+01  0.31202656974E+02  0.00000000000E+00 0. -1.
</event>
<event>
 7    1  0.2318319E-009  0.4778728E+02  0.7816164E-02  0.1312668E+00
        -11   -1    0    0    0    0  0.00000000000E+00  0.00000000000E+00  0.45593999997E+02  0.45594000000E+02  0.51100000000E-03 0.  1.
         11   -1    0    0    0    0 -0.00000000000E+00 -0.00000000000E+00 -0.45593999997E+02  0.45594000000E+02  0.51100000000E-03 0. -1.
    9900012    2    1    2    0    0  0.28598657521E+02 -0.32645659007E+02  0.21394257544E-01  0.47787277406E+02  0.20000029004E+02 0.  0.
         12    1    1    2    0    0 -0.28598657521E+02  0.32645659007E+02 -0.21394257544E-01  0.43400722594E+02  0.00000000000E+00 0. -1.
         11    1    3    3    0    0  0.12954270446E+00 -0.79850152579E+01 -0.67481353899E-01  0.79863511052E+01  0.51100000000E-03 0. -1.
        -11    1    3    3    0    0 -0.23547845030E+00 -0.21799074858E+01 -0.24064917847E+01  0.32555567447E+01  0.51100000000E-03 0.  1.
        -12    1    3    3    0    0  0.28704593267E+02 -0.22480736263E+02  0.24953673961E+01  0.36545369556E+02  0.00000000000E+00 0.  1.
</event>
<event>
 7    1  0.2318319E-009  0.4778727E+02  0.7816164E-02  0.1312668E+00
        -11   -1    0    0    0    0  0.00000000000E+00  0.00000000000E+00  0.45593999997E+02  0.45594000000E+02  0.51100000000E-03 0. -1.
         11   -1    0    0    0    0 -0.00000000000E+00 -0.00000000000E+00 -0.45593999997E+02  0.45594000000E+02  0.51100000000E-03 0.  1.
    9900012    2    1    2    0    0  0.37318672322E+02  0.18422955812E+02 -0.12309952628E+02  0.47787267996E+02  0.19999986103E+02 0.  0.
         12    1    1    2    0    0 -0.37318672322E+02 -0.18422955812E+02  0.12309952628E+02  0.43400732004E+02  0.00000000000E+00 0. -1.
         11    1    3    3    0    0  0.60693770215E+01  0.87071935538E+01  0.25464643424E+01  0.10914991430E+02  0.51100000000E-03 0. -1.
        -11    1    3    3    0    0  0.11211719833E+02  0.17413289477E+01 -0.13507161994E+01  0.11426255844E+02  0.51100000000E-03 0.  1.
        -12    1    3    3    0    0  0.20037575468E+02  0.79744333102E+01 -0.13505700771E+02  0.25446020722E+02  0.00000000000E+00 0.  1.
</event>
<event>
 7    1  0.2318319E-009  0.4778727E+02  0.7816164E-02  0.1312668E+00
        -11   -1    0    0    0    0  0.00000000000E+00  0.00000000000E+00  0.45593999997E+02  0.45594000000E+02  0.51100000000E-03 0.  1.
         11   -1    0    0    0    0 -0.00000000000E+00 -0.00000000000E+00 -0.45593999997E+02  0.45594000000E+02  0.51100000000E-03 0. -1.
    9900012    2    1    2    0    0 -0.17800944980E+02  0.14542185159E+02  0.36814058003E+02  0.47787266619E+02  0.19999979821E+02 0.  0.
         12    1    1    2    0    0  0.17800944980E+02 -0.14542185159E+02 -0.36814058003E+02  0.43400733381E+02  0.00000000000E+00 0. -1.
         11    1    3    3    0    0 -0.29237804869E+01 -0.67609719765E+00  0.16089111148E+02  0.16366584785E+02  0.51100000000E-03 0. -1.
        -11    1    3    3    0    0 -0.48152593697E+01  0.86071739604E+01  0.15328149050E+02  0.18226966833E+02  0.51100000000E-03 0.  1.
        -12    1    3    3    0    0 -0.10061905124E+02  0.66111083964E+01  0.53967978051E+01  0.13193715000E+02  0.00000000000E+00 0.  1.
</event>
<event>
 7    1  0.2318319E-009  0.4778732E+02  0.7816164E-02  0.1312668E+00
        -11   -1    0    0    0    0  0.00000000000E+00  0.00000000000E+00  0.45593999997E+02  0.45594000000E+02  0.51100000000E-03 0. -1.
         11   -1    0    0    0    0 -0.00000000000E+00 -0.00000000000E+00 -0.45593999997E+02  0.45594000000E+02  0.51100000000E-03 0.  1.
    9900012    2    1    2    0    0  0.20652888501E+02  0.36294607553E+02 -0.11822813182E+02  0.47787317374E+02  0.20000211233E+02 0.  0.
         12    1    1    2    0    0 -0.20652888501E+02 -0.36294607553E+02  0.11822813182E+02  0.43400682626E+02  0.00000000000E+00 0. -1.
         11    1    3    3    0    0  0.23330689338E+00  0.33237472302E+00 -0.15283704961E+01  0.15813986523E+01  0.51100000000E-03 0. -1.
        -11    1    3    3    0    0  0.54684006631E+01  0.58810342682E+01  0.48246254601E+01  0.93684033308E+01  0.51100000000E-03 0.  1.
        -12    1    3    3    0    0  0.14951180944E+02  0.30081198562E+02 -0.15119068146E+02  0.36837515391E+02  0.00000000000E+00 0.  1.
</event>
<event>
 7    1  0.2318319E-009  0.4778726E+02  0.7816164E-02  0.1312668E+00
        -11   -1    0    0    0    0  0.00000000000E+00  0.00000000000E+00  0.45593999997E+02  0.45594000000E+02  0.51100000000E-03 0. -1.
         11   -1    0    0    0    0 -0.00000000000E+00 -0.00000000000E+00 -0.45593999997E+02  0.45594000000E+02  0.51100000000E-03 0.  1.
    9900012    2    1    2    0    0 -0.30530371903E+02  0.29072410010E+02 -0.10310930162E+02  0.47787263680E+02  0.19999966421E+02 0.  0.
         12    1    1    2    0    0  0.30530371903E+02 -0.29072410010E+02  0.10310930162E+02  0.43400736320E+02  0.00000000000E+00 0. -1.
         11    1    3    3    0    0  0.20288923690E+00  0.26080901545E+00 -0.14045898641E+01  0.14429339321E+01  0.51100000000E-03 0. -1.
        -11    1    3    3    0    0  0.11015898803E+01 -0.66783757352E+00 -0.20457217263E+01  0.24175369555E+01  0.51100000000E-03 0.  1.
        -12    1    3    3    0    0 -0.31834851021E+02  0.29479438568E+02 -0.68606185713E+01  0.43926792792E+02  0.00000000000E+00 0.  1.
</event>
<event>
 7    1  0.2318319E-009  0.4778727E+02  0.7816164E-02  0.1312668E+00
        -11   -1    0    0    0    0  0.00000000000E+00  0.00000000000E+00  0.45593999997E+02  0.45594000000E+02  0.51100000000E-03 0.  1.
         11   -1    0    0    0    0 -0.00000000000E+00 -0.00000000000E+00 -0.45593999997E+02  0.45594000000E+02  0.51100000000E-03 0. -1.
    9900012    2    1    2    0    0 -0.22999524504E+01 -0.28516053918E+02  0.32636914872E+02  0.47787270459E+02  0.19999997329E+02 0.  0.
         12    1    1    2    0    0  0.22999524504E+01  0.28516053918E+02 -0.32636914872E+02  0.43400729541E+02  0.00000000000E+00 0. -1.
         11    1    3    3    0    0 -0.45092127157E+01 -0.55607195510E+01  0.16955768458E+02  0.18405235274E+02  0.51100000000E-03 0. -1.
        -11    1    3    3    0    0 -0.86885346399E+00 -0.51172339598E+01  0.83927844005E+01  0.98681214016E+01  0.51100000000E-03 0.  1.
        -12    1    3    3    0    0  0.30781137294E+01 -0.17838100408E+02  0.72883620141E+01  0.19513913783E+02  0.00000000000E+00 0.  1.
</event>
<event>
 7    1  0.2318319E-009  0.4778727E+02  0.7816164E-02  0.1312668E+00
        -11   -1    0    0    0    0  0.00000000000E+00  0.00000000000E+00  0.45593999997E+02  0.45594000000E+02  0.51100000000E-03 0. -1.
         11   -1    0    0    0    0 -0.00000000000E+00 -0.00000000000E+00 -0.45593999997E+02  0.45594000000E+02  0.51100000000E-03 0.  1.
    9900012    2    1    2    0    0  0.10469620148E+02  0.41971156601E+02 -0.35259746834E+01  0.47787269247E+02  0.19999991803E+02 0.  0.
         12    1    1    2    0    0 -0.10469620148E+02 -0.41971156601E+02  0.35259746834E+01  0.43400730753E+02  0.00000000000E+00 0. -1.
         11    1    3    3    0    0  0.74490520464E+01  0.53724680649E+01 -0.28038743720E+01  0.96027861193E+01  0.51100000000E-03 0. -1.
        -11    1    3    3    0    0  0.46851370685E+01  0.18974457678E+02 -0.45630460798E+01  0.20069926340E+02  0.51100000000E-03 0.  1.
        -12    1    3    3    0    0 -0.16645689673E+01  0.17624230858E+02  0.38409457685E+01  0.18114556787E+02  0.00000000000E+00 0.  1.
</event>
<event>
 7    1  0.2318319E-009  0.4778730E+02  0.7816164E-02  0.1312668E+00
        -11   -1    0    0    0    0  0.00000000000E+00  0.00000000000E+00  0.45593999997E+02  0.45594000000E+02  0.51100000000E-03 0. -1.
         11   -1    0    0    0    0 -0.00000000000E+00 -0.00000000000E+00 -0.45593999997E+02  0.45594000000E+02  0.51100000000E-03 0.  1.
    9900012    2    1    2    0    0  0.38245093999E+02 -0.17962578013E+02  0.99135839166E+01  0.47787302195E+02  0.20000142027E+02 0.  0.
         12    1    1    2    0    0 -0.38245093999E+02  0.17962578013E+02 -0.99135839166E+01  0.43400697805E+02  0.00000000000E+00 0. -1.
         11    1    3    3    0    0  0.22550834683E+00  0.11287557126E+01 -0.14805027198E+01  0.18753218491E+01  0.51100000000E-03 0. -1.
        -11    1    3    3    0    0  0.20485380600E+01 -0.42862491537E+00  0.42851543352E+01  0.47689386072E+01  0.51100000000E-03 0.  1.
        -12    1    3    3    0    0  0.35971047593E+02 -0.18662708810E+02  0.71089323012E+01  0.41143041739E+02  0.00000000000E+00 0.  1.
</event>
<event>
 7    1  0.2318319E-009  0.4778727E+02  0.7816164E-02  0.1312668E+00
        -11   -1    0    0    0    0  0.00000000000E+00  0.00000000000E+00  0.45593999997E+02  0.45594000000E+02  0.51100000000E-03 0.  1.
         11   -1    0    0    0    0 -0.00000000000E+00 -0.00000000000E+00 -0.45593999997E+02  0.45594000000E+02  0.51100000000E-03 0. -1.
    9900012    2    1    2    0    0 -0.70181633059E+01  0.42063199711E+02  0.80657344630E+01  0.47787268917E+02  0.19999990301E+02 0.  0.
         12    1    1    2    0    0  0.70181633059E+01 -0.42063199711E+02 -0.80657344630E+01  0.43400731083E+02  0.00000000000E+00 0. -1.
         11    1    3    3    0    0 -0.65152635459E+01  0.31172429476E+02  0.11516028798E+02  0.33864257530E+02  0.51100000000E-03 0. -1.
        -11    1    3    3    0    0 -0.39222781738E+01  0.74932645308E+01 -0.10028575116E+01  0.85169832013E+01  0.51100000000E-03 0.  1.
         12    1    3    3    0    0  0.34193784138E+01  0.33975057041E+01 -0.24474368233E+01  0.54060281862E+01  0.00000000000E+00 0. -1.
</event>
<event>
 7    1  0.2318319E-009  0.4778727E+02  0.7816164E-02  0.1312668E+00
        -11   -1    0    0    0    0  0.00000000000E+00  0.00000000000E+00  0.45593999997E+02  0.45594000000E+02  0.51100000000E-03 0. -1.
         11   -1    0    0    0    0 -0.00000000000E+00 -0.00000000000E+00 -0.45593999997E+02  0.45594000000E+02  0.51100000000E-03 0.  1.
    9900012    2    1    2    0    0 -0.11607181855E+01 -0.42714496078E+02  0.75992006392E+01  0.47787270832E+02  0.19999999033E+02 0.  0.
         12    1    1    2    0    0  0.11607181855E+01  0.42714496078E+02 -0.75992006392E+01  0.43400729168E+02  0.00000000000E+00 0. -1.
         11    1    3    3    0    0 -0.80287894137E+01 -0.14516554656E+02  0.22842469635E+01  0.16745435288E+02  0.51100000000E-03 0. -1.
        -11    1    3    3    0    0  0.32649173377E+00 -0.63674927596E+01  0.52390454057E+01  0.82522213931E+01  0.51100000000E-03 0.  1.
        -12    1    3    3    0    0  0.65415794944E+01 -0.21830448663E+02  0.75908269915E-01  0.22789614151E+02  0.00000000000E+00 0.  1.
</event>
<event>
 7    1  0.2318319E-009  0.4778727E+02  0.7816164E-02  0.1312668E+00
        -11   -1    0    0    0    0  0.00000000000E+00  0.00000000000E+00  0.45593999997E+02  0.45594000000E+02  0.51100000000E-03 0.  1.
         11   -1    0    0    0    0 -0.00000000000E+00 -0.00000000000E+00 -0.45593999997E+02  0.45594000000E+02  0.51100000000E-03 0. -1.
    9900012    2    1    2    0    0 -0.42538531511E+02 -0.64276909598E+01  0.57254805102E+01  0.47787274185E+02  0.20000014321E+02 0.  0.
         12    1    1    2    0    0  0.42538531511E+02  0.64276909598E+01 -0.57254805102E+01  0.43400725815E+02  0.00000000000E+00 0. -1.
         11    1    3    3    0    0 -0.29334077119E+02  0.72979115027E+00  0.22259946594E+01  0.29427465539E+02  0.51100000000E-03 0. -1.
        -11    1    3    3    0    0 -0.96624206011E+01 -0.19408527072E+01 -0.19255234415E+01  0.10041758904E+02  0.51100000000E-03 0.  1.
         12    1    3    3    0    0 -0.35420337907E+01 -0.52166294029E+01  0.54250092923E+01  0.83180497427E+01  0.00000000000E+00 0. -1.
</event>
<event>
 7    1  0.2318319E-009  0.4778730E+02  0.7816164E-02  0.1312668E+00
        -11   -1    0    0    0    0  0.00000000000E+00  0.00000000000E+00  0.45593999997E+02  0.45594000000E+02  0.51100000000E-03 0.  1.
         11   -1    0    0    0    0 -0.00000000000E+00 -0.00000000000E+00 -0.45593999997E+02  0.45594000000E+02  0.51100000000E-03 0. -1.
    9900012    2    1    2    0    0  0.13854011268E+02 -0.69165939947E+01  0.40544396725E+02  0.47787297165E+02  0.20000119096E+02 0.  0.
         12    1    1    2    0    0 -0.13854011268E+02  0.69165939947E+01 -0.40544396725E+02  0.43400702835E+02  0.00000000000E+00 0. -1.
         11    1    3    3    0    0  0.54354845404E+01  0.18593057762E+01  0.14979493080E+02  0.16043276578E+02  0.51100000000E-03 0. -1.
        -11    1    3    3    0    0 -0.15405294075E+01 -0.12987659869E+01  0.15775014469E+02  0.15903179107E+02  0.51100000000E-03 0.  1.
        -12    1    3    3    0    0  0.99590561355E+01 -0.74771337840E+01  0.97898891758E+01  0.15840841480E+02  0.00000000000E+00 0.  1.
</event>
<event>
 7    1  0.2318319E-009  0.4778727E+02  0.7816164E-02  0.1312668E+00
        -11   -1    0    0    0    0  0.00000000000E+00  0.00000000000E+00  0.45593999997E+02  0.45594000000E+02  0.51100000000E-03 0.  1.
         11   -1    0    0    0    0 -0.00000000000E+00 -0.00000000000E+00 -0.45593999997E+02  0.45594000000E+02  0.51100000000E-03 0. -1.
    9900012    2    1    2    0    0  0.32279987086E+02 -0.27981568446E+02 -0.76588111074E+01  0.47787272741E+02  0.20000007737E+02 0.  0.
         12    1    1    2    0    0 -0.32279987086E+02  0.27981568446E+02  0.76588111074E+01  0.43400727259E+02  0.00000000000E+00 0. -1.
         11    1    3    3    0    0  0.84986740466E+01 -0.56408905041E+01  0.52383486262E+01  0.11466795665E+02  0.51100000000E-03 0. -1.
        -11    1    3    3    0    0  0.14566187452E+02 -0.98841656706E+01 -0.27953008879E+01  0.17823699257E+02  0.51100000000E-03 0.  1.
         12    1    3    3    0    0  0.92151255881E+01 -0.12456512271E+02 -0.10101858846E+02  0.18496777820E+02  0.00000000000E+00 0. -1.
</event>
<event>
 7    1  0.2318319E-009  0.4778727E+02  0.7816164E-02  0.1312668E+00
        -11   -1    0    0    0    0  0.00000000000E+00  0.00000000000E+00  0.45593999997E+02  0.45594000000E+02  0.51100000000E-03 0.  1.
         11   -1    0    0    0    0 -0.00000000000E+00 -0.00000000000E+00 -0.45593999997E+02  0.45594000000E+02  0.51100000000E-03 0. -1.
    9900012    2    1    2    0    0  0.15541287912E+02 -0.15534249632E+02  0.37426979573E+02  0.47787270265E+02  0.19999996445E+02 0.  0.
         12    1    1    2    0    0 -0.15541287912E+02  0.15534249632E+02 -0.37426979573E+02  0.43400729735E+02  0.00000000000E+00 0. -1.
         11    1    3    3    0    0  0.50526963467E+01  0.28828648687E+01  0.62762706920E+01  0.85575828528E+01  0.51100000000E-03 0. -1.
        -11    1    3    3    0    0  0.48894183767E+01 -0.30629886297E+01  0.15749816661E+02  0.16773343034E+02  0.51100000000E-03 0.  1.
        -12    1    3    3    0    0  0.55991731883E+01 -0.15354125871E+02  0.15400892220E+02  0.22456344378E+02  0.00000000000E+00 0.  1.
</event>
<event>
 7    1  0.2318319E-009  0.4778727E+02  0.7816164E-02  0.1312668E+00
        -11   -1    0    0    0    0  0.00000000000E+00  0.00000000000E+00  0.45593999997E+02  0.45594000000E+02  0.51100000000E-03 0.  1.
         11   -1    0    0    0    0 -0.00000000000E+00 -0.00000000000E+00 -0.45593999997E+02  0.45594000000E+02  0.51100000000E-03 0. -1.
    9900012    2    1    2    0    0 -0.49995107745E+01  0.23830505357E+02  0.35926803202E+02  0.47787270953E+02  0.19999999581E+02 0.  0.
         12    1    1    2    0    0  0.49995107745E+01 -0.23830505357E+02 -0.35926803202E+02  0.43400729047E+02  0.00000000000E+00 0. -1.
         11    1    3    3    0    0 -0.78097876796E+01  0.50245314825E+01  0.15054846266E+02  0.17688614886E+02  0.51100000000E-03 0.  1.
        -11    1    3    3    0    0  0.10140451553E+01  0.25214122933E+01  0.10176705345E+02  0.10533334680E+02  0.51100000000E-03 0. -1.
        -12    1    3    3    0    0  0.17962317498E+01  0.16284561581E+02  0.10695251590E+02  0.19565321387E+02  0.00000000000E+00 0.  1.
</event>
<event>
 7    1  0.2318319E-009  0.4778727E+02  0.7816164E-02  0.1312668E+00
        -11   -1    0    0    0    0  0.00000000000E+00  0.00000000000E+00  0.45593999997E+02  0.45594000000E+02  0.51100000000E-03 0.  1.
         11   -1    0    0    0    0 -0.00000000000E+00 -0.00000000000E+00 -0.45593999997E+02  0.45594000000E+02  0.51100000000E-03 0. -1.
    9900012    2    1    2    0    0 -0.15334142688E+02 -0.40571614933E+02  0.15592818518E+01  0.47787271549E+02  0.20000002300E+02 0.  0.
         12    1    1    2    0    0  0.15334142688E+02  0.40571614933E+02 -0.15592818518E+01  0.43400728451E+02  0.00000000000E+00 0. -1.
         11    1    3    3    0    0  0.26779124670E+00 -0.11230049807E+02  0.12642771719E+01  0.11304164182E+02  0.51100000000E-03 0.  1.
        -11    1    3    3    0    0 -0.11486505197E+02 -0.29669759989E+02  0.22898473118E+01  0.31897928779E+02  0.51100000000E-03 0. -1.
         12    1    3    3    0    0 -0.41154287369E+01  0.32819486309E+00 -0.19948426319E+01  0.45851785879E+01  0.00000000000E+00 0. -1.
</event>
<event>
 7    1  0.2318319E-009  0.4778727E+02  0.7816164E-02  0.1312668E+00
        -11   -1    0    0    0    0  0.00000000000E+00  0.00000000000E+00  0.45593999997E+02  0.45594000000E+02  0.51100000000E-03 0.  1.
         11   -1    0    0    0    0 -0.00000000000E+00 -0.00000000000E+00 -0.45593999997E+02  0.45594000000E+02  0.51100000000E-03 0. -1.
    9900012    2    1    2    0    0 -0.20808655106E+02 -0.16403148509E+02  0.34373826362E+02  0.47787270201E+02  0.19999996156E+02 0.  0.
         12    1    1    2    0    0  0.20808655106E+02  0.16403148509E+02 -0.34373826362E+02  0.43400729799E+02  0.00000000000E+00 0. -1.
         11    1    3    3    0    0 -0.74895702316E+01 -0.25692819180E+01  0.61805561973E+01  0.10044607857E+02  0.51100000000E-03 0. -1.
        -11    1    3    3    0    0 -0.11529339351E+02 -0.92570685582E+01  0.77043081649E+01  0.16672592741E+02  0.51100000000E-03 0.  1.
         12    1    3    3    0    0 -0.17897455240E+01 -0.45767980323E+01  0.20488961999E+02  0.21070069603E+02  0.00000000000E+00 0. -1.
</event>
<event>
 7    1  0.2318319E-009  0.4778725E+02  0.7816164E-02  0.1312668E+00
        -11   -1    0    0    0    0  0.00000000000E+00  0.00000000000E+00  0.45593999997E+02  0.45594000000E+02  0.51100000000E-03 0. -1.
         11   -1    0    0    0    0 -0.00000000000E+00 -0.00000000000E+00 -0.45593999997E+02  0.45594000000E+02  0.51100000000E-03 0.  1.
    9900012    2    1    2    0    0 -0.18315952155E+02  0.18274629745E+02 -0.34845213682E+02  0.47787249866E+02  0.19999903438E+02 0.  0.
         12    1    1    2    0    0  0.18315952155E+02 -0.18274629745E+02  0.34845213682E+02  0.43400750134E+02  0.00000000000E+00 0. -1.
         11    1    3    3    0    0 -0.37763027370E+01  0.59788392113E+01 -0.66176262461E+01  0.96850378455E+01  0.51100000000E-03 0.  1.
        -11    1    3    3    0    0 -0.17122949857E+02  0.51063195845E+01 -0.18313909286E+02  0.25586503964E+02  0.51100000000E-03 0. -1.
        -12    1    3    3    0    0  0.25833004390E+01  0.71894709493E+01 -0.99136781498E+01  0.12515708056E+02  0.00000000000E+00 0.  1.
</event>
<event>
 7    1  0.2318319E-009  0.4778727E+02  0.7816164E-02  0.1312668E+00
        -11   -1    0    0    0    0  0.00000000000E+00  0.00000000000E+00  0.45593999997E+02  0.45594000000E+02  0.51100000000E-03 0.  1.
         11   -1    0    0    0    0 -0.00000000000E+00 -0.00000000000E+00 -0.45593999997E+02  0.45594000000E+02  0.51100000000E-03 0. -1.
    9900012    2    1    2    0    0  0.48305551891E+01  0.24640624726E+02  0.35399557279E+02  0.47787270676E+02  0.19999998319E+02 0.  0.
         12    1    1    2    0    0 -0.48305551891E+01 -0.24640624726E+02 -0.35399557279E+02  0.43400729324E+02  0.00000000000E+00 0. -1.
         11    1    3    3    0    0 -0.19564083996E+00  0.28193366781E+01  0.45857586348E+01  0.53866610401E+01  0.51100000000E-03 0. -1.
        -11    1    3    3    0    0 -0.64009847376E+00  0.21955236565E+02  0.18030971930E+02  0.28417566533E+02  0.51100000000E-03 0.  1.
         12    1    3    3    0    0  0.56662945028E+01 -0.13394851681E+00  0.12782826714E+02  0.13983043102E+02  0.00000000000E+00 0. -1.
</event>
<event>
 7    1  0.2318319E-009  0.4778728E+02  0.7816164E-02  0.1312668E+00
        -11   -1    0    0    0    0  0.00000000000E+00  0.00000000000E+00  0.45593999997E+02  0.45594000000E+02  0.51100000000E-03 0. -1.
         11   -1    0    0    0    0 -0.00000000000E+00 -0.00000000000E+00 -0.45593999997E+02  0.45594000000E+02  0.51100000000E-03 0.  1.
    9900012    2    1    2    0    0  0.11145306363E+01 -0.74500009560E+00 -0.43380013038E+02  0.47787277254E+02  0.20000028313E+02 0.  0.
         12    1    1    2    0    0 -0.11145306363E+01  0.74500009560E+00  0.43380013038E+02  0.43400722746E+02  0.00000000000E+00 0. -1.
         11    1    3    3    0    0 -0.27825301531E+01 -0.32939403903E+01 -0.92630930803E+01  0.10217505127E+02  0.51100000000E-03 0. -1.
        -11    1    3    3    0    0 -0.28355437212E+01 -0.32428309165E+01 -0.31019587547E+01  0.53083339123E+01  0.51100000000E-03 0.  1.
        -12    1    3    3    0    0  0.67326045106E+01  0.57917712112E+01 -0.31014961203E+02  0.32261438215E+02  0.00000000000E+00 0.  1.
</event>
<event>
 7    1  0.2318319E-009  0.4778727E+02  0.7816164E-02  0.1312668E+00
        -11   -1    0    0    0    0  0.00000000000E+00  0.00000000000E+00  0.45593999997E+02  0.45594000000E+02  0.51100000000E-03 0.  1.
         11   -1    0    0    0    0 -0.00000000000E+00 -0.00000000000E+00 -0.45593999997E+02  0.45594000000E+02  0.51100000000E-03 0. -1.
    9900012    2    1    2    0    0  0.37329693132E+02  0.16099932505E+02  0.15195703533E+02  0.47787271643E+02  0.20000002730E+02 0.  0.
         12    1    1    2    0    0 -0.37329693132E+02 -0.16099932505E+02 -0.15195703533E+02  0.43400728357E+02  0.00000000000E+00 0. -1.
         11    1    3    3    0    0  0.24689842875E+02  0.12579188802E+02  0.11385530956E+01  0.27733024277E+02  0.51100000000E-03 0. -1.
        -11    1    3    3    0    0  0.62719656340E+01  0.69367573596E+00  0.30046825797E+01  0.69890526258E+01  0.51100000000E-03 0.  1.
        -12    1    3    3    0    0  0.63678846229E+01  0.28270679675E+01  0.11052467858E+02  0.13065194741E+02  0.00000000000E+00 0.  1.
</event>
<event>
 7    1  0.2318319E-009  0.4778732E+02  0.7816164E-02  0.1312668E+00
        -11   -1    0    0    0    0  0.00000000000E+00  0.00000000000E+00  0.45593999997E+02  0.45594000000E+02  0.51100000000E-03 0.  1.
         11   -1    0    0    0    0 -0.00000000000E+00 -0.00000000000E+00 -0.45593999997E+02  0.45594000000E+02  0.51100000000E-03 0. -1.
    9900012    2    1    2    0    0 -0.89746772895E+01 -0.24950592167E+02  0.34359023001E+02  0.47787316324E+02  0.20000206449E+02 0.  0.
         12    1    1    2    0    0  0.89746772895E+01  0.24950592167E+02 -0.34359023001E+02  0.43400683676E+02  0.00000000000E+00 0. -1.
         11    1    3    3    0    0  0.27141900058E+00 -0.64820903094E+01  0.74950848895E+01  0.99129945433E+01  0.51100000000E-03 0. -1.
        -11    1    3    3    0    0 -0.14018022975E+02 -0.13876567912E+02  0.17270359548E+02  0.26216968252E+02  0.51100000000E-03 0.  1.
        -12    1    3    3    0    0  0.47719266854E+01 -0.45919339455E+01  0.95935785633E+01  0.11657353529E+02  0.00000000000E+00 0.  1.
</event>
<event>
 7    1  0.2318319E-009  0.4778726E+02  0.7816164E-02  0.1312668E+00
        -11   -1    0    0    0    0  0.00000000000E+00  0.00000000000E+00  0.45593999997E+02  0.45594000000E+02  0.51100000000E-03 0.  1.
         11   -1    0    0    0    0 -0.00000000000E+00 -0.00000000000E+00 -0.45593999997E+02  0.45594000000E+02  0.51100000000E-03 0. -1.
    9900012    2    1    2    0    0 -0.63013972877E+01  0.43883145710E+01  0.42716031859E+02  0.47787259334E+02  0.19999946608E+02 0.  0.
         12    1    1    2    0    0  0.63013972877E+01 -0.43883145710E+01 -0.42716031859E+02  0.43400740666E+02  0.00000000000E+00 0. -1.
         11    1    3    3    0    0  0.32143846058E+00 -0.13758397554E+01  0.61004155687E+00  0.15389635079E+01  0.51100000000E-03 0. -1.
        -11    1    3    3    0    0 -0.56290338033E+01  0.76301891559E+01  0.42940854738E+02  0.43975252290E+02  0.51100000000E-03 0.  1.
        -12    1    3    3    0    0 -0.99380194498E+00 -0.18660348295E+01 -0.83486443555E+00  0.22730435360E+01  0.00000000000E+00 0.  1.
</event>
<event>
 7    1  0.2318319E-009  0.4778727E+02  0.7816164E-02  0.1312668E+00
        -11   -1    0    0    0    0  0.00000000000E+00  0.00000000000E+00  0.45593999997E+02  0.45594000000E+02  0.51100000000E-03 0.  1.
         11   -1    0    0    0    0 -0.00000000000E+00 -0.00000000000E+00 -0.45593999997E+02  0.45594000000E+02  0.51100000000E-03 0. -1.
    9900012    2    1    2    0    0 -0.13928424711E+02  0.14417416577E+02  0.38493640374E+02  0.47787271147E+02  0.20000000468E+02 0.  0.
         12    1    1    2    0    0  0.13928424711E+02 -0.14417416577E+02 -0.38493640374E+02  0.43400728853E+02  0.00000000000E+00 0. -1.
         11    1    3    3    0    0 -0.21313623313E+01  0.20505951887E+01 -0.21757180715E+00  0.29656337885E+01  0.51100000000E-03 0.  1.
        -11    1    3    3    0    0  0.22118629937E+01 -0.30341372864E+00  0.64047843264E+00  0.23226301207E+01  0.51100000000E-03 0. -1.
        -12    1    3    3    0    0 -0.14008925373E+02  0.12670235117E+02  0.38070733749E+02  0.42499007238E+02  0.00000000000E+00 0.  1.
</event>
<event>
 7    1  0.2318319E-009  0.4778727E+02  0.7816164E-02  0.1312668E+00
        -11   -1    0    0    0    0  0.00000000000E+00  0.00000000000E+00  0.45593999997E+02  0.45594000000E+02  0.51100000000E-03 0. -1.
         11   -1    0    0    0    0 -0.00000000000E+00 -0.00000000000E+00 -0.45593999997E+02  0.45594000000E+02  0.51100000000E-03 0.  1.
    9900012    2    1    2    0    0 -0.33012395339E+02  0.38062127147E+01 -0.27916264788E+02  0.47787270272E+02  0.19999996477E+02 0.  0.
         12    1    1    2    0    0  0.33012395339E+02 -0.38062127147E+01  0.27916264788E+02  0.43400729728E+02  0.00000000000E+00 0. -1.
         11    1    3    3    0    0 -0.19511061107E+02 -0.92568330145E+00 -0.11143861899E+02  0.22488309260E+02  0.51100000000E-03 0. -1.
        -11    1    3    3    0    0 -0.61717219139E+01 -0.41385034653E+01 -0.63876090960E+01  0.97989240501E+01  0.51100000000E-03 0.  1.
        -12    1    3    3    0    0 -0.73296123179E+01  0.88703994814E+01 -0.10384793793E+02  0.15500036962E+02  0.00000000000E+00 0.  1.
</event>
<event>
 7    1  0.2318319E-009  0.4778727E+02  0.7816164E-02  0.1312668E+00
        -11   -1    0    0    0    0  0.00000000000E+00  0.00000000000E+00  0.45593999997E+02  0.45594000000E+02  0.51100000000E-03 0. -1.
         11   -1    0    0    0    0 -0.00000000000E+00 -0.00000000000E+00 -0.45593999997E+02  0.45594000000E+02  0.51100000000E-03 0.  1.
    9900012    2    1    2    0    0  0.37843611186E+02 -0.35132208937E+01  0.20955705058E+02  0.47787271860E+02  0.20000003718E+02 0.  0.
         12    1    1    2    0    0 -0.37843611186E+02  0.35132208937E+01 -0.20955705058E+02  0.43400728140E+02  0.00000000000E+00 0. -1.
         11    1    3    3    0    0  0.35627485296E+02 -0.44849975192E+01  0.15404091806E+02  0.39073251155E+02  0.51100000000E-03 0.  1.
        -11    1    3    3    0    0  0.16465346590E+01  0.36273509978E+01  0.29928168677E+01  0.49825399857E+01  0.51100000000E-03 0. -1.
        -12    1    3    3    0    0  0.56959123121E+00 -0.26555743722E+01  0.25587963846E+01  0.37314807188E+01  0.00000000000E+00 0.  1.
</event>
<event>
 7    1  0.2318319E-009  0.4778726E+02  0.7816164E-02  0.1312668E+00
        -11   -1    0    0    0    0  0.00000000000E+00  0.00000000000E+00  0.45593999997E+02  0.45594000000E+02  0.51100000000E-03 0.  1.
         11   -1    0    0    0    0 -0.00000000000E+00 -0.00000000000E+00 -0.45593999997E+02  0.45594000000E+02  0.51100000000E-03 0. -1.
    9900012    2    1    2    0    0 -0.41857877096E+02  0.13049581423E+01  0.11394706864E+02  0.47787261121E+02  0.19999954753E+02 0.  0.
         12    1    1    2    0    0  0.41857877096E+02 -0.13049581423E+01 -0.11394706864E+02  0.43400738879E+02  0.00000000000E+00 0. -1.
         11    1    3    3    0    0 -0.71001742829E+01 -0.48392775185E+01 -0.24152329369E+01  0.89254933840E+01  0.51100000000E-03 0. -1.
        -11    1    3    3    0    0 -0.75824947740E+00  0.70603494662E+00  0.23580902507E+01  0.25756586550E+01  0.51100000000E-03 0.  1.
        -12    1    3    3    0    0 -0.33999453336E+02  0.54382007142E+01  0.11451849550E+02  0.36286109082E+02  0.00000000000E+00 0.  1.
</event>
<event>
 7    1  0.2318319E-009  0.4778727E+02  0.7816164E-02  0.1312668E+00
        -11   -1    0    0    0    0  0.00000000000E+00  0.00000000000E+00  0.45593999997E+02  0.45594000000E+02  0.51100000000E-03 0.  1.
         11   -1    0    0    0    0 -0.00000000000E+00 -0.00000000000E+00 -0.45593999997E+02  0.45594000000E+02  0.51100000000E-03 0. -1.
    9900012    2    1    2    0    0 -0.40256108895E+02  0.16151610427E+01  0.16138796125E+02  0.47787265111E+02  0.19999972948E+02 0.  0.
         12    1    1    2    0    0  0.40256108895E+02 -0.16151610427E+01 -0.16138796125E+02  0.43400734889E+02  0.00000000000E+00 0. -1.
         11    1    3    3    0    0 -0.83167741957E+01  0.56793158038E+01  0.78925194609E+01  0.12795125037E+02  0.51100000000E-03 0. -1.
        -11    1    3    3    0    0 -0.17337357235E+02  0.32871867054E+01  0.47502462362E+01  0.18274419057E+02  0.51100000000E-03 0.  1.
         12    1    3    3    0    0 -0.14601977464E+02 -0.73513414665E+01  0.34960304276E+01  0.16717721016E+02  0.00000000000E+00 0. -1.
</event>
<event>
 7    1  0.2318319E-009  0.4778727E+02  0.7816164E-02  0.1312668E+00
        -11   -1    0    0    0    0  0.00000000000E+00  0.00000000000E+00  0.45593999997E+02  0.45594000000E+02  0.51100000000E-03 0.  1.
         11   -1    0    0    0    0 -0.00000000000E+00 -0.00000000000E+00 -0.45593999997E+02  0.45594000000E+02  0.51100000000E-03 0. -1.
    9900012    2    1    2    0    0 -0.16204102649E+02  0.13028642867E+00  0.40262055237E+02  0.47787274094E+02  0.20000013905E+02 0.  0.
         12    1    1    2    0    0  0.16204102649E+02 -0.13028642867E+00 -0.40262055237E+02  0.43400725906E+02  0.00000000000E+00 0. -1.
         11    1    3    3    0    0 -0.94198752524E+01  0.32355241012E+01  0.26134425507E+02  0.27968032874E+02  0.51100000000E-03 0. -1.
        -11    1    3    3    0    0  0.58748032096E+00  0.37296451842E+01  0.47872838522E+01  0.60970052706E+01  0.51100000000E-03 0.  1.
         12    1    3    3    0    0 -0.73717077179E+01 -0.68348828567E+01  0.93403458779E+01  0.13722235950E+02  0.00000000000E+00 0. -1.
</event>
<event>
 7    1  0.2318319E-009  0.4778728E+02  0.7816164E-02  0.1312668E+00
        -11   -1    0    0    0    0  0.00000000000E+00  0.00000000000E+00  0.45593999997E+02  0.45594000000E+02  0.51100000000E-03 0.  1.
         11   -1    0    0    0    0 -0.00000000000E+00 -0.00000000000E+00 -0.45593999997E+02  0.45594000000E+02  0.51100000000E-03 0. -1.
    9900012    2    1    2    0    0 -0.42299484321E+02  0.55606505000E+01 -0.79659064902E+01  0.47787275651E+02  0.20000021003E+02 0.  0.
         12    1    1    2    0    0  0.42299484321E+02 -0.55606505000E+01  0.79659064902E+01  0.43400724349E+02  0.00000000000E+00 0. -1.
         11    1    3    3    0    0 -0.26899619887E+00  0.19009890179E+01 -0.18181788935E+01  0.26442187790E+01  0.51100000000E-03 0. -1.
        -11    1    3    3    0    0 -0.11357826902E+02  0.73415291196E+01  0.53937567613E+00  0.13534740785E+02  0.51100000000E-03 0.  1.
        -12    1    3    3    0    0 -0.30672661220E+02 -0.36818676376E+01 -0.66871032728E+01  0.31608316087E+02  0.00000000000E+00 0.  1.
</event>
<event>
 7    1  0.2318319E-009  0.4778728E+02  0.7816164E-02  0.1312668E+00
        -11   -1    0    0    0    0  0.00000000000E+00  0.00000000000E+00  0.45593999997E+02  0.45594000000E+02  0.51100000000E-03 0.  1.
         11   -1    0    0    0    0 -0.00000000000E+00 -0.00000000000E+00 -0.45593999997E+02  0.45594000000E+02  0.51100000000E-03 0. -1.
    9900012    2    1    2    0    0  0.25869617879E+02 -0.13832842398E+02  0.31984966324E+02  0.47787277324E+02  0.20000028632E+02 0.  0.
         12    1    1    2    0    0 -0.25869617879E+02  0.13832842398E+02 -0.31984966324E+02  0.43400722676E+02  0.00000000000E+00 0. -1.
         11    1    3    3    0    0  0.16877817728E+02 -0.74547314672E+01  0.15044486641E+02  0.23806938717E+02  0.51100000000E-03 0. -1.
        -11    1    3    3    0    0  0.93324419214E+01 -0.65945283114E+01  0.57678184796E+01  0.12800390859E+02  0.51100000000E-03 0.  1.
         12    1    3    3    0    0 -0.34064177012E+00  0.21641738058E+00  0.11172661203E+02  0.11179947749E+02  0.00000000000E+00 0. -1.
</event>
<event>
 7    1  0.2318319E-009  0.4778727E+02  0.7816164E-02  0.1312668E+00
        -11   -1    0    0    0    0  0.00000000000E+00  0.00000000000E+00  0.45593999997E+02  0.45594000000E+02  0.51100000000E-03 0.  1.
         11   -1    0    0    0    0 -0.00000000000E+00 -0.00000000000E+00 -0.45593999997E+02  0.45594000000E+02  0.51100000000E-03 0. -1.
    9900012    2    1    2    0    0  0.37509441821E+02  0.21529011178E+02  0.36286042767E+01  0.47787270547E+02  0.19999997732E+02 0.  0.
         12    1    1    2    0    0 -0.37509441821E+02 -0.21529011178E+02 -0.36286042767E+01  0.43400729453E+02  0.00000000000E+00 0. -1.
         11    1    3    3    0    0 -0.64185453749E+00 -0.92876921849E+00  0.11371577288E+01  0.16024098945E+01  0.51100000000E-03 0.  1.
        -11    1    3    3    0    0  0.78864015157E+00  0.42641359903E+01 -0.10977608289E+01  0.44732413451E+01  0.51100000000E-03 0. -1.
        -12    1    3    3    0    0  0.37362656207E+02  0.18193644407E+02  0.35892073767E+01  0.41711619307E+02  0.00000000000E+00 0.  1.
</event>
<event>
 7    1  0.2318319E-009  0.4778727E+02  0.7816164E-02  0.1312668E+00
        -11   -1    0    0    0    0  0.00000000000E+00  0.00000000000E+00  0.45593999997E+02  0.45594000000E+02  0.51100000000E-03 0.  1.
         11   -1    0    0    0    0 -0.00000000000E+00 -0.00000000000E+00 -0.45593999997E+02  0.45594000000E+02  0.51100000000E-03 0. -1.
    9900012    2    1    2    0    0  0.32210120758E+02  0.84269113530E+01  0.27840951074E+02  0.47787271079E+02  0.20000000156E+02 0.  0.
         12    1    1    2    0    0 -0.32210120758E+02 -0.84269113530E+01 -0.27840951074E+02  0.43400728921E+02  0.00000000000E+00 0. -1.
         11    1    3    3    0    0  0.77478334671E+01 -0.19282648890E+01  0.10473620979E+01  0.80525832216E+01  0.51100000000E-03 0. -1.
        -11    1    3    3    0    0  0.25272234799E+01  0.61843020766E+01  0.38084841743E+01  0.76900586902E+01  0.51100000000E-03 0.  1.
        -12    1    3    3    0    0  0.21935063811E+02  0.41708741654E+01  0.22985104802E+02  0.32044629167E+02  0.00000000000E+00 0.  1.
</event>
<event>
 7    1  0.2318319E-009  0.4778727E+02  0.7816164E-02  0.1312668E+00
        -11   -1    0    0    0    0  0.00000000000E+00  0.00000000000E+00  0.45593999997E+02  0.45594000000E+02  0.51100000000E-03 0. -1.
         11   -1    0    0    0    0 -0.00000000000E+00 -0.00000000000E+00 -0.45593999997E+02  0.45594000000E+02  0.51100000000E-03 0.  1.
    9900012    2    1    2    0    0 -0.41385543155E+02 -0.12247830462E+02 -0.45662628090E+01  0.47787270867E+02  0.19999999189E+02 0.  0.
         12    1    1    2    0    0  0.41385543155E+02  0.12247830462E+02  0.45662628090E+01  0.43400729133E+02  0.00000000000E+00 0. -1.
         11    1    3    3    0    0 -0.18265574611E+02 -0.12844811195E+02 -0.40698508610E+01  0.22697666770E+02  0.51100000000E-03 0. -1.
        -11    1    3    3    0    0 -0.60839272014E+01 -0.13755427431E+01 -0.42319650343E+01  0.75376267049E+01  0.51100000000E-03 0.  1.
        -12    1    3    3    0    0 -0.17036041342E+02  0.19725234763E+01  0.37355530863E+01  0.17551977391E+02  0.00000000000E+00 0.  1.
</event>
<event>
 7    1  0.2318319E-009  0.4778728E+02  0.7816164E-02  0.1312668E+00
        -11   -1    0    0    0    0  0.00000000000E+00  0.00000000000E+00  0.45593999997E+02  0.45594000000E+02  0.51100000000E-03 0. -1.
         11   -1    0    0    0    0 -0.00000000000E+00 -0.00000000000E+00 -0.45593999997E+02  0.45594000000E+02  0.51100000000E-03 0.  1.
    9900012    2    1    2    0    0 -0.99123207488E+01  0.40357375597E+02  0.12516029271E+02  0.47787275854E+02  0.20000021929E+02 0.  0.
         12    1    1    2    0    0  0.99123207488E+01 -0.40357375597E+02 -0.12516029271E+02  0.43400724146E+02  0.00000000000E+00 0. -1.
         11    1    3    3    0    0 -0.51908574203E+01  0.49328688666E+01 -0.87027103097E-01  0.71614083804E+01  0.51100000000E-03 0. -1.
        -11    1    3    3    0    0 -0.73023371537E+01  0.79315415479E+01  0.55484936498E+01  0.12125149949E+02  0.51100000000E-03 0.  1.
        -12    1    3    3    0    0  0.25808738252E+01  0.27492965182E+02  0.70545627242E+01  0.28500717525E+02  0.00000000000E+00 0.  1.
</event>
<event>
 7    1  0.2318319E-009  0.4778725E+02  0.7816164E-02  0.1312668E+00
        -11   -1    0    0    0    0  0.00000000000E+00  0.00000000000E+00  0.45593999997E+02  0.45594000000E+02  0.51100000000E-03 0. -1.
         11   -1    0    0    0    0 -0.00000000000E+00 -0.00000000000E+00 -0.45593999997E+02  0.45594000000E+02  0.51100000000E-03 0.  1.
    9900012    2    1    2    0    0 -0.54343713229E+01  0.34426727115E+02 -0.25862967363E+02  0.47787251016E+02  0.19999908682E+02 0.  0.
         12    1    1    2    0    0  0.54343713229E+01 -0.34426727115E+02  0.25862967363E+02  0.43400748984E+02  0.00000000000E+00 0. -1.
         11    1    3    3    0    0 -0.26035943996E+01  0.24475338049E+02 -0.21047632026E+02  0.32385547557E+02  0.51100000000E-03 0. -1.
        -11    1    3    3    0    0 -0.63842611335E+01  0.83468792996E+01 -0.46715653231E+01  0.11500117699E+02  0.51100000000E-03 0.  1.
         12    1    3    3    0    0  0.35534842102E+01  0.16045097664E+01 -0.14377001379E+00  0.39015857596E+01  0.00000000000E+00 0. -1.
</event>
<event>
 7    1  0.2318319E-009  0.4778727E+02  0.7816164E-02  0.1312668E+00
        -11   -1    0    0    0    0  0.00000000000E+00  0.00000000000E+00  0.45593999997E+02  0.45594000000E+02  0.51100000000E-03 0.  1.
         11   -1    0    0    0    0 -0.00000000000E+00 -0.00000000000E+00 -0.45593999997E+02  0.45594000000E+02  0.51100000000E-03 0. -1.
    9900012    2    1    2    0    0  0.25775040928E+02 -0.23033275642E+02  0.26243836760E+02  0.47787268560E+02  0.19999988672E+02 0.  0.
         12    1    1    2    0    0 -0.25775040928E+02  0.23033275642E+02 -0.26243836760E+02  0.43400731440E+02  0.00000000000E+00 0. -1.
         11    1    3    3    0    0  0.16335573217E+01 -0.62215872424E+01  0.78246682927E+01  0.10129269050E+02  0.51100000000E-03 0. -1.
        -11    1    3    3    0    0  0.12274729187E+02 -0.11341237972E+02  0.18031742239E+02  0.24585287954E+02  0.51100000000E-03 0.  1.
         12    1    3    3    0    0  0.11866754419E+02 -0.54704504276E+01  0.38742622828E+00  0.13072711556E+02  0.00000000000E+00 0. -1.
</event>
<event>
 7    1  0.2318319E-009  0.4778727E+02  0.7816164E-02  0.1312668E+00
        -11   -1    0    0    0    0  0.00000000000E+00  0.00000000000E+00  0.45593999997E+02  0.45594000000E+02  0.51100000000E-03 0.  1.
         11   -1    0    0    0    0 -0.00000000000E+00 -0.00000000000E+00 -0.45593999997E+02  0.45594000000E+02  0.51100000000E-03 0. -1.
    9900012    2    1    2    0    0 -0.20696940459E+01  0.15531990694E+02  0.40473410387E+02  0.47787270551E+02  0.19999997750E+02 0.  0.
         12    1    1    2    0    0  0.20696940459E+01 -0.15531990694E+02 -0.40473410387E+02  0.43400729449E+02  0.00000000000E+00 0. -1.
         11    1    3    3    0    0 -0.40837847180E+01  0.61951386796E+01  0.13678226486E+02  0.15561199213E+02  0.51100000000E-03 0. -1.
        -11    1    3    3    0    0 -0.18519160368E+01  0.62646177533E+01  0.26484458472E+02  0.27278225188E+02  0.51100000000E-03 0.  1.
        -12    1    3    3    0    0  0.38660067089E+01  0.30722342610E+01  0.31072542891E+00  0.49478461496E+01  0.00000000000E+00 0.  1.
</event>
<event>
 7    1  0.2318319E-009  0.4778727E+02  0.7816164E-02  0.1312668E+00
        -11   -1    0    0    0    0  0.00000000000E+00  0.00000000000E+00  0.45593999997E+02  0.45594000000E+02  0.51100000000E-03 0. -1.
         11   -1    0    0    0    0 -0.00000000000E+00 -0.00000000000E+00 -0.45593999997E+02  0.45594000000E+02  0.51100000000E-03 0.  1.
    9900012    2    1    2    0    0 -0.35158593590E+02  0.66345591086E+01 -0.24565809568E+02  0.47787273307E+02  0.20000010314E+02 0.  0.
         12    1    1    2    0    0  0.35158593590E+02 -0.66345591086E+01  0.24565809568E+02  0.43400726693E+02  0.00000000000E+00 0. -1.
         11    1    3    3    0    0 -0.30241380320E+02  0.81570956335E+01 -0.16025231608E+02  0.35183623196E+02  0.51100000000E-03 0. -1.
        -11    1    3    3    0    0 -0.54775131729E+01 -0.27305352268E+01 -0.28356252202E+01  0.67453497934E+01  0.51100000000E-03 0.  1.
        -12    1    3    3    0    0  0.56029990335E+00  0.12079987019E+01 -0.57049527393E+01  0.58583003169E+01  0.00000000000E+00 0.  1.
</event>
<event>
 7    1  0.2318319E-009  0.4778727E+02  0.7816164E-02  0.1312668E+00
        -11   -1    0    0    0    0  0.00000000000E+00  0.00000000000E+00  0.45593999997E+02  0.45594000000E+02  0.51100000000E-03 0.  1.
         11   -1    0    0    0    0 -0.00000000000E+00 -0.00000000000E+00 -0.45593999997E+02  0.45594000000E+02  0.51100000000E-03 0. -1.
    9900012    2    1    2    0    0 -0.29169342757E+02 -0.17465298691E+02  0.26976583229E+02  0.47787271228E+02  0.20000000836E+02 0.  0.
         12    1    1    2    0    0  0.29169342757E+02  0.17465298691E+02 -0.26976583229E+02  0.43400728772E+02  0.00000000000E+00 0. -1.
         11    1    3    3    0    0 -0.13428015369E+02 -0.85341137154E+01  0.23251817634E+01  0.16079464051E+02  0.51100000000E-03 0. -1.
        -11    1    3    3    0    0 -0.60961386056E+01 -0.76864700883E+01  0.91921024744E+01  0.13443938280E+02  0.51100000000E-03 0.  1.
         12    1    3    3    0    0 -0.96451887820E+01 -0.12447148878E+01  0.15459298991E+02  0.18263868897E+02  0.00000000000E+00 0. -1.
</event>
<event>
 7    1  0.2318319E-009  0.4778727E+02  0.7816164E-02  0.1312668E+00
        -11   -1    0    0    0    0  0.00000000000E+00  0.00000000000E+00  0.45593999997E+02  0.45594000000E+02  0.51100000000E-03 0. -1.
         11   -1    0    0    0    0 -0.00000000000E+00 -0.00000000000E+00 -0.45593999997E+02  0.45594000000E+02  0.51100000000E-03 0.  1.
    9900012    2    1    2    0    0 -0.77043421880E+00 -0.47987792909E+01 -0.43127735995E+02  0.47787268858E+02  0.19999990032E+02 0.  0.
         12    1    1    2    0    0  0.77043421880E+00  0.47987792909E+01  0.43127735995E+02  0.43400731142E+02  0.00000000000E+00 0. -1.
         11    1    3    3    0    0 -0.11559007979E+01 -0.72774538987E+01 -0.15544064676E+02  0.17202191396E+02  0.51100000000E-03 0. -1.
        -11    1    3    3    0    0 -0.88975313462E+00 -0.48030330011E+01 -0.16909850392E+02  0.17601245047E+02  0.51100000000E-03 0.  1.
         12    1    3    3    0    0  0.12752197137E+01  0.72817076088E+01 -0.10673820927E+02  0.12983832415E+02  0.00000000000E+00 0. -1.
</event>
<event>
 7    1  0.2318319E-009  0.4778727E+02  0.7816164E-02  0.1312668E+00
        -11   -1    0    0    0    0  0.00000000000E+00  0.00000000000E+00  0.45593999997E+02  0.45594000000E+02  0.51100000000E-03 0. -1.
         11   -1    0    0    0    0 -0.00000000000E+00 -0.00000000000E+00 -0.45593999997E+02  0.45594000000E+02  0.51100000000E-03 0.  1.
    9900012    2    1    2    0    0 -0.28122845927E+02 -0.24589590807E+02 -0.22092549531E+02  0.47787272081E+02  0.20000004727E+02 0.  0.
         12    1    1    2    0    0  0.28122845927E+02  0.24589590807E+02  0.22092549531E+02  0.43400727919E+02  0.00000000000E+00 0. -1.
         11    1    3    3    0    0 -0.19643571126E+02 -0.10147160971E+02 -0.19739123919E+02  0.29638957061E+02  0.51100000000E-03 0. -1.
        -11    1    3    3    0    0 -0.77604316437E+01 -0.73172434641E+01 -0.26156270669E+01  0.10982160827E+02  0.51100000000E-03 0.  1.
        -12    1    3    3    0    0 -0.71884315771E+00 -0.71251863717E+01  0.26220145460E+00  0.71661541932E+01  0.00000000000E+00 0.  1.
</event>
<event>
 7    1  0.2318319E-009  0.4778727E+02  0.7816164E-02  0.1312668E+00
        -11   -1    0    0    0    0  0.00000000000E+00  0.00000000000E+00  0.45593999997E+02  0.45594000000E+02  0.51100000000E-03 0. -1.
         11   -1    0    0    0    0 -0.00000000000E+00 -0.00000000000E+00 -0.45593999997E+02  0.45594000000E+02  0.51100000000E-03 0.  1.
    9900012    2    1    2    0    0 -0.22260726699E+02  0.34430083005E+02  0.14235615683E+02  0.47787270481E+02  0.19999997429E+02 0.  0.
         12    1    1    2    0    0  0.22260726699E+02 -0.34430083005E+02 -0.14235615683E+02  0.43400729519E+02  0.00000000000E+00 0. -1.
         11    1    3    3    0    0 -0.49782857940E+00  0.45804867473E+01 -0.41046653937E+00  0.46257080731E+01  0.51100000000E-03 0.  1.
        -11    1    3    3    0    0 -0.96493081281E+01  0.24177103232E+01  0.71523464393E+01  0.12251960268E+02  0.51100000000E-03 0. -1.
        -12    1    3    3    0    0 -0.12113589992E+02  0.27431885935E+02  0.74937357836E+01  0.30909602140E+02  0.00000000000E+00 0.  1.
</event>
<event>
 7    1  0.2318319E-009  0.4778729E+02  0.7816164E-02  0.1312668E+00
        -11   -1    0    0    0    0  0.00000000000E+00  0.00000000000E+00  0.45593999997E+02  0.45594000000E+02  0.51100000000E-03 0.  1.
         11   -1    0    0    0    0 -0.00000000000E+00 -0.00000000000E+00 -0.45593999997E+02  0.45594000000E+02  0.51100000000E-03 0. -1.
    9900012    2    1    2    0    0 -0.87347845174E+01 -0.29639093575E+02  0.30477029626E+02  0.47787289599E+02  0.20000084598E+02 0.  0.
         12    1    1    2    0    0  0.87347845174E+01  0.29639093575E+02 -0.30477029626E+02  0.43400710401E+02  0.00000000000E+00 0. -1.
         11    1    3    3    0    0  0.31742738329E+01 -0.18041411611E+02  0.11502602788E+02  0.21630497415E+02  0.51100000000E-03 0. -1.
        -11    1    3    3    0    0 -0.43736769949E+00 -0.84670287464E+00  0.50996852518E+01  0.51879655156E+01  0.51100000000E-03 0.  1.
        -12    1    3    3    0    0 -0.11471690651E+02 -0.10750979089E+02  0.13874741586E+02  0.20968826668E+02  0.00000000000E+00 0.  1.
</event>
<event>
 7    1  0.2318319E-009  0.4778726E+02  0.7816164E-02  0.1312668E+00
        -11   -1    0    0    0    0  0.00000000000E+00  0.00000000000E+00  0.45593999997E+02  0.45594000000E+02  0.51100000000E-03 0. -1.
         11   -1    0    0    0    0 -0.00000000000E+00 -0.00000000000E+00 -0.45593999997E+02  0.45594000000E+02  0.51100000000E-03 0.  1.
    9900012    2    1    2    0    0 -0.33203252548E+02  0.27007456555E+01 -0.27818592945E+02  0.47787261293E+02  0.19999955540E+02 0.  0.
         12    1    1    2    0    0  0.33203252548E+02 -0.27007456555E+01  0.27818592945E+02  0.43400738707E+02  0.00000000000E+00 0. -1.
         11    1    3    3    0    0 -0.33053027723E+01  0.55253751227E+01 -0.56868345636E+01  0.85903948849E+01  0.51100000000E-03 0. -1.
        -11    1    3    3    0    0 -0.38470240603E+01  0.38661602175E+01 -0.38045190326E+01  0.66498988172E+01  0.51100000000E-03 0.  1.
         12    1    3    3    0    0 -0.26050925715E+02 -0.66907896847E+01 -0.18327239349E+02  0.32546967591E+02  0.00000000000E+00 0. -1.
</event>
<event>
 7    1  0.2318319E-009  0.4778727E+02  0.7816164E-02  0.1312668E+00
        -11   -1    0    0    0    0  0.00000000000E+00  0.00000000000E+00  0.45593999997E+02  0.45594000000E+02  0.51100000000E-03 0.  1.
         11   -1    0    0    0    0 -0.00000000000E+00 -0.00000000000E+00 -0.45593999997E+02  0.45594000000E+02  0.51100000000E-03 0. -1.
    9900012    2    1    2    0    0  0.90417768281E+01  0.34806423821E+02  0.24297788433E+02  0.47787269705E+02  0.19999993894E+02 0.  0.
         12    1    1    2    0    0 -0.90417768281E+01 -0.34806423821E+02 -0.24297788433E+02  0.43400730295E+02  0.00000000000E+00 0. -1.
         11    1    3    3    0    0 -0.22104894236E+01  0.13114791394E+02  0.82866109021E+00  0.13325565513E+02  0.51100000000E-03 0. -1.
        -11    1    3    3    0    0  0.44638427116E+01  0.71420568900E+01  0.42978636337E+01  0.94555010681E+01  0.51100000000E-03 0.  1.
        -12    1    3    3    0    0  0.67884235400E+01  0.14549575537E+02  0.19171263709E+02  0.25006203124E+02  0.00000000000E+00 0.  1.
</event>
<event>
 7    1  0.2318319E-009  0.4778727E+02  0.7816164E-02  0.1312668E+00
        -11   -1    0    0    0    0  0.00000000000E+00  0.00000000000E+00  0.45593999997E+02  0.45594000000E+02  0.51100000000E-03 0.  1.
         11   -1    0    0    0    0 -0.00000000000E+00 -0.00000000000E+00 -0.45593999997E+02  0.45594000000E+02  0.51100000000E-03 0. -1.
    9900012    2    1    2    0    0  0.13639618988E+02 -0.37937427663E+02  0.16072819141E+02  0.47787272598E+02  0.20000007084E+02 0.  0.
         12    1    1    2    0    0 -0.13639618988E+02  0.37937427663E+02 -0.16072819141E+02  0.43400727402E+02  0.00000000000E+00 0. -1.
         11    1    3    3    0    0  0.34953792145E+01 -0.17202840104E+02  0.83298828823E+01  0.19430448595E+02  0.51100000000E-03 0.  1.
        -11    1    3    3    0    0  0.47090402710E+01 -0.45693169677E+01  0.91330480952E+01  0.11245722991E+02  0.51100000000E-03 0. -1.
         12    1    3    3    0    0  0.54351995029E+01 -0.16165270592E+02 -0.13901118362E+01  0.17111101012E+02  0.00000000000E+00 0. -1.
</event>
<event>
 7    1  0.2318319E-009  0.4778727E+02  0.7816164E-02  0.1312668E+00
        -11   -1    0    0    0    0  0.00000000000E+00  0.00000000000E+00  0.45593999997E+02  0.45594000000E+02  0.51100000000E-03 0. -1.
         11   -1    0    0    0    0 -0.00000000000E+00 -0.00000000000E+00 -0.45593999997E+02  0.45594000000E+02  0.51100000000E-03 0.  1.
    9900012    2    1    2    0    0  0.40923554333E+02  0.13220900600E+02 -0.58390013196E+01  0.47787269035E+02  0.19999990837E+02 0.  0.
         12    1    1    2    0    0 -0.40923554333E+02 -0.13220900600E+02  0.58390013196E+01  0.43400730965E+02  0.00000000000E+00 0. -1.
         11    1    3    3    0    0 -0.61542448182E+00  0.12385270756E+01  0.15954298609E+01  0.21114197385E+01  0.51100000000E-03 0. -1.
        -11    1    3    3    0    0  0.28521121064E+02  0.95621533874E+01  0.78425769889E+00  0.30091596577E+02  0.51100000000E-03 0.  1.
         12    1    3    3    0    0  0.13017857750E+02  0.24202201374E+01 -0.82186888794E+01  0.15584252719E+02  0.00000000000E+00 0. -1.
</event>
<event>
 7    1  0.2318319E-009  0.4778727E+02  0.7816164E-02  0.1312668E+00
        -11   -1    0    0    0    0  0.00000000000E+00  0.00000000000E+00  0.45593999997E+02  0.45594000000E+02  0.51100000000E-03 0. -1.
         11   -1    0    0    0    0 -0.00000000000E+00 -0.00000000000E+00 -0.45593999997E+02  0.45594000000E+02  0.51100000000E-03 0.  1.
    9900012    2    1    2    0    0  0.22752284448E+02 -0.20338491439E+02 -0.30859396256E+02  0.47787273981E+02  0.20000013390E+02 0.  0.
         12    1    1    2    0    0 -0.22752284448E+02  0.20338491439E+02  0.30859396256E+02  0.43400726019E+02  0.00000000000E+00 0. -1.
         11    1    3    3    0    0  0.14287350839E+02 -0.11212473054E+02 -0.23123922138E+02  0.29403464443E+02  0.51100000000E-03 0. -1.
        -11    1    3    3    0    0  0.84834804238E+01 -0.83546614193E+01 -0.10276513622E+02  0.15728208417E+02  0.51100000000E-03 0.  1.
         12    1    3    3    0    0 -0.18546814596E-01 -0.77135696626E+00  0.25410395034E+01  0.26556011206E+01  0.00000000000E+00 0. -1.
</event>
<event>
 7    1  0.2318319E-009  0.4778727E+02  0.7816164E-02  0.1312668E+00
        -11   -1    0    0    0    0  0.00000000000E+00  0.00000000000E+00  0.45593999997E+02  0.45594000000E+02  0.51100000000E-03 0. -1.
         11   -1    0    0    0    0 -0.00000000000E+00 -0.00000000000E+00 -0.45593999997E+02  0.45594000000E+02  0.51100000000E-03 0.  1.
    9900012    2    1    2    0    0 -0.78078847729E+01  0.38309768744E+02 -0.18842014417E+02  0.47787274740E+02  0.20000016848E+02 0.  0.
         12    1    1    2    0    0  0.78078847729E+01 -0.38309768744E+02  0.18842014417E+02  0.43400725260E+02  0.00000000000E+00 0. -1.
         11    1    3    3    0    0 -0.41260668640E+01  0.11647575082E+02 -0.63206139942E+01  0.13879502678E+02  0.51100000000E-03 0. -1.
        -11    1    3    3    0    0 -0.69736993857E+01  0.26879880544E+02 -0.92710134729E+01  0.29276477798E+02  0.51100000000E-03 0.  1.
         12    1    3    3    0    0  0.32918814768E+01 -0.21768688213E+00 -0.32503869496E+01  0.46312942638E+01  0.00000000000E+00 0. -1.
</event>
<event>
 7    1  0.2318319E-009  0.4778728E+02  0.7816164E-02  0.1312668E+00
        -11   -1    0    0    0    0  0.00000000000E+00  0.00000000000E+00  0.45593999997E+02  0.45594000000E+02  0.51100000000E-03 0.  1.
         11   -1    0    0    0    0 -0.00000000000E+00 -0.00000000000E+00 -0.45593999997E+02  0.45594000000E+02  0.51100000000E-03 0. -1.
    9900012    2    1    2    0    0 -0.17301959297E+02  0.37820983153E+02  0.12403150428E+02  0.47787277624E+02  0.20000030000E+02 0.  0.
         12    1    1    2    0    0  0.17301959297E+02 -0.37820983153E+02 -0.12403150428E+02  0.43400722376E+02  0.00000000000E+00 0. -1.
         11    1    3    3    0    0  0.11399091355E+01  0.11229793626E+01 -0.18634858398E+01  0.24562278442E+01  0.51100000000E-03 0. -1.
        -11    1    3    3    0    0 -0.12492970216E+02  0.14185830750E+02  0.19876921858E+01  0.19006920302E+02  0.51100000000E-03 0.  1.
        -12    1    3    3    0    0 -0.59488982169E+01  0.22512173041E+02  0.12278944082E+02  0.26324129478E+02  0.00000000000E+00 0.  1.
</event>
<event>
 7    1  0.2318319E-009  0.4778727E+02  0.7816164E-02  0.1312668E+00
        -11   -1    0    0    0    0  0.00000000000E+00  0.00000000000E+00  0.45593999997E+02  0.45594000000E+02  0.51100000000E-03 0. -1.
         11   -1    0    0    0    0 -0.00000000000E+00 -0.00000000000E+00 -0.45593999997E+02  0.45594000000E+02  0.51100000000E-03 0.  1.
    9900012    2    1    2    0    0  0.36517517502E+02 -0.15887876449E+02 -0.17253106845E+02  0.47787269610E+02  0.19999993460E+02 0.  0.
         12    1    1    2    0    0 -0.36517517502E+02  0.15887876449E+02  0.17253106845E+02  0.43400730390E+02  0.00000000000E+00 0. -1.
         11    1    3    3    0    0  0.86641236687E+00 -0.10051092221E+01 -0.15107621529E+00  0.13355670038E+01  0.51100000000E-03 0. -1.
        -11    1    3    3    0    0  0.45374811841E+01 -0.10579287141E+02 -0.69276006379E+01  0.13435092213E+02  0.51100000000E-03 0.  1.
         12    1    3    3    0    0  0.31113623951E+02 -0.43034800857E+01 -0.10174429992E+02  0.33016610394E+02  0.00000000000E+00 0. -1.
</event>
<event>
 7    1  0.2318319E-009  0.4778725E+02  0.7816164E-02  0.1312668E+00
        -11   -1    0    0    0    0  0.00000000000E+00  0.00000000000E+00  0.45593999997E+02  0.45594000000E+02  0.51100000000E-03 0.  1.
         11   -1    0    0    0    0 -0.00000000000E+00 -0.00000000000E+00 -0.45593999997E+02  0.45594000000E+02  0.51100000000E-03 0. -1.
    9900012    2    1    2    0    0 -0.64971159623E+01  0.15809987362E+02  0.39893062804E+02  0.47787254890E+02  0.19999926346E+02 0.  0.
         12    1    1    2    0    0  0.64971159623E+01 -0.15809987362E+02 -0.39893062804E+02  0.43400745110E+02  0.00000000000E+00 0. -1.
         11    1    3    3    0    0 -0.22067134740E+00  0.28357368103E+01 -0.20016099150E+01  0.34780082826E+01  0.51100000000E-03 0. -1.
        -11    1    3    3    0    0 -0.15998781877E+01  0.29227296412E+01  0.90317666331E+01  0.96267734754E+01  0.51100000000E-03 0.  1.
         12    1    3    3    0    0 -0.46765664272E+01  0.10051520910E+02  0.32862906086E+02  0.34682473132E+02  0.00000000000E+00 0. -1.
</event>
<event>
 7    1  0.2318319E-009  0.4778727E+02  0.7816164E-02  0.1312668E+00
        -11   -1    0    0    0    0  0.00000000000E+00  0.00000000000E+00  0.45593999997E+02  0.45594000000E+02  0.51100000000E-03 0.  1.
         11   -1    0    0    0    0 -0.00000000000E+00 -0.00000000000E+00 -0.45593999997E+02  0.45594000000E+02  0.51100000000E-03 0. -1.
    9900012    2    1    2    0    0  0.36768207323E+02 -0.22356162793E+01  0.22950472705E+02  0.47787271350E+02  0.20000001395E+02 0.  0.
         12    1    1    2    0    0 -0.36768207323E+02  0.22356162793E+01 -0.22950472705E+02  0.43400728650E+02  0.00000000000E+00 0. -1.
         11    1    3    3    0    0  0.14222311444E+02  0.37964413803E+01  0.42441527818E+01  0.15319919812E+02  0.51100000000E-03 0.  1.
        -11    1    3    3    0    0  0.10711876245E+02  0.11961809016E+01  0.23641040338E+01  0.11034678499E+02  0.51100000000E-03 0. -1.
        -12    1    3    3    0    0  0.11834019635E+02 -0.72282385612E+01  0.16342215890E+02  0.21432673039E+02  0.00000000000E+00 0.  1.
</event>
<event>
 7    1  0.2318319E-009  0.4778727E+02  0.7816164E-02  0.1312668E+00
        -11   -1    0    0    0    0  0.00000000000E+00  0.00000000000E+00  0.45593999997E+02  0.45594000000E+02  0.51100000000E-03 0.  1.
         11   -1    0    0    0    0 -0.00000000000E+00 -0.00000000000E+00 -0.45593999997E+02  0.45594000000E+02  0.51100000000E-03 0. -1.
    9900012    2    1    2    0    0  0.25858598239E+02 -0.18358989288E+02  0.29629440332E+02  0.47787270456E+02  0.19999997315E+02 0.  0.
         12    1    1    2    0    0 -0.25858598239E+02  0.18358989288E+02 -0.29629440332E+02  0.43400729544E+02  0.00000000000E+00 0. -1.
         11    1    3    3    0    0  0.51779260049E+01  0.30207120014E+00  0.34607795125E+01  0.62353155347E+01  0.51100000000E-03 0. -1.
        -11    1    3    3    0    0  0.87964169252E+01  0.13660201013E+01  0.86312238110E+01  0.12399233298E+02  0.51100000000E-03 0.  1.
         12    1    3    3    0    0  0.11884255309E+02 -0.20027080590E+02  0.17537437009E+02  0.29152721623E+02  0.00000000000E+00 0. -1.
</event>
<event>
 7    1  0.2318319E-009  0.4778727E+02  0.7816164E-02  0.1312668E+00
        -11   -1    0    0    0    0  0.00000000000E+00  0.00000000000E+00  0.45593999997E+02  0.45594000000E+02  0.51100000000E-03 0.  1.
         11   -1    0    0    0    0 -0.00000000000E+00 -0.00000000000E+00 -0.45593999997E+02  0.45594000000E+02  0.51100000000E-03 0. -1.
    9900012    2    1    2    0    0  0.46732539631E+01  0.30857767321E+02  0.30159275800E+02  0.47787273930E+02  0.20000013157E+02 0.  0.
         12    1    1    2    0    0 -0.46732539631E+01 -0.30857767321E+02 -0.30159275800E+02  0.43400726070E+02  0.00000000000E+00 0. -1.
         11    1    3    3    0    0  0.88094576471E+00  0.15066026501E+02  0.14360321350E+02  0.20832187823E+02  0.51100000000E-03 0. -1.
        -11    1    3    3    0    0  0.83330017752E+01  0.14286265502E+02  0.14507449623E+02  0.22000054441E+02  0.51100000000E-03 0.  1.
         12    1    3    3    0    0 -0.45406935768E+01  0.15054753178E+01  0.12915048267E+01  0.49550316657E+01  0.00000000000E+00 0. -1.
</event>
<event>
 7    1  0.2318319E-009  0.4778727E+02  0.7816164E-02  0.1312668E+00
        -11   -1    0    0    0    0  0.00000000000E+00  0.00000000000E+00  0.45593999997E+02  0.45594000000E+02  0.51100000000E-03 0. -1.
         11   -1    0    0    0    0 -0.00000000000E+00 -0.00000000000E+00 -0.45593999997E+02  0.45594000000E+02  0.51100000000E-03 0.  1.
    9900012    2    1    2    0    0 -0.23521678392E+02 -0.35106246238E+02  0.98947021744E+01  0.47787274079E+02  0.20000013836E+02 0.  0.
         12    1    1    2    0    0  0.23521678392E+02  0.35106246238E+02 -0.98947021744E+01  0.43400725921E+02  0.00000000000E+00 0. -1.
         11    1    3    3    0    0 -0.13354043777E+02 -0.20002902071E+02  0.15633618460E+02  0.28685477212E+02  0.51100000000E-03 0. -1.
        -11    1    3    3    0    0 -0.30983269953E+01 -0.43528266980E+01 -0.13994864106E+01  0.55231596852E+01  0.51100000000E-03 0.  1.
         12    1    3    3    0    0 -0.70693076199E+01 -0.10750517469E+02 -0.43394298749E+01  0.13578637182E+02  0.00000000000E+00 0. -1.
</event>
<event>
 7    1  0.2318319E-009  0.4778728E+02  0.7816164E-02  0.1312668E+00
        -11   -1    0    0    0    0  0.00000000000E+00  0.00000000000E+00  0.45593999997E+02  0.45594000000E+02  0.51100000000E-03 0.  1.
         11   -1    0    0    0    0 -0.00000000000E+00 -0.00000000000E+00 -0.45593999997E+02  0.45594000000E+02  0.51100000000E-03 0. -1.
    9900012    2    1    2    0    0  0.11946464215E+01  0.39682828972E+02  0.17534774280E+02  0.47787281062E+02  0.20000045674E+02 0.  0.
         12    1    1    2    0    0 -0.11946464215E+01 -0.39682828972E+02 -0.17534774280E+02  0.43400718938E+02  0.00000000000E+00 0. -1.
         11    1    3    3    0    0  0.34979983397E+00  0.20683380614E+01 -0.15267471499E+01  0.25944824881E+01  0.51100000000E-03 0. -1.
        -11    1    3    3    0    0  0.43879500493E+00  0.14021784903E+02  0.16190188864E+02  0.21422539733E+02  0.51100000000E-03 0.  1.
        -12    1    3    3    0    0  0.40605158257E+00  0.23592706007E+02  0.28713325665E+01  0.23770258841E+02  0.00000000000E+00 0.  1.
</event>
<event>
 7    1  0.2318319E-009  0.4778727E+02  0.7816164E-02  0.1312668E+00
        -11   -1    0    0    0    0  0.00000000000E+00  0.00000000000E+00  0.45593999997E+02  0.45594000000E+02  0.51100000000E-03 0. -1.
         11   -1    0    0    0    0 -0.00000000000E+00 -0.00000000000E+00 -0.45593999997E+02  0.45594000000E+02  0.51100000000E-03 0.  1.
    9900012    2    1    2    0    0 -0.81678203205E+01 -0.10973196168E+02 -0.41188578769E+02  0.47787270237E+02  0.19999996320E+02 0.  0.
         12    1    1    2    0    0  0.81678203205E+01  0.10973196168E+02  0.41188578769E+02  0.43400729763E+02  0.00000000000E+00 0. -1.
         11    1    3    3    0    0  0.19048689021E+01  0.16627659561E+01 -0.40393611757E+01  0.47654753308E+01  0.51100000000E-03 0. -1.
        -11    1    3    3    0    0 -0.27194198170E-01 -0.87062913825E+01 -0.75699816907E+01  0.11537108486E+02  0.51100000000E-03 0.  1.
        -12    1    3    3    0    0 -0.10045495024E+02 -0.39296707414E+01 -0.29579235903E+02  0.31484686420E+02  0.00000000000E+00 0.  1.
</event>
<event>
 7    1  0.2318319E-009  0.4778727E+02  0.7816164E-02  0.1312668E+00
        -11   -1    0    0    0    0  0.00000000000E+00  0.00000000000E+00  0.45593999997E+02  0.45594000000E+02  0.51100000000E-03 0.  1.
         11   -1    0    0    0    0 -0.00000000000E+00 -0.00000000000E+00 -0.45593999997E+02  0.45594000000E+02  0.51100000000E-03 0. -1.
    9900012    2    1    2    0    0  0.25230410706E+02 -0.31075379052E+02  0.16774101270E+02  0.47787270961E+02  0.19999999622E+02 0.  0.
         12    1    1    2    0    0 -0.25230410706E+02  0.31075379052E+02 -0.16774101270E+02  0.43400729039E+02  0.00000000000E+00 0. -1.
         11    1    3    3    0    0  0.24910676401E+01 -0.12813278641E+02  0.38255899834E+01  0.13602230203E+02  0.51100000000E-03 0. -1.
        -11    1    3    3    0    0  0.52312718122E+01 -0.42772288800E+01 -0.22352910078E+01  0.71174024627E+01  0.51100000000E-03 0.  1.
        -12    1    3    3    0    0  0.17508071254E+02 -0.13984871532E+02  0.15183802294E+02  0.27067638296E+02  0.00000000000E+00 0.  1.
</event>
<event>
 7    1  0.2318319E-009  0.4778727E+02  0.7816164E-02  0.1312668E+00
        -11   -1    0    0    0    0  0.00000000000E+00  0.00000000000E+00  0.45593999997E+02  0.45594000000E+02  0.51100000000E-03 0. -1.
         11   -1    0    0    0    0 -0.00000000000E+00 -0.00000000000E+00 -0.45593999997E+02  0.45594000000E+02  0.51100000000E-03 0.  1.
    9900012    2    1    2    0    0  0.23132074904E+02  0.27027979176E+02  0.24859981214E+02  0.47787271738E+02  0.20000003163E+02 0.  0.
         12    1    1    2    0    0 -0.23132074904E+02 -0.27027979176E+02 -0.24859981214E+02  0.43400728262E+02  0.00000000000E+00 0. -1.
         11    1    3    3    0    0 -0.12150758453E+01  0.21100922741E+00  0.35548351152E+01  0.37626835053E+01  0.51100000000E-03 0. -1.
        -11    1    3    3    0    0  0.74677452738E+00  0.21330328632E+01 -0.17172272570E+01  0.28383747292E+01  0.51100000000E-03 0.  1.
         12    1    3    3    0    0  0.23600376222E+02  0.24683937085E+02  0.23022373356E+02  0.41186213504E+02  0.00000000000E+00 0. -1.
</event>
<event>
 7    1  0.2318319E-009  0.4778727E+02  0.7816164E-02  0.1312668E+00
        -11   -1    0    0    0    0  0.00000000000E+00  0.00000000000E+00  0.45593999997E+02  0.45594000000E+02  0.51100000000E-03 0.  1.
         11   -1    0    0    0    0 -0.00000000000E+00 -0.00000000000E+00 -0.45593999997E+02  0.45594000000E+02  0.51100000000E-03 0. -1.
    9900012    2    1    2    0    0 -0.38281818771E+01 -0.39486067127E+02 -0.17601664991E+02  0.47787273230E+02  0.20000009967E+02 0.  0.
         12    1    1    2    0    0  0.38281818771E+01  0.39486067127E+02  0.17601664991E+02  0.43400726770E+02  0.00000000000E+00 0. -1.
         11    1    3    3    0    0  0.16788849263E+01 -0.40266237790E+01  0.28115711386E+00  0.43716590944E+01  0.51100000000E-03 0. -1.
        -11    1    3    3    0    0 -0.57586832209E+01 -0.10853178172E+02  0.11022061429E+01  0.12335670534E+02  0.51100000000E-03 0.  1.
         12    1    3    3    0    0  0.25161641752E+00 -0.24606265176E+02 -0.18985028248E+02  0.31079943602E+02  0.00000000000E+00 0. -1.
</event>
<event>
 7    1  0.2318319E-009  0.4778727E+02  0.7816164E-02  0.1312668E+00
        -11   -1    0    0    0    0  0.00000000000E+00  0.00000000000E+00  0.45593999997E+02  0.45594000000E+02  0.51100000000E-03 0.  1.
         11   -1    0    0    0    0 -0.00000000000E+00 -0.00000000000E+00 -0.45593999997E+02  0.45594000000E+02  0.51100000000E-03 0. -1.
    9900012    2    1    2    0    0  0.15838192706E+02  0.27367747188E+02  0.29728462532E+02  0.47787269374E+02  0.19999992385E+02 0.  0.
         12    1    1    2    0    0 -0.15838192706E+02 -0.27367747188E+02 -0.29728462532E+02  0.43400730626E+02  0.00000000000E+00 0. -1.
         11    1    3    3    0    0  0.45672080137E+01  0.36786158011E+01  0.17612882055E+02  0.18563545399E+02  0.51100000000E-03 0. -1.
        -11    1    3    3    0    0  0.20972283865E+01  0.18981191796E+01  0.46802621566E+00  0.28671016942E+01  0.51100000000E-03 0.  1.
        -12    1    3    3    0    0  0.91737563060E+01  0.21791012207E+02  0.11647554261E+02  0.26356622281E+02  0.00000000000E+00 0.  1.
</event>
<event>
 7    1  0.2318319E-009  0.4778726E+02  0.7816164E-02  0.1312668E+00
        -11   -1    0    0    0    0  0.00000000000E+00  0.00000000000E+00  0.45593999997E+02  0.45594000000E+02  0.51100000000E-03 0.  1.
         11   -1    0    0    0    0 -0.00000000000E+00 -0.00000000000E+00 -0.45593999997E+02  0.45594000000E+02  0.51100000000E-03 0. -1.
    9900012    2    1    2    0    0  0.33886362308E+02 -0.10188517005E+02  0.25130314800E+02  0.47787260937E+02  0.19999953917E+02 0.  0.
         12    1    1    2    0    0 -0.33886362308E+02  0.10188517005E+02 -0.25130314800E+02  0.43400739063E+02  0.00000000000E+00 0. -1.
         11    1    3    3    0    0  0.30056664373E+01 -0.35373059737E+01 -0.14233548135E+01  0.48551522603E+01  0.51100000000E-03 0. -1.
        -11    1    3    3    0    0  0.33689813997E+01  0.24730629754E+01  0.10146115857E+01  0.43006410084E+01  0.51100000000E-03 0.  1.
         12    1    3    3    0    0  0.27511714471E+02 -0.91242740066E+01  0.25539058027E+02  0.38631467669E+02  0.00000000000E+00 0. -1.
</event>
<event>
 7    1  0.2318319E-009  0.4778728E+02  0.7816164E-02  0.1312668E+00
        -11   -1    0    0    0    0  0.00000000000E+00  0.00000000000E+00  0.45593999997E+02  0.45594000000E+02  0.51100000000E-03 0. -1.
         11   -1    0    0    0    0 -0.00000000000E+00 -0.00000000000E+00 -0.45593999997E+02  0.45594000000E+02  0.51100000000E-03 0.  1.
    9900012    2    1    2    0    0 -0.40183709594E+02 -0.45298088693E+01 -0.15759849456E+02  0.47787279499E+02  0.20000038549E+02 0.  0.
         12    1    1    2    0    0  0.40183709594E+02  0.45298088693E+01  0.15759849456E+02  0.43400720501E+02  0.00000000000E+00 0. -1.
         11    1    3    3    0    0 -0.14474044466E+02  0.29618287387E+01 -0.10612298212E+02  0.18190416881E+02  0.51100000000E-03 0. -1.
        -11    1    3    3    0    0 -0.22282412467E+02 -0.19011377886E+01 -0.55007177399E+01  0.23029939777E+02  0.51100000000E-03 0.  1.
        -12    1    3    3    0    0 -0.34272526604E+01 -0.55904998193E+01  0.35316649549E+00  0.65669228411E+01  0.00000000000E+00 0.  1.
</event>
<event>
 7    1  0.2318319E-009  0.4778727E+02  0.7816164E-02  0.1312668E+00
        -11   -1    0    0    0    0  0.00000000000E+00  0.00000000000E+00  0.45593999997E+02  0.45594000000E+02  0.51100000000E-03 0.  1.
         11   -1    0    0    0    0 -0.00000000000E+00 -0.00000000000E+00 -0.45593999997E+02  0.45594000000E+02  0.51100000000E-03 0. -1.
    9900012    2    1    2    0    0 -0.31202273778E+02  0.63601408594E+01  0.29488812859E+02  0.47787270000E+02  0.19999995239E+02 0.  0.
         12    1    1    2    0    0  0.31202273778E+02 -0.63601408594E+01 -0.29488812859E+02  0.43400730000E+02  0.00000000000E+00 0. -1.
         11    1    3    3    0    0 -0.14459769970E+01 -0.31007685073E+01  0.73578286926E+01  0.81143858759E+01  0.51100000000E-03 0. -1.
        -11    1    3    3    0    0 -0.67325009303E+01  0.40725836044E+01  0.11034921444E+02  0.13552933170E+02  0.51100000000E-03 0.  1.
         12    1    3    3    0    0 -0.23023795850E+02  0.53883257623E+01  0.11096062723E+02  0.26119950954E+02  0.00000000000E+00 0. -1.
</event>
<event>
 7    1  0.2318319E-009  0.4778727E+02  0.7816164E-02  0.1312668E+00
        -11   -1    0    0    0    0  0.00000000000E+00  0.00000000000E+00  0.45593999997E+02  0.45594000000E+02  0.51100000000E-03 0.  1.
         11   -1    0    0    0    0 -0.00000000000E+00 -0.00000000000E+00 -0.45593999997E+02  0.45594000000E+02  0.51100000000E-03 0. -1.
    9900012    2    1    2    0    0 -0.82015436553E+01  0.42614679235E+02  0.58917972610E+00  0.47787270312E+02  0.19999996662E+02 0.  0.
         12    1    1    2    0    0  0.82015436553E+01 -0.42614679235E+02 -0.58917972610E+00  0.43400729688E+02  0.00000000000E+00 0. -1.
         11    1    3    3    0    0  0.46469478028E+00  0.60155061539E+01 -0.25104848274E+01  0.65348901947E+01  0.51100000000E-03 0. -1.
        -11    1    3    3    0    0  0.45036887974E+01  0.15006075933E+02 -0.66408595006E+00  0.15681407402E+02  0.51100000000E-03 0.  1.
         12    1    3    3    0    0 -0.13169927233E+02  0.21593097148E+02  0.37637505036E+01  0.25570972716E+02  0.00000000000E+00 0. -1.
</event>
<event>
 7    1  0.2318319E-009  0.4778727E+02  0.7816164E-02  0.1312668E+00
        -11   -1    0    0    0    0  0.00000000000E+00  0.00000000000E+00  0.45593999997E+02  0.45594000000E+02  0.51100000000E-03 0. -1.
         11   -1    0    0    0    0 -0.00000000000E+00 -0.00000000000E+00 -0.45593999997E+02  0.45594000000E+02  0.51100000000E-03 0.  1.
    9900012    2    1    2    0    0 -0.38038086055E+02  0.12982489181E+02 -0.16376270982E+02  0.47787271120E+02  0.20000000345E+02 0.  0.
         12    1    1    2    0    0  0.38038086055E+02 -0.12982489181E+02  0.16376270982E+02  0.43400728880E+02  0.00000000000E+00 0. -1.
         11    1    3    3    0    0 -0.10539311285E+02  0.49628259461E+00 -0.42848577642E+00  0.10559686505E+02  0.51100000000E-03 0. -1.
        -11    1    3    3    0    0 -0.12106279016E+02  0.69263170447E+01  0.59105361753E+00  0.13960129084E+02  0.51100000000E-03 0.  1.
        -12    1    3    3    0    0 -0.15392495755E+02  0.55598895415E+01 -0.16538838823E+02  0.23267455531E+02  0.00000000000E+00 0.  1.
</event>
<event>
 7    1  0.2318319E-009  0.4778727E+02  0.7816164E-02  0.1312668E+00
        -11   -1    0    0    0    0  0.00000000000E+00  0.00000000000E+00  0.45593999997E+02  0.45594000000E+02  0.51100000000E-03 0.  1.
         11   -1    0    0    0    0 -0.00000000000E+00 -0.00000000000E+00 -0.45593999997E+02  0.45594000000E+02  0.51100000000E-03 0. -1.
    9900012    2    1    2    0    0 -0.39062322454E+02  0.13446237891E+02  0.13302508416E+02  0.47787273288E+02  0.20000010230E+02 0.  0.
         12    1    1    2    0    0  0.39062322454E+02 -0.13446237891E+02 -0.13302508416E+02  0.43400726712E+02  0.00000000000E+00 0. -1.
         11    1    3    3    0    0 -0.50741043117E+01  0.57705968785E+01  0.16554151870E+00  0.76859434786E+01  0.51100000000E-03 0. -1.
        -11    1    3    3    0    0 -0.12690867983E+02  0.10360373902E+02  0.47777315146E+01  0.17065233554E+02  0.51100000000E-03 0.  1.
         12    1    3    3    0    0 -0.21297350160E+02 -0.26847328898E+01  0.83592353826E+01  0.23036096256E+02  0.00000000000E+00 0. -1.
</event>
<event>
 7    1  0.2318319E-009  0.4778728E+02  0.7816164E-02  0.1312668E+00
        -11   -1    0    0    0    0  0.00000000000E+00  0.00000000000E+00  0.45593999997E+02  0.45594000000E+02  0.51100000000E-03 0. -1.
         11   -1    0    0    0    0 -0.00000000000E+00 -0.00000000000E+00 -0.45593999997E+02  0.45594000000E+02  0.51100000000E-03 0.  1.
    9900012    2    1    2    0    0 -0.33624084852E+02 -0.24484155660E+02 -0.12392330356E+02  0.47787276363E+02  0.20000024250E+02 0.  0.
         12    1    1    2    0    0  0.33624084852E+02  0.24484155660E+02  0.12392330356E+02  0.43400723637E+02  0.00000000000E+00 0. -1.
         11    1    3    3    0    0 -0.51885717466E+01 -0.17375458112E+01  0.32414276044E+00  0.54813694462E+01  0.51100000000E-03 0. -1.
        -11    1    3    3    0    0 -0.15707023444E+02 -0.36159371925E+01 -0.10466013558E+02  0.19217778937E+02  0.51100000000E-03 0.  1.
        -12    1    3    3    0    0 -0.12728489662E+02 -0.19130672657E+02 -0.22504595593E+01  0.23088127979E+02  0.00000000000E+00 0.  1.
</event>
<event>
 7    1  0.2318319E-009  0.4778727E+02  0.7816164E-02  0.1312668E+00
        -11   -1    0    0    0    0  0.00000000000E+00  0.00000000000E+00  0.45593999997E+02  0.45594000000E+02  0.51100000000E-03 0.  1.
         11   -1    0    0    0    0 -0.00000000000E+00 -0.00000000000E+00 -0.45593999997E+02  0.45594000000E+02  0.51100000000E-03 0. -1.
    9900012    2    1    2    0    0 -0.25223529986E+02  0.73386955721E+01  0.34547652965E+02  0.47787271400E+02  0.20000001621E+02 0.  0.
         12    1    1    2    0    0  0.25223529986E+02 -0.73386955721E+01 -0.34547652965E+02  0.43400728600E+02  0.00000000000E+00 0. -1.
         11    1    3    3    0    0 -0.21397258426E+01 -0.34962916999E+01  0.82510045341E+00  0.41813004379E+01  0.51100000000E-03 0.  1.
        -11    1    3    3    0    0 -0.12084478798E+01  0.41072630106E+01  0.27252759878E+01  0.50751438588E+01  0.51100000000E-03 0. -1.
         12    1    3    3    0    0 -0.21875356263E+02  0.67277242613E+01  0.30997276524E+02  0.38530827103E+02  0.00000000000E+00 0. -1.
</event>
<event>
 7    1  0.2318319E-009  0.4778727E+02  0.7816164E-02  0.1312668E+00
        -11   -1    0    0    0    0  0.00000000000E+00  0.00000000000E+00  0.45593999997E+02  0.45594000000E+02  0.51100000000E-03 0.  1.
         11   -1    0    0    0    0 -0.00000000000E+00 -0.00000000000E+00 -0.45593999997E+02  0.45594000000E+02  0.51100000000E-03 0. -1.
    9900012    2    1    2    0    0 -0.79593836952E+01  0.40514672680E+00  0.42662718338E+02  0.47787268800E+02  0.19999989767E+02 0.  0.
         12    1    1    2    0    0  0.79593836952E+01 -0.40514672680E+00 -0.42662718338E+02  0.43400731200E+02  0.00000000000E+00 0. -1.
         11    1    3    3    0    0  0.46709875910E+00 -0.26708817872E+01  0.10028895105E+02  0.10388961838E+02  0.51100000000E-03 0. -1.
        -11    1    3    3    0    0 -0.34654112152E+01 -0.41270779005E+01  0.25638316792E+02  0.26198571241E+02  0.51100000000E-03 0.  1.
         12    1    3    3    0    0 -0.49610712390E+01  0.72031064145E+01  0.69955064404E+01  0.11199735721E+02  0.00000000000E+00 0. -1.
</event>
<event>
 7    1  0.2318319E-009  0.4778727E+02  0.7816164E-02  0.1312668E+00
        -11   -1    0    0    0    0  0.00000000000E+00  0.00000000000E+00  0.45593999997E+02  0.45594000000E+02  0.51100000000E-03 0. -1.
         11   -1    0    0    0    0 -0.00000000000E+00 -0.00000000000E+00 -0.45593999997E+02  0.45594000000E+02  0.51100000000E-03 0.  1.
    9900012    2    1    2    0    0  0.79475099193E+01 -0.27463659837E+02 -0.32652844308E+02  0.47787265363E+02  0.19999974098E+02 0.  0.
         12    1    1    2    0    0 -0.79475099193E+01  0.27463659837E+02  0.32652844308E+02  0.43400734637E+02  0.00000000000E+00 0. -1.
         11    1    3    3    0    0  0.13811743786E+01  0.14638636526E+01 -0.27560201434E+00  0.20313779040E+01  0.51100000000E-03 0. -1.
        -11    1    3    3    0    0  0.82719193784E+01 -0.11518264368E+02 -0.19131827864E+02  0.23814321362E+02  0.51100000000E-03 0.  1.
        -12    1    3    3    0    0 -0.17055838376E+01 -0.17409259121E+02 -0.13245414430E+02  0.21941566098E+02  0.00000000000E+00 0.  1.
</event>
<event>
 7    1  0.2318319E-009  0.4778727E+02  0.7816164E-02  0.1312668E+00
        -11   -1    0    0    0    0  0.00000000000E+00  0.00000000000E+00  0.45593999997E+02  0.45594000000E+02  0.51100000000E-03 0. -1.
         11   -1    0    0    0    0 -0.00000000000E+00 -0.00000000000E+00 -0.45593999997E+02  0.45594000000E+02  0.51100000000E-03 0.  1.
    9900012    2    1    2    0    0 -0.15825367673E+02 -0.27994733320E+02 -0.29145766888E+02  0.47787273242E+02  0.20000010017E+02 0.  0.
         12    1    1    2    0    0  0.15825367673E+02  0.27994733320E+02  0.29145766888E+02  0.43400726758E+02  0.00000000000E+00 0. -1.
         11    1    3    3    0    0 -0.14631594215E+01 -0.18293644837E+01  0.14066647021E+01  0.27324193954E+01  0.51100000000E-03 0. -1.
        -11    1    3    3    0    0 -0.13856261584E+02 -0.14593531218E+02 -0.12772828732E+02  0.23835106305E+02  0.51100000000E-03 0.  1.
        -12    1    3    3    0    0 -0.50594666762E+00 -0.11571837619E+02 -0.17779602859E+02  0.21219747541E+02  0.00000000000E+00 0.  1.
</event>
<event>
 7    1  0.2318319E-009  0.4778727E+02  0.7816164E-02  0.1312668E+00
        -11   -1    0    0    0    0  0.00000000000E+00  0.00000000000E+00  0.45593999997E+02  0.45594000000E+02  0.51100000000E-03 0. -1.
         11   -1    0    0    0    0 -0.00000000000E+00 -0.00000000000E+00 -0.45593999997E+02  0.45594000000E+02  0.51100000000E-03 0.  1.
    9900012    2    1    2    0    0 -0.21995707476E+02  0.27181808761E+02 -0.25709172608E+02  0.47787269233E+02  0.19999991743E+02 0.  0.
         12    1    1    2    0    0  0.21995707476E+02 -0.27181808761E+02  0.25709172608E+02  0.43400730767E+02  0.00000000000E+00 0. -1.
         11    1    3    3    0    0 -0.42481949569E+01  0.65278967056E+01 -0.14387952715E+01  0.79202732204E+01  0.51100000000E-03 0.  1.
        -11    1    3    3    0    0 -0.11617384176E+02  0.82464604787E+01 -0.31088179617E+01  0.14581922881E+02  0.51100000000E-03 0. -1.
        -12    1    3    3    0    0 -0.61301283430E+01  0.12407451576E+02 -0.21161559375E+02  0.25285073132E+02  0.00000000000E+00 0.  1.
</event>
<event>
 7    1  0.2318319E-009  0.4778727E+02  0.7816164E-02  0.1312668E+00
        -11   -1    0    0    0    0  0.00000000000E+00  0.00000000000E+00  0.45593999997E+02  0.45594000000E+02  0.51100000000E-03 0.  1.
         11   -1    0    0    0    0 -0.00000000000E+00 -0.00000000000E+00 -0.45593999997E+02  0.45594000000E+02  0.51100000000E-03 0. -1.
    9900012    2    1    2    0    0 -0.15688729423E+02 -0.32114718476E+02  0.24619741018E+02  0.47787273952E+02  0.20000013256E+02 0.  0.
         12    1    1    2    0    0  0.15688729423E+02  0.32114718476E+02 -0.24619741018E+02  0.43400726048E+02  0.00000000000E+00 0. -1.
         11    1    3    3    0    0  0.26892593554E+00 -0.89360918049E+00  0.12317710489E+01  0.15453539090E+01  0.51100000000E-03 0. -1.
        -11    1    3    3    0    0  0.42892672576E+01 -0.35786776220E+01  0.25680244032E+01  0.61481295306E+01  0.51100000000E-03 0.  1.
        -12    1    3    3    0    0 -0.20246922616E+02 -0.27642431674E+02  0.20819945566E+02  0.40093790512E+02  0.00000000000E+00 0.  1.
</event>
<event>
 7    1  0.2318319E-009  0.4778727E+02  0.7816164E-02  0.1312668E+00
        -11   -1    0    0    0    0  0.00000000000E+00  0.00000000000E+00  0.45593999997E+02  0.45594000000E+02  0.51100000000E-03 0.  1.
         11   -1    0    0    0    0 -0.00000000000E+00 -0.00000000000E+00 -0.45593999997E+02  0.45594000000E+02  0.51100000000E-03 0. -1.
    9900012    2    1    2    0    0 -0.11717628905E+02  0.39532999810E+02 -0.13544825448E+02  0.47787271924E+02  0.20000004008E+02 0.  0.
         12    1    1    2    0    0  0.11717628905E+02 -0.39532999810E+02  0.13544825448E+02  0.43400728076E+02  0.00000000000E+00 0. -1.
         11    1    3    3    0    0 -0.85673907904E+00 -0.14450556923E+01 -0.30770412122E+00  0.17078846245E+01  0.51100000000E-03 0. -1.
        -11    1    3    3    0    0 -0.70453498103E+01  0.84007334398E+01 -0.77373729468E+00  0.10991266803E+02  0.51100000000E-03 0.  1.
         12    1    3    3    0    0 -0.38155400152E+01  0.32577322063E+02 -0.12463384032E+02  0.35088120496E+02  0.00000000000E+00 0. -1.
</event>
<event>
 7    1  0.2318319E-009  0.4778727E+02  0.7816164E-02  0.1312668E+00
        -11   -1    0    0    0    0  0.00000000000E+00  0.00000000000E+00  0.45593999997E+02  0.45594000000E+02  0.51100000000E-03 0.  1.
         11   -1    0    0    0    0 -0.00000000000E+00 -0.00000000000E+00 -0.45593999997E+02  0.45594000000E+02  0.51100000000E-03 0. -1.
    9900012    2    1    2    0    0 -0.11033071420E+02  0.60999892733E+01  0.41529322888E+02  0.47787271969E+02  0.20000004215E+02 0.  0.
         12    1    1    2    0    0  0.11033071420E+02 -0.60999892733E+01 -0.41529322888E+02  0.43400728031E+02  0.00000000000E+00 0. -1.
         11    1    3    3    0    0  0.36950495716E+01  0.11409948406E+01  0.40850039937E+01  0.56251683044E+01  0.51100000000E-03 0. -1.
        -11    1    3    3    0    0 -0.66136956653E+01  0.23567008273E+01  0.50054090889E+01  0.86225941312E+01  0.51100000000E-03 0.  1.
        -12    1    3    3    0    0 -0.81144253258E+01  0.26022936053E+01  0.32438909805E+02  0.33539509533E+02  0.00000000000E+00 0.  1.
</event>
<event>
 7    1  0.2318319E-009  0.4778727E+02  0.7816164E-02  0.1312668E+00
        -11   -1    0    0    0    0  0.00000000000E+00  0.00000000000E+00  0.45593999997E+02  0.45594000000E+02  0.51100000000E-03 0.  1.
         11   -1    0    0    0    0 -0.00000000000E+00 -0.00000000000E+00 -0.45593999997E+02  0.45594000000E+02  0.51100000000E-03 0. -1.
    9900012    2    1    2    0    0  0.22524764407E+02 -0.29542980533E+02  0.22438149026E+02  0.47787271411E+02  0.20000001670E+02 0.  0.
         12    1    1    2    0    0 -0.22524764407E+02  0.29542980533E+02 -0.22438149026E+02  0.43400728589E+02  0.00000000000E+00 0. -1.
         11    1    3    3    0    0  0.64543064488E+01 -0.13540720364E+02  0.31207092767E+01  0.15321488386E+02  0.51100000000E-03 0. -1.
        -11    1    3    3    0    0  0.12749514948E+02 -0.11185334738E+02  0.61224297403E+01  0.18031804979E+02  0.51100000000E-03 0.  1.
         12    1    3    3    0    0  0.33209430096E+01 -0.48169254308E+01  0.13195010009E+02  0.14433978046E+02  0.00000000000E+00 0. -1.
</event>
<event>
 7    1  0.2318319E-009  0.4778727E+02  0.7816164E-02  0.1312668E+00
        -11   -1    0    0    0    0  0.00000000000E+00  0.00000000000E+00  0.45593999997E+02  0.45594000000E+02  0.51100000000E-03 0.  1.
         11   -1    0    0    0    0 -0.00000000000E+00 -0.00000000000E+00 -0.45593999997E+02  0.45594000000E+02  0.51100000000E-03 0. -1.
    9900012    2    1    2    0    0 -0.38742835756E+02  0.16134928216E+02  0.11058038237E+02  0.47787269123E+02  0.19999991242E+02 0.  0.
         12    1    1    2    0    0  0.38742835756E+02 -0.16134928216E+02 -0.11058038237E+02  0.43400730877E+02  0.00000000000E+00 0. -1.
         11    1    3    3    0    0 -0.82177206722E+01  0.50437227731E+01 -0.53502831292E+01  0.11027039597E+02  0.51100000000E-03 0. -1.
        -11    1    3    3    0    0 -0.35950044813E+01 -0.33001643620E+00  0.13001169583E+01  0.38370916636E+01  0.51100000000E-03 0.  1.
        -12    1    3    3    0    0 -0.26930110603E+02  0.11421221879E+02  0.15108204408E+02  0.32923137863E+02  0.00000000000E+00 0.  1.
</event>
<event>
 7    1  0.2318319E-009  0.4778727E+02  0.7816164E-02  0.1312668E+00
        -11   -1    0    0    0    0  0.00000000000E+00  0.00000000000E+00  0.45593999997E+02  0.45594000000E+02  0.51100000000E-03 0.  1.
         11   -1    0    0    0    0 -0.00000000000E+00 -0.00000000000E+00 -0.45593999997E+02  0.45594000000E+02  0.51100000000E-03 0. -1.
    9900012    2    1    2    0    0 -0.76903930573E+01  0.25462536979E+02  0.34294903805E+02  0.47787270032E+02  0.19999995384E+02 0.  0.
         12    1    1    2    0    0  0.76903930573E+01 -0.25462536979E+02 -0.34294903805E+02  0.43400729968E+02  0.00000000000E+00 0. -1.
         11    1    3    3    0    0 -0.16395486911E+01  0.32735237828E+01  0.25420196908E+00  0.36699723118E+01  0.51100000000E-03 0. -1.
        -11    1    3    3    0    0  0.40720202823E+01  0.15264739897E+02  0.19304890768E+02  0.24945389176E+02  0.51100000000E-03 0.  1.
        -12    1    3    3    0    0 -0.10122864648E+02  0.69242732990E+01  0.14735811068E+02  0.19171908545E+02  0.00000000000E+00 0.  1.
</event>
<event>
 7    1  0.2318319E-009  0.4778727E+02  0.7816164E-02  0.1312668E+00
        -11   -1    0    0    0    0  0.00000000000E+00  0.00000000000E+00  0.45593999997E+02  0.45594000000E+02  0.51100000000E-03 0.  1.
         11   -1    0    0    0    0 -0.00000000000E+00 -0.00000000000E+00 -0.45593999997E+02  0.45594000000E+02  0.51100000000E-03 0. -1.
    9900012    2    1    2    0    0  0.53235089886E+01 -0.19851021237E+02  0.38225910835E+02  0.47787273609E+02  0.20000011691E+02 0.  0.
         12    1    1    2    0    0 -0.53235089886E+01  0.19851021237E+02 -0.38225910835E+02  0.43400726391E+02  0.00000000000E+00 0. -1.
         11    1    3    3    0    0  0.51672479985E+01 -0.64418846530E+01  0.11639421229E+02  0.14271456007E+02  0.51100000000E-03 0. -1.
        -11    1    3    3    0    0  0.61480928121E+01 -0.79238164739E+01  0.22020986495E+02  0.24197308925E+02  0.51100000000E-03 0.  1.
         12    1    3    3    0    0 -0.59918318220E+01 -0.54853201102E+01  0.45655031116E+01  0.93185086766E+01  0.00000000000E+00 0. -1.
</event>
<event>
 7    1  0.2318319E-009  0.4778727E+02  0.7816164E-02  0.1312668E+00
        -11   -1    0    0    0    0  0.00000000000E+00  0.00000000000E+00  0.45593999997E+02  0.45594000000E+02  0.51100000000E-03 0.  1.
         11   -1    0    0    0    0 -0.00000000000E+00 -0.00000000000E+00 -0.45593999997E+02  0.45594000000E+02  0.51100000000E-03 0. -1.
    9900012    2    1    2    0    0 -0.10253675013E+02 -0.29824907184E+02  0.29815434161E+02  0.47787273578E+02  0.20000011549E+02 0.  0.
         12    1    1    2    0    0  0.10253675013E+02  0.29824907184E+02 -0.29815434161E+02  0.43400726422E+02  0.00000000000E+00 0. -1.
         11    1    3    3    0    0 -0.86044251445E+00 -0.34305925692E+01 -0.69620702208E+00  0.36047234534E+01  0.51100000000E-03 0. -1.
        -11    1    3    3    0    0 -0.11285171803E+01 -0.21396751511E+02  0.15959728994E+02  0.26717175676E+02  0.51100000000E-03 0.  1.
        -12    1    3    3    0    0 -0.82647153180E+01 -0.49975631030E+01  0.14551912189E+02  0.17465374448E+02  0.00000000000E+00 0.  1.
</event>
<event>
 7    1  0.2318319E-009  0.4778727E+02  0.7816164E-02  0.1312668E+00
        -11   -1    0    0    0    0  0.00000000000E+00  0.00000000000E+00  0.45593999997E+02  0.45594000000E+02  0.51100000000E-03 0.  1.
         11   -1    0    0    0    0 -0.00000000000E+00 -0.00000000000E+00 -0.45593999997E+02  0.45594000000E+02  0.51100000000E-03 0. -1.
    9900012    2    1    2    0    0  0.21439317116E+02  0.28820612110E+00  0.37734549862E+02  0.47787266891E+02  0.19999981061E+02 0.  0.
         12    1    1    2    0    0 -0.21439317116E+02 -0.28820612110E+00 -0.37734549862E+02  0.43400733109E+02  0.00000000000E+00 0. -1.
         11    1    3    3    0    0  0.47072058747E+00  0.40057547819E+01  0.10106833521E+02  0.10881899344E+02  0.51100000000E-03 0. -1.
        -11    1    3    3    0    0  0.12588755051E+02 -0.47172354353E+00  0.24208968265E+02  0.27290537216E+02  0.51100000000E-03 0.  1.
        -12    1    3    3    0    0  0.83798414777E+01 -0.32458251173E+01  0.34187480759E+01  0.96148303308E+01  0.00000000000E+00 0.  1.
</event>
<event>
 7    1  0.2318319E-009  0.4778727E+02  0.7816164E-02  0.1312668E+00
        -11   -1    0    0    0    0  0.00000000000E+00  0.00000000000E+00  0.45593999997E+02  0.45594000000E+02  0.51100000000E-03 0. -1.
         11   -1    0    0    0    0 -0.00000000000E+00 -0.00000000000E+00 -0.45593999997E+02  0.45594000000E+02  0.51100000000E-03 0.  1.
    9900012    2    1    2    0    0  0.30816366251E+02 -0.29066995712E+02 -0.94384620564E+01  0.47787271497E+02  0.20000002062E+02 0.  0.
         12    1    1    2    0    0 -0.30816366251E+02  0.29066995712E+02  0.94384620564E+01  0.43400728503E+02  0.00000000000E+00 0. -1.
         11    1    3    3    0    0  0.80404247541E+01 -0.87694183942E+01  0.52115653735E+01  0.12988900766E+02  0.51100000000E-03 0. -1.
        -11    1    3    3    0    0  0.85241918809E+01 -0.12101746346E+02 -0.44753118771E+01  0.15464233848E+02  0.51100000000E-03 0.  1.
        -12    1    3    3    0    0  0.14251749616E+02 -0.81958309719E+01 -0.10174715553E+02  0.19334136883E+02  0.00000000000E+00 0.  1.
</event>
<event>
 7    1  0.2318319E-009  0.4778727E+02  0.7816164E-02  0.1312668E+00
        -11   -1    0    0    0    0  0.00000000000E+00  0.00000000000E+00  0.45593999997E+02  0.45594000000E+02  0.51100000000E-03 0.  1.
         11   -1    0    0    0    0 -0.00000000000E+00 -0.00000000000E+00 -0.45593999997E+02  0.45594000000E+02  0.51100000000E-03 0. -1.
    9900012    2    1    2    0    0 -0.30813215719E+01 -0.70911215031E+01  0.42706493008E+02  0.47787273141E+02  0.20000009561E+02 0.  0.
         12    1    1    2    0    0  0.30813215719E+01  0.70911215031E+01 -0.42706493008E+02  0.43400726859E+02  0.00000000000E+00 0. -1.
         11    1    3    3    0    0 -0.76748405171E+01 -0.15588791670E+01  0.21252142598E+02  0.22649212933E+02  0.51100000000E-03 0.  1.
        -11    1    3    3    0    0  0.20644959128E+01  0.19043901450E+01  0.14102180158E+02  0.14379163073E+02  0.51100000000E-03 0. -1.
         12    1    3    3    0    0  0.25290230325E+01 -0.74366324811E+01  0.73521702521E+01  0.10758897136E+02  0.00000000000E+00 0. -1.
</event>
<event>
 7    1  0.2318319E-009  0.4778727E+02  0.7816164E-02  0.1312668E+00
        -11   -1    0    0    0    0  0.00000000000E+00  0.00000000000E+00  0.45593999997E+02  0.45594000000E+02  0.51100000000E-03 0.  1.
         11   -1    0    0    0    0 -0.00000000000E+00 -0.00000000000E+00 -0.45593999997E+02  0.45594000000E+02  0.51100000000E-03 0. -1.
    9900012    2    1    2    0    0 -0.23917127230E+02  0.36091215767E+02  0.30030825848E+01  0.47787270335E+02  0.19999996765E+02 0.  0.
         12    1    1    2    0    0  0.23917127230E+02 -0.36091215767E+02 -0.30030825848E+01  0.43400729665E+02  0.00000000000E+00 0. -1.
         11    1    3    3    0    0 -0.13937375313E+02  0.17040902891E+02 -0.49281360075E+01  0.22559462022E+02  0.51100000000E-03 0. -1.
        -11    1    3    3    0    0 -0.21736873991E+01  0.28032425396E+01 -0.25575933390E+01  0.43731418447E+01  0.51100000000E-03 0.  1.
        -12    1    3    3    0    0 -0.78060645169E+01  0.16247070337E+02  0.10488811931E+02  0.20854666468E+02  0.00000000000E+00 0.  1.
</event>
<event>
 7    1  0.2318319E-009  0.4778728E+02  0.7816164E-02  0.1312668E+00
        -11   -1    0    0    0    0  0.00000000000E+00  0.00000000000E+00  0.45593999997E+02  0.45594000000E+02  0.51100000000E-03 0. -1.
         11   -1    0    0    0    0 -0.00000000000E+00 -0.00000000000E+00 -0.45593999997E+02  0.45594000000E+02  0.51100000000E-03 0.  1.
    9900012    2    1    2    0    0  0.15564091285E+02 -0.35337238044E+02  0.19815676536E+02  0.47787281496E+02  0.20000047651E+02 0.  0.
         12    1    1    2    0    0 -0.15564091285E+02  0.35337238044E+02 -0.19815676536E+02  0.43400718504E+02  0.00000000000E+00 0. -1.
         11    1    3    3    0    0 -0.54060318467E-01 -0.75411051212E+01  0.89604988487E+01  0.11711606587E+02  0.51100000000E-03 0. -1.
        -11    1    3    3    0    0 -0.19878652883E+01 -0.86693401463E+00  0.17585747229E+00  0.21758007955E+01  0.51100000000E-03 0.  1.
        -12    1    3    3    0    0  0.17606016892E+02 -0.26929198908E+02  0.10679320215E+02  0.33899874113E+02  0.00000000000E+00 0.  1.
</event>
<event>
 7    1  0.2318319E-009  0.4778727E+02  0.7816164E-02  0.1312668E+00
        -11   -1    0    0    0    0  0.00000000000E+00  0.00000000000E+00  0.45593999997E+02  0.45594000000E+02  0.51100000000E-03 0.  1.
         11   -1    0    0    0    0 -0.00000000000E+00 -0.00000000000E+00 -0.45593999997E+02  0.45594000000E+02  0.51100000000E-03 0. -1.
    9900012    2    1    2    0    0 -0.17126036791E+02  0.28501920057E+02  0.27891979805E+02  0.47787272812E+02  0.20000008057E+02 0.  0.
         12    1    1    2    0    0  0.17126036791E+02 -0.28501920057E+02 -0.27891979805E+02  0.43400727188E+02  0.00000000000E+00 0. -1.
         11    1    3    3    0    0 -0.20301848185E+01  0.68767446936E+01  0.21818769042E+01  0.74947885270E+01  0.51100000000E-03 0. -1.
        -11    1    3    3    0    0 -0.18568162574E+02  0.19569875086E+02  0.21983415326E+02  0.34799816406E+02  0.51100000000E-03 0.  1.
         12    1    3    3    0    0  0.34723106018E+01  0.20553002767E+01  0.37266875743E+01  0.54926678781E+01  0.00000000000E+00 0. -1.
</event>
<event>
 7    1  0.2318319E-009  0.4778727E+02  0.7816164E-02  0.1312668E+00
        -11   -1    0    0    0    0  0.00000000000E+00  0.00000000000E+00  0.45593999997E+02  0.45594000000E+02  0.51100000000E-03 0.  1.
         11   -1    0    0    0    0 -0.00000000000E+00 -0.00000000000E+00 -0.45593999997E+02  0.45594000000E+02  0.51100000000E-03 0. -1.
    9900012    2    1    2    0    0 -0.31763518310E+02  0.11710909123E+02  0.27158004977E+02  0.47787265879E+02  0.19999976449E+02 0.  0.
         12    1    1    2    0    0  0.31763518310E+02 -0.11710909123E+02 -0.27158004977E+02  0.43400734121E+02  0.00000000000E+00 0. -1.
         11    1    3    3    0    0  0.10700352855E+01 -0.20483597524E+00 -0.11662071194E+01  0.15959237437E+01  0.51100000000E-03 0. -1.
        -11    1    3    3    0    0 -0.89305107094E+01 -0.88597733123E+00  0.10151154484E+02  0.13549351091E+02  0.51100000000E-03 0.  1.
        -12    1    3    3    0    0 -0.23903042886E+02  0.12801722429E+02  0.18173057612E+02  0.32641991044E+02  0.00000000000E+00 0.  1.
</event>
<event>
 7    1  0.2318319E-009  0.4778727E+02  0.7816164E-02  0.1312668E+00
        -11   -1    0    0    0    0  0.00000000000E+00  0.00000000000E+00  0.45593999997E+02  0.45594000000E+02  0.51100000000E-03 0.  1.
         11   -1    0    0    0    0 -0.00000000000E+00 -0.00000000000E+00 -0.45593999997E+02  0.45594000000E+02  0.51100000000E-03 0. -1.
    9900012    2    1    2    0    0 -0.35175509546E+02 -0.85245958435E+01  0.23950744617E+02  0.47787269893E+02  0.19999994752E+02 0.  0.
         12    1    1    2    0    0  0.35175509546E+02  0.85245958435E+01 -0.23950744617E+02  0.43400730107E+02  0.00000000000E+00 0. -1.
         11    1    3    3    0    0 -0.98020736141E+01 -0.69901399815E+01  0.85480389779E+00  0.12069523357E+02  0.51100000000E-03 0. -1.
        -11    1    3    3    0    0 -0.50695330868E+01 -0.38058578878E+01  0.28348007711E+01  0.69441209417E+01  0.51100000000E-03 0.  1.
        -12    1    3    3    0    0 -0.20303902845E+02  0.22714020257E+01  0.20261139948E+02  0.28773625595E+02  0.00000000000E+00 0.  1.
</event>
<event>
 7    1  0.2318319E-009  0.4778728E+02  0.7816164E-02  0.1312668E+00
        -11   -1    0    0    0    0  0.00000000000E+00  0.00000000000E+00  0.45593999997E+02  0.45594000000E+02  0.51100000000E-03 0.  1.
         11   -1    0    0    0    0 -0.00000000000E+00 -0.00000000000E+00 -0.45593999997E+02  0.45594000000E+02  0.51100000000E-03 0. -1.
    9900012    2    1    2    0    0 -0.37829005788E+02  0.14939306530E+02  0.15146143296E+02  0.47787283240E+02  0.20000055606E+02 0.  0.
         12    1    1    2    0    0  0.37829005788E+02 -0.14939306530E+02 -0.15146143296E+02  0.43400716760E+02  0.00000000000E+00 0. -1.
         11    1    3    3    0    0 -0.25305374145E+02  0.13070937132E+02  0.11803198890E+02  0.30830615667E+02  0.51100000000E-03 0.  1.
        -11    1    3    3    0    0 -0.10284285509E+02  0.30704336173E+01  0.67702783619E+01  0.12689789612E+02  0.51100000000E-03 0. -1.
         12    1    3    3    0    0 -0.22393461341E+01 -0.12020642193E+01 -0.34273339557E+01  0.42668779617E+01  0.00000000000E+00 0. -1.
</event>
<event>
 7    1  0.2318319E-009  0.4778727E+02  0.7816164E-02  0.1312668E+00
        -11   -1    0    0    0    0  0.00000000000E+00  0.00000000000E+00  0.45593999997E+02  0.45594000000E+02  0.51100000000E-03 0.  1.
         11   -1    0    0    0    0 -0.00000000000E+00 -0.00000000000E+00 -0.45593999997E+02  0.45594000000E+02  0.51100000000E-03 0. -1.
    9900012    2    1    2    0    0  0.37647208761E+02  0.21322489471E+02  0.34150082156E+01  0.47787272289E+02  0.20000005674E+02 0.  0.
         12    1    1    2    0    0 -0.37647208761E+02 -0.21322489471E+02 -0.34150082156E+01  0.43400727711E+02  0.00000000000E+00 0. -1.
         11    1    3    3    0    0  0.10465519464E+02  0.24347237820E+01  0.24478990207E+01  0.11020307955E+02  0.51100000000E-03 0. -1.
        -11    1    3    3    0    0  0.29270808220E+02  0.17751846708E+02  0.92539353178E-01  0.34233270940E+02  0.51100000000E-03 0.  1.
         12    1    3    3    0    0 -0.20891189235E+01  0.11359189809E+01  0.87456984174E+00  0.25336933942E+01  0.00000000000E+00 0. -1.
</event>
<event>
 7    1  0.2318319E-009  0.4778727E+02  0.7816164E-02  0.1312668E+00
        -11   -1    0    0    0    0  0.00000000000E+00  0.00000000000E+00  0.45593999997E+02  0.45594000000E+02  0.51100000000E-03 0. -1.
         11   -1    0    0    0    0 -0.00000000000E+00 -0.00000000000E+00 -0.45593999997E+02  0.45594000000E+02  0.51100000000E-03 0.  1.
    9900012    2    1    2    0    0  0.20866430846E+01 -0.32621733541E+02 -0.28549806665E+02  0.47787273748E+02  0.20000012326E+02 0.  0.
         12    1    1    2    0    0 -0.20866430846E+01  0.32621733541E+02  0.28549806665E+02  0.43400726252E+02  0.00000000000E+00 0. -1.
         11    1    3    3    0    0  0.17806247710E+01 -0.88560133878E+01 -0.41070370568E+01  0.99230716689E+01  0.51100000000E-03 0.  1.
        -11    1    3    3    0    0  0.78011498980E+01 -0.15677070914E+02 -0.17905747718E+02  0.25044845653E+02  0.51100000000E-03 0. -1.
         12    1    3    3    0    0 -0.74951315844E+01 -0.80886492396E+01 -0.65370218899E+01  0.12819356426E+02  0.00000000000E+00 0. -1.
</event>
<event>
 7    1  0.2318319E-009  0.4778727E+02  0.7816164E-02  0.1312668E+00
        -11   -1    0    0    0    0  0.00000000000E+00  0.00000000000E+00  0.45593999997E+02  0.45594000000E+02  0.51100000000E-03 0.  1.
         11   -1    0    0    0    0 -0.00000000000E+00 -0.00000000000E+00 -0.45593999997E+02  0.45594000000E+02  0.51100000000E-03 0. -1.
    9900012    2    1    2    0    0  0.24818908350E+02 -0.17560786977E+02  0.30971982965E+02  0.47787272129E+02  0.20000004946E+02 0.  0.
         12    1    1    2    0    0 -0.24818908350E+02  0.17560786977E+02 -0.30971982965E+02  0.43400727871E+02  0.00000000000E+00 0. -1.
         11    1    3    3    0    0  0.42185515756E+00 -0.47950679291E+00 -0.17108559403E+01  0.18261754702E+01  0.51100000000E-03 0. -1.
        -11    1    3    3    0    0 -0.32994614338E+00 -0.32116877627E+01  0.69916450425E+01  0.77010975454E+01  0.51100000000E-03 0.  1.
        -12    1    3    3    0    0  0.24726999335E+02 -0.13869592421E+02  0.25691193863E+02  0.38259999114E+02  0.00000000000E+00 0.  1.
</event>
<event>
 7    1  0.2318319E-009  0.4778727E+02  0.7816164E-02  0.1312668E+00
        -11   -1    0    0    0    0  0.00000000000E+00  0.00000000000E+00  0.45593999997E+02  0.45594000000E+02  0.51100000000E-03 0.  1.
         11   -1    0    0    0    0 -0.00000000000E+00 -0.00000000000E+00 -0.45593999997E+02  0.45594000000E+02  0.51100000000E-03 0. -1.
    9900012    2    1    2    0    0 -0.69595917592E+01  0.15286359236E+02  0.40018932554E+02  0.47787266609E+02  0.19999979776E+02 0.  0.
         12    1    1    2    0    0  0.69595917592E+01 -0.15286359236E+02 -0.40018932554E+02  0.43400733391E+02  0.00000000000E+00 0. -1.
         11    1    3    3    0    0 -0.19849675014E+00 -0.24980853704E+01  0.50915506751E+01  0.56748321575E+01  0.51100000000E-03 0. -1.
        -11    1    3    3    0    0  0.17856893903E+01  0.83802016523E+01  0.58371258850E+01  0.10367666333E+02  0.51100000000E-03 0.  1.
        -12    1    3    3    0    0 -0.85467843993E+01  0.94042429543E+01  0.29090255994E+02  0.31744768118E+02  0.00000000000E+00 0.  1.
</event>
<event>
 7    1  0.2318319E-009  0.4778727E+02  0.7816164E-02  0.1312668E+00
        -11   -1    0    0    0    0  0.00000000000E+00  0.00000000000E+00  0.45593999997E+02  0.45594000000E+02  0.51100000000E-03 0. -1.
         11   -1    0    0    0    0 -0.00000000000E+00 -0.00000000000E+00 -0.45593999997E+02  0.45594000000E+02  0.51100000000E-03 0.  1.
    9900012    2    1    2    0    0 -0.31734217675E+02  0.18409372281E+02  0.23187452077E+02  0.47787268519E+02  0.19999988486E+02 0.  0.
         12    1    1    2    0    0  0.31734217675E+02 -0.18409372281E+02 -0.23187452077E+02  0.43400731481E+02  0.00000000000E+00 0. -1.
         11    1    3    3    0    0 -0.18986745945E+02  0.13633586245E+02  0.10307181557E+02  0.25546216694E+02  0.51100000000E-03 0. -1.
        -11    1    3    3    0    0 -0.66151235270E+00  0.27892490428E+01  0.89188748142E+01  0.93682355343E+01  0.51100000000E-03 0.  1.
         12    1    3    3    0    0 -0.12085959378E+02  0.19865369931E+01  0.39613957062E+01  0.12872816290E+02  0.00000000000E+00 0. -1.
</event>
<event>
 7    1  0.2318319E-009  0.4778727E+02  0.7816164E-02  0.1312668E+00
        -11   -1    0    0    0    0  0.00000000000E+00  0.00000000000E+00  0.45593999997E+02  0.45594000000E+02  0.51100000000E-03 0. -1.
         11   -1    0    0    0    0 -0.00000000000E+00 -0.00000000000E+00 -0.45593999997E+02  0.45594000000E+02  0.51100000000E-03 0.  1.
    9900012    2    1    2    0    0  0.37260315472E+02  0.22160373199E+02 -0.20518302763E+01  0.47787271240E+02  0.20000000892E+02 0.  0.
         12    1    1    2    0    0 -0.37260315472E+02 -0.22160373199E+02  0.20518302763E+01  0.43400728760E+02  0.00000000000E+00 0. -1.
         11    1    3    3    0    0  0.12870894947E+02  0.48255773204E+01  0.18914197762E+01  0.13875287465E+02  0.51100000000E-03 0. -1.
        -11    1    3    3    0    0  0.24612990228E+02  0.14671581711E+02  0.57802227543E+00  0.28659879760E+02  0.51100000000E-03 0.  1.
         12    1    3    3    0    0 -0.22356970301E+00  0.26632141686E+01 -0.45212723280E+01  0.52521040149E+01  0.00000000000E+00 0. -1.
</event>
<event>
 7    1  0.2318319E-009  0.4778727E+02  0.7816164E-02  0.1312668E+00
        -11   -1    0    0    0    0  0.00000000000E+00  0.00000000000E+00  0.45593999997E+02  0.45594000000E+02  0.51100000000E-03 0.  1.
         11   -1    0    0    0    0 -0.00000000000E+00 -0.00000000000E+00 -0.45593999997E+02  0.45594000000E+02  0.51100000000E-03 0. -1.
    9900012    2    1    2    0    0  0.17457615462E+02 -0.20246491905E+02  0.34189687111E+02  0.47787268706E+02  0.19999989339E+02 0.  0.
         12    1    1    2    0    0 -0.17457615462E+02  0.20246491905E+02 -0.34189687111E+02  0.43400731294E+02  0.00000000000E+00 0. -1.
         11    1    3    3    0    0  0.11237823343E+02 -0.38539884364E+01  0.17186973890E+02  0.20893395418E+02  0.51100000000E-03 0. -1.
        -11    1    3    3    0    0  0.86492314113E+01 -0.74867001510E+01  0.11082314709E+02  0.15927259109E+02  0.51100000000E-03 0.  1.
         12    1    3    3    0    0 -0.24294392920E+01 -0.89058033175E+01  0.59203985118E+01  0.10966614179E+02  0.00000000000E+00 0. -1.
</event>
<event>
 7    1  0.2318319E-009  0.4778727E+02  0.7816164E-02  0.1312668E+00
        -11   -1    0    0    0    0  0.00000000000E+00  0.00000000000E+00  0.45593999997E+02  0.45594000000E+02  0.51100000000E-03 0.  1.
         11   -1    0    0    0    0 -0.00000000000E+00 -0.00000000000E+00 -0.45593999997E+02  0.45594000000E+02  0.51100000000E-03 0. -1.
    9900012    2    1    2    0    0  0.40790889328E+02 -0.21874596988E+01  0.14660902785E+02  0.47787266105E+02  0.19999977481E+02 0.  0.
         12    1    1    2    0    0 -0.40790889328E+02  0.21874596988E+01 -0.14660902785E+02  0.43400733895E+02  0.00000000000E+00 0. -1.
         11    1    3    3    0    0  0.77446927629E+01  0.22840185512E+01  0.68540934506E+00  0.81035049803E+01  0.51100000000E-03 0. -1.
        -11    1    3    3    0    0  0.14038208436E+01  0.25351962712E+01 -0.20298993567E+01  0.35381386001E+01  0.51100000000E-03 0.  1.
        -12    1    3    3    0    0  0.31642375722E+02 -0.70066745211E+01  0.16005392796E+02  0.36145622525E+02  0.00000000000E+00 0.  1.
</event>
<event>
 7    1  0.2318319E-009  0.4778727E+02  0.7816164E-02  0.1312668E+00
        -11   -1    0    0    0    0  0.00000000000E+00  0.00000000000E+00  0.45593999997E+02  0.45594000000E+02  0.51100000000E-03 0. -1.
         11   -1    0    0    0    0 -0.00000000000E+00 -0.00000000000E+00 -0.45593999997E+02  0.45594000000E+02  0.51100000000E-03 0.  1.
    9900012    2    1    2    0    0  0.14163686519E+02 -0.14809299023E+01 -0.40997809642E+02  0.47787267695E+02  0.19999984727E+02 0.  0.
         12    1    1    2    0    0 -0.14163686519E+02  0.14809299023E+01  0.40997809642E+02  0.43400732305E+02  0.00000000000E+00 0. -1.
         11    1    3    3    0    0  0.15131904457E+01 -0.48244714695E+01 -0.41505372667E+01  0.65415770383E+01  0.51100000000E-03 0. -1.
        -11    1    3    3    0    0 -0.27829992378E+01  0.46061618672E+00 -0.50938573797E+01  0.58227686966E+01  0.51100000000E-03 0.  1.
        -12    1    3    3    0    0  0.15433495311E+02  0.28829253805E+01 -0.31753414996E+02  0.35422921960E+02  0.00000000000E+00 0.  1.
</event>
<event>
 7    1  0.2318319E-009  0.4778727E+02  0.7816164E-02  0.1312668E+00
        -11   -1    0    0    0    0  0.00000000000E+00  0.00000000000E+00  0.45593999997E+02  0.45594000000E+02  0.51100000000E-03 0.  1.
         11   -1    0    0    0    0 -0.00000000000E+00 -0.00000000000E+00 -0.45593999997E+02  0.45594000000E+02  0.51100000000E-03 0. -1.
    9900012    2    1    2    0    0  0.18849758668E+02 -0.15743532437E+02  0.35783389279E+02  0.47787272314E+02  0.20000005787E+02 0.  0.
         12    1    1    2    0    0 -0.18849758668E+02  0.15743532437E+02 -0.35783389279E+02  0.43400727686E+02  0.00000000000E+00 0. -1.
         11    1    3    3    0    0 -0.11886797798E+01  0.85972572810E+00  0.11618080395E+01  0.18713327145E+01  0.51100000000E-03 0. -1.
        -11    1    3    3    0    0  0.11742357296E+02 -0.12140377847E+02  0.31924550864E+02  0.36117152120E+02  0.51100000000E-03 0.  1.
        -12    1    3    3    0    0  0.82960811522E+01 -0.44628803180E+01  0.26970303751E+01  0.97987874791E+01  0.00000000000E+00 0.  1.
</event>
<event>
 7    1  0.2318319E-009  0.4778727E+02  0.7816164E-02  0.1312668E+00
        -11   -1    0    0    0    0  0.00000000000E+00  0.00000000000E+00  0.45593999997E+02  0.45594000000E+02  0.51100000000E-03 0.  1.
         11   -1    0    0    0    0 -0.00000000000E+00 -0.00000000000E+00 -0.45593999997E+02  0.45594000000E+02  0.51100000000E-03 0. -1.
    9900012    2    1    2    0    0  0.33292192145E+01  0.36582900284E+02  0.23113437352E+02  0.47787270974E+02  0.19999999680E+02 0.  0.
         12    1    1    2    0    0 -0.33292192145E+01 -0.36582900284E+02 -0.23113437352E+02  0.43400729026E+02  0.00000000000E+00 0. -1.
         11    1    3    3    0    0  0.11355784600E+01  0.11881162635E+02  0.38729318377E+00  0.11941589521E+02  0.51100000000E-03 0.  1.
        -11    1    3    3    0    0  0.33030397510E+01  0.32861392457E+00  0.28935051730E+01  0.44034567280E+01  0.51100000000E-03 0. -1.
         12    1    3    3    0    0 -0.11093989965E+01  0.24373123724E+02  0.19832638995E+02  0.31442224726E+02  0.00000000000E+00 0. -1.
</event>
<event>
 7    1  0.2318319E-009  0.4778733E+02  0.7816164E-02  0.1312667E+00
        -11   -1    0    0    0    0  0.00000000000E+00  0.00000000000E+00  0.45593999997E+02  0.45594000000E+02  0.51100000000E-03 0.  1.
         11   -1    0    0    0    0 -0.00000000000E+00 -0.00000000000E+00 -0.45593999997E+02  0.45594000000E+02  0.51100000000E-03 0. -1.
    9900012    2    1    2    0    0 -0.42085998309E+01  0.41638598795E+02  0.11494900518E+02  0.47787332263E+02  0.20000279117E+02 0.  0.
         12    1    1    2    0    0  0.42085998309E+01 -0.41638598795E+02 -0.11494900518E+02  0.43400667737E+02  0.00000000000E+00 0. -1.
         11    1    3    3    0    0  0.63688073617E-01  0.17452540924E+02 -0.10335660985E+00  0.17452963179E+02  0.51100000000E-03 0. -1.
        -11    1    3    3    0    0  0.22534571558E+01  0.18244862928E+02  0.42934252925E+01  0.18878204190E+02  0.51100000000E-03 0.  1.
         12    1    3    3    0    0 -0.65257450603E+01  0.59411949422E+01  0.73048318356E+01  0.11456164894E+02  0.00000000000E+00 0. -1.
</event>
<event>
 7    1  0.2318319E-009  0.4778728E+02  0.7816164E-02  0.1312668E+00
        -11   -1    0    0    0    0  0.00000000000E+00  0.00000000000E+00  0.45593999997E+02  0.45594000000E+02  0.51100000000E-03 0.  1.
         11   -1    0    0    0    0 -0.00000000000E+00 -0.00000000000E+00 -0.45593999997E+02  0.45594000000E+02  0.51100000000E-03 0. -1.
    9900012    2    1    2    0    0 -0.27795115288E+02 -0.33330510799E+02 -0.36242611013E+00  0.47787277233E+02  0.20000028216E+02 0.  0.
         12    1    1    2    0    0  0.27795115288E+02  0.33330510799E+02  0.36242611013E+00  0.43400722767E+02  0.00000000000E+00 0. -1.
         11    1    3    3    0    0 -0.54947248060E+01 -0.81570241090E+01  0.45539759440E+01  0.10838253557E+02  0.51100000000E-03 0. -1.
        -11    1    3    3    0    0 -0.20466455306E+02 -0.25202768838E+02 -0.83785208564E+00  0.32477027978E+02  0.51100000000E-03 0.  1.
         12    1    3    3    0    0 -0.18339351760E+01  0.29282147986E-01 -0.40785499685E+01  0.44719956977E+01  0.00000000000E+00 0. -1.
</event>
<event>
 7    1  0.2318319E-009  0.4778727E+02  0.7816164E-02  0.1312668E+00
        -11   -1    0    0    0    0  0.00000000000E+00  0.00000000000E+00  0.45593999997E+02  0.45594000000E+02  0.51100000000E-03 0.  1.
         11   -1    0    0    0    0 -0.00000000000E+00 -0.00000000000E+00 -0.45593999997E+02  0.45594000000E+02  0.51100000000E-03 0. -1.
    9900012    2    1    2    0    0 -0.31972816810E+02 -0.72456997046E+01  0.28440506410E+02  0.47787267474E+02  0.19999983720E+02 0.  0.
         12    1    1    2    0    0  0.31972816810E+02  0.72456997046E+01 -0.28440506410E+02  0.43400732526E+02  0.00000000000E+00 0. -1.
         11    1    3    3    0    0  0.72598075152E+00  0.78803833668E+00  0.31401810856E+00  0.11165393434E+01  0.51100000000E-03 0. -1.
        -11    1    3    3    0    0 -0.10337946983E+02 -0.22342978416E+01  0.19170730981E+02  0.21894797585E+02  0.51100000000E-03 0.  1.
         12    1    3    3    0    0 -0.22360850578E+02 -0.57994401997E+01  0.89557573197E+01  0.24775930545E+02  0.00000000000E+00 0. -1.
</event>
<event>
 7    1  0.2318319E-009  0.4778727E+02  0.7816164E-02  0.1312668E+00
        -11   -1    0    0    0    0  0.00000000000E+00  0.00000000000E+00  0.45593999997E+02  0.45594000000E+02  0.51100000000E-03 0.  1.
         11   -1    0    0    0    0 -0.00000000000E+00 -0.00000000000E+00 -0.45593999997E+02  0.45594000000E+02  0.51100000000E-03 0. -1.
    9900012    2    1    2    0    0 -0.21482486162E+02 -0.30987429758E+02  0.21491974539E+02  0.47787274381E+02  0.20000015213E+02 0.  0.
         12    1    1    2    0    0  0.21482486162E+02  0.30987429758E+02 -0.21491974539E+02  0.43400725619E+02  0.00000000000E+00 0. -1.
         11    1    3    3    0    0  0.83262841733E+00 -0.64254690617E+00  0.14012739925E-01  0.10518237618E+01  0.51100000000E-03 0. -1.
        -11    1    3    3    0    0 -0.17170387705E+02 -0.21625716322E+02  0.23678359944E+02  0.36375246395E+02  0.51100000000E-03 0.  1.
         12    1    3    3    0    0 -0.51447268739E+01 -0.87191665292E+01 -0.22003981449E+01  0.10360204224E+02  0.00000000000E+00 0. -1.
</event>
<event>
 7    1  0.2318319E-009  0.4778727E+02  0.7816164E-02  0.1312668E+00
        -11   -1    0    0    0    0  0.00000000000E+00  0.00000000000E+00  0.45593999997E+02  0.45594000000E+02  0.51100000000E-03 0. -1.
         11   -1    0    0    0    0 -0.00000000000E+00 -0.00000000000E+00 -0.45593999997E+02  0.45594000000E+02  0.51100000000E-03 0.  1.
    9900012    2    1    2    0    0 -0.38044006203E+02 -0.17533484016E+02  0.11351376632E+02  0.47787271652E+02  0.20000002769E+02 0.  0.
         12    1    1    2    0    0  0.38044006203E+02  0.17533484016E+02 -0.11351376632E+02  0.43400728348E+02  0.00000000000E+00 0. -1.
         11    1    3    3    0    0 -0.24880983500E+02 -0.60711582633E+01  0.87509238438E+01  0.27064755144E+02  0.51100000000E-03 0. -1.
        -11    1    3    3    0    0 -0.79628311322E+01  0.87233662180E-02  0.11140348636E+01  0.80403874083E+01  0.51100000000E-03 0.  1.
         12    1    3    3    0    0 -0.52001915706E+01 -0.11471049119E+02  0.14864179246E+01  0.12682129100E+02  0.00000000000E+00 0. -1.
</event>
<event>
 7    1  0.2318319E-009  0.4778727E+02  0.7816164E-02  0.1312668E+00
        -11   -1    0    0    0    0  0.00000000000E+00  0.00000000000E+00  0.45593999997E+02  0.45594000000E+02  0.51100000000E-03 0.  1.
         11   -1    0    0    0    0 -0.00000000000E+00 -0.00000000000E+00 -0.45593999997E+02  0.45594000000E+02  0.51100000000E-03 0. -1.
    9900012    2    1    2    0    0 -0.23122276833E+00  0.19227859249E+02  0.38908347427E+02  0.47787268039E+02  0.19999986296E+02 0.  0.
         12    1    1    2    0    0  0.23122276833E+00 -0.19227859249E+02 -0.38908347427E+02  0.43400731961E+02  0.00000000000E+00 0. -1.
         11    1    3    3    0    0  0.40806002444E+01  0.40314478652E+01  0.12552069635E+02  0.13800663847E+02  0.51100000000E-03 0. -1.
        -11    1    3    3    0    0  0.41142810831E+01  0.80990213181E+01  0.17988665006E+02  0.20152258536E+02  0.51100000000E-03 0.  1.
         12    1    3    3    0    0 -0.84261040957E+01  0.70973900662E+01  0.83676127860E+01  0.13834345656E+02  0.00000000000E+00 0. -1.
</event>
<event>
 7    1  0.2318319E-009  0.4778727E+02  0.7816164E-02  0.1312668E+00
        -11   -1    0    0    0    0  0.00000000000E+00  0.00000000000E+00  0.45593999997E+02  0.45594000000E+02  0.51100000000E-03 0.  1.
         11   -1    0    0    0    0 -0.00000000000E+00 -0.00000000000E+00 -0.45593999997E+02  0.45594000000E+02  0.51100000000E-03 0. -1.
    9900012    2    1    2    0    0 -0.11496590481E+02 -0.10974603695E+02  0.40385765541E+02  0.47787267550E+02  0.19999984066E+02 0.  0.
         12    1    1    2    0    0  0.11496590481E+02  0.10974603695E+02 -0.40385765541E+02  0.43400732450E+02  0.00000000000E+00 0. -1.
         11    1    3    3    0    0  0.15122676605E+01 -0.27526521023E+01  0.14797418715E+01  0.34718414914E+01  0.51100000000E-03 0. -1.
        -11    1    3    3    0    0 -0.26988615013E+01  0.32839785639E+01  0.29306996653E+01  0.51630775125E+01  0.51100000000E-03 0.  1.
        -12    1    3    3    0    0 -0.10309996640E+02 -0.11505930156E+02  0.35975324004E+02  0.39152348546E+02  0.00000000000E+00 0.  1.
</event>
<event>
 7    1  0.2318319E-009  0.4778727E+02  0.7816164E-02  0.1312668E+00
        -11   -1    0    0    0    0  0.00000000000E+00  0.00000000000E+00  0.45593999997E+02  0.45594000000E+02  0.51100000000E-03 0.  1.
         11   -1    0    0    0    0 -0.00000000000E+00 -0.00000000000E+00 -0.45593999997E+02  0.45594000000E+02  0.51100000000E-03 0. -1.
    9900012    2    1    2    0    0  0.32091256999E+02  0.25490211985E+02  0.14283692460E+02  0.47787267827E+02  0.19999985332E+02 0.  0.
         12    1    1    2    0    0 -0.32091256999E+02 -0.25490211985E+02 -0.14283692460E+02  0.43400732173E+02  0.00000000000E+00 0. -1.
         11    1    3    3    0    0  0.13551478428E+01  0.13277402067E+01  0.58798252909E+01  0.61783222193E+01  0.51100000000E-03 0. -1.
        -11    1    3    3    0    0  0.32067090346E+01  0.43607273311E+00 -0.20022531397E+01  0.38055433459E+01  0.51100000000E-03 0.  1.
        -12    1    3    3    0    0  0.27529400121E+02  0.23726399046E+02  0.10406120309E+02  0.37803402262E+02  0.00000000000E+00 0.  1.
</event>
<event>
 7    1  0.2318319E-009  0.4778727E+02  0.7816164E-02  0.1312668E+00
        -11   -1    0    0    0    0  0.00000000000E+00  0.00000000000E+00  0.45593999997E+02  0.45594000000E+02  0.51100000000E-03 0.  1.
         11   -1    0    0    0    0 -0.00000000000E+00 -0.00000000000E+00 -0.45593999997E+02  0.45594000000E+02  0.51100000000E-03 0. -1.
    9900012    2    1    2    0    0  0.34082521220E+02 -0.26814657960E+02 -0.17260005590E+01  0.47787271756E+02  0.20000003243E+02 0.  0.
         12    1    1    2    0    0 -0.34082521220E+02  0.26814657960E+02  0.17260005590E+01  0.43400728244E+02  0.00000000000E+00 0. -1.
         11    1    3    3    0    0  0.11529639810E+02 -0.91508454155E+01  0.26183109795E+01  0.14950789899E+02  0.51100000000E-03 0. -1.
        -11    1    3    3    0    0  0.12963512915E+02 -0.10256741382E+02  0.52899521136E+01  0.17356180585E+02  0.51100000000E-03 0.  1.
        -12    1    3    3    0    0  0.95893684949E+01 -0.74070711624E+01 -0.96342636522E+01  0.15480301271E+02  0.00000000000E+00 0.  1.
</event>
<event>
 7    1  0.2318319E-009  0.4778727E+02  0.7816164E-02  0.1312668E+00
        -11   -1    0    0    0    0  0.00000000000E+00  0.00000000000E+00  0.45593999997E+02  0.45594000000E+02  0.51100000000E-03 0. -1.
         11   -1    0    0    0    0 -0.00000000000E+00 -0.00000000000E+00 -0.45593999997E+02  0.45594000000E+02  0.51100000000E-03 0.  1.
    9900012    2    1    2    0    0  0.39136978118E+02  0.13308437584E+02 -0.13221417495E+02  0.47787269042E+02  0.19999990869E+02 0.  0.
         12    1    1    2    0    0 -0.39136978118E+02 -0.13308437584E+02  0.13221417495E+02  0.43400730958E+02  0.00000000000E+00 0. -1.
         11    1    3    3    0    0  0.16123699976E+02  0.38139248789E+01 -0.10189740243E+02  0.19451234675E+02  0.51100000000E-03 0. -1.
        -11    1    3    3    0    0  0.11027580426E+02 -0.69036512878E+00  0.30662424930E+01  0.11466733509E+02  0.51100000000E-03 0.  1.
         12    1    3    3    0    0  0.11985697715E+02  0.10184877834E+02 -0.60979197451E+01  0.16869300858E+02  0.00000000000E+00 0. -1.
</event>
<event>
 7    1  0.2318319E-009  0.4778731E+02  0.7816164E-02  0.1312668E+00
        -11   -1    0    0    0    0  0.00000000000E+00  0.00000000000E+00  0.45593999997E+02  0.45594000000E+02  0.51100000000E-03 0.  1.
         11   -1    0    0    0    0 -0.00000000000E+00 -0.00000000000E+00 -0.45593999997E+02  0.45594000000E+02  0.51100000000E-03 0. -1.
    9900012    2    1    2    0    0  0.25351898112E+02  0.21792478758E+02  0.27676501526E+02  0.47787313311E+02  0.20000192711E+02 0.  0.
         12    1    1    2    0    0 -0.25351898112E+02 -0.21792478758E+02 -0.27676501526E+02  0.43400686689E+02  0.00000000000E+00 0. -1.
         11    1    3    3    0    0  0.22906379603E+00  0.49243580335E+01  0.16689591818E+01  0.52045362210E+01  0.51100000000E-03 0. -1.
        -11    1    3    3    0    0  0.81216036048E+01  0.13440855833E+02  0.16604620477E+02  0.22854550359E+02  0.51100000000E-03 0.  1.
        -12    1    3    3    0    0  0.17001230711E+02  0.34272648911E+01  0.94029218674E+01  0.19728226732E+02  0.00000000000E+00 0.  1.
</event>
<event>
 7    1  0.2318319E-009  0.4778726E+02  0.7816164E-02  0.1312668E+00
        -11   -1    0    0    0    0  0.00000000000E+00  0.00000000000E+00  0.45593999997E+02  0.45594000000E+02  0.51100000000E-03 0.  1.
         11   -1    0    0    0    0 -0.00000000000E+00 -0.00000000000E+00 -0.45593999997E+02  0.45594000000E+02  0.51100000000E-03 0. -1.
    9900012    2    1    2    0    0 -0.63666394147E+01 -0.33130659364E+02  0.27302922796E+02  0.47787259447E+02  0.19999947123E+02 0.  0.
         12    1    1    2    0    0  0.63666394147E+01  0.33130659364E+02 -0.27302922796E+02  0.43400740553E+02  0.00000000000E+00 0. -1.
         11    1    3    3    0    0 -0.52428875787E+01 -0.38401523097E+01  0.13483711152E+02  0.14968136377E+02  0.51100000000E-03 0.  1.
        -11    1    3    3    0    0 -0.17260433232E+01 -0.38327107854E+01  0.10527965758E+01  0.43332757135E+01  0.51100000000E-03 0. -1.
        -12    1    3    3    0    0  0.60229148716E+00 -0.25457796269E+02  0.12766415069E+02  0.28485847356E+02  0.00000000000E+00 0.  1.
</event>
<event>
 7    1  0.2318319E-009  0.4778727E+02  0.7816164E-02  0.1312668E+00
        -11   -1    0    0    0    0  0.00000000000E+00  0.00000000000E+00  0.45593999997E+02  0.45594000000E+02  0.51100000000E-03 0.  1.
         11   -1    0    0    0    0 -0.00000000000E+00 -0.00000000000E+00 -0.45593999997E+02  0.45594000000E+02  0.51100000000E-03 0. -1.
    9900012    2    1    2    0    0  0.12218657081E+02  0.38374774481E+02  0.16177292356E+02  0.47787266305E+02  0.19999978389E+02 0.  0.
         12    1    1    2    0    0 -0.12218657081E+02 -0.38374774481E+02 -0.16177292356E+02  0.43400733695E+02  0.00000000000E+00 0. -1.
         11    1    3    3    0    0  0.22418132363E+01  0.18750303932E+02  0.42139910624E+01  0.19348316337E+02  0.51100000000E-03 0. -1.
        -11    1    3    3    0    0  0.11637839908E+01  0.13326566949E+02  0.16433751964E+01  0.13477850797E+02  0.51100000000E-03 0.  1.
        -12    1    3    3    0    0  0.88130598537E+01  0.62979036001E+01  0.10319926097E+02  0.14961099170E+02  0.00000000000E+00 0.  1.
</event>
<event>
 7    1  0.2318319E-009  0.4778727E+02  0.7816164E-02  0.1312668E+00
        -11   -1    0    0    0    0  0.00000000000E+00  0.00000000000E+00  0.45593999997E+02  0.45594000000E+02  0.51100000000E-03 0.  1.
         11   -1    0    0    0    0 -0.00000000000E+00 -0.00000000000E+00 -0.45593999997E+02  0.45594000000E+02  0.51100000000E-03 0. -1.
    9900012    2    1    2    0    0  0.31460691301E+01 -0.14488414851E+02  0.40789846359E+02  0.47787268649E+02  0.19999989077E+02 0.  0.
         12    1    1    2    0    0 -0.31460691301E+01  0.14488414851E+02 -0.40789846359E+02  0.43400731351E+02  0.00000000000E+00 0. -1.
         11    1    3    3    0    0 -0.14056230638E+01 -0.75504223279E+01  0.50914257130E+01  0.92145140718E+01  0.51100000000E-03 0. -1.
        -11    1    3    3    0    0 -0.32319939290E+01 -0.26235059841E+01  0.45012546251E+01  0.61310571574E+01  0.51100000000E-03 0.  1.
         12    1    3    3    0    0  0.77836861229E+01 -0.43144865393E+01  0.31197166020E+02  0.32441697420E+02  0.00000000000E+00 0. -1.
</event>
<event>
 7    1  0.2318319E-009  0.4778727E+02  0.7816164E-02  0.1312668E+00
        -11   -1    0    0    0    0  0.00000000000E+00  0.00000000000E+00  0.45593999997E+02  0.45594000000E+02  0.51100000000E-03 0. -1.
         11   -1    0    0    0    0 -0.00000000000E+00 -0.00000000000E+00 -0.45593999997E+02  0.45594000000E+02  0.51100000000E-03 0.  1.
    9900012    2    1    2    0    0 -0.26700150659E+02  0.32376934880E+02 -0.11066127122E+02  0.47787272738E+02  0.20000007722E+02 0.  0.
         12    1    1    2    0    0  0.26700150659E+02 -0.32376934880E+02  0.11066127122E+02  0.43400727262E+02  0.00000000000E+00 0. -1.
         11    1    3    3    0    0 -0.67870034007E+00  0.77601308918E+00  0.13391858965E+01  0.16900442576E+01  0.51100000000E-03 0. -1.
        -11    1    3    3    0    0 -0.21306699419E+02  0.16899366630E+02 -0.15793108810E+01  0.27240746241E+02  0.51100000000E-03 0.  1.
        -12    1    3    3    0    0 -0.47147508996E+01  0.14701555160E+02 -0.10826002137E+02  0.18856482240E+02  0.00000000000E+00 0.  1.
</event>
<event>
 7    1  0.2318319E-009  0.4778727E+02  0.7816164E-02  0.1312668E+00
        -11   -1    0    0    0    0  0.00000000000E+00  0.00000000000E+00  0.45593999997E+02  0.45594000000E+02  0.51100000000E-03 0. -1.
         11   -1    0    0    0    0 -0.00000000000E+00 -0.00000000000E+00 -0.45593999997E+02  0.45594000000E+02  0.51100000000E-03 0.  1.
    9900012    2    1    2    0    0  0.24262046226E+02  0.24143265487E+02 -0.26684814310E+02  0.47787268782E+02  0.19999989685E+02 0.  0.
         12    1    1    2    0    0 -0.24262046226E+02 -0.24143265487E+02  0.26684814310E+02  0.43400731218E+02  0.00000000000E+00 0. -1.
         11    1    3    3    0    0  0.85885265179E+01  0.84924272242E+01 -0.12536936249E+02  0.17408586349E+02  0.51100000000E-03 0. -1.
        -11    1    3    3    0    0 -0.18495262126E+01  0.61364389467E+00 -0.53070482187E+01  0.56535004287E+01  0.51100000000E-03 0.  1.
         12    1    3    3    0    0  0.17523045921E+02  0.15037194368E+02 -0.88408298422E+01  0.24725182004E+02  0.00000000000E+00 0. -1.
</event>
<event>
 7    1  0.2318319E-009  0.4778727E+02  0.7816164E-02  0.1312668E+00
        -11   -1    0    0    0    0  0.00000000000E+00  0.00000000000E+00  0.45593999997E+02  0.45594000000E+02  0.51100000000E-03 0.  1.
         11   -1    0    0    0    0 -0.00000000000E+00 -0.00000000000E+00 -0.45593999997E+02  0.45594000000E+02  0.51100000000E-03 0. -1.
    9900012    2    1    2    0    0  0.27848443267E+02  0.13104141259E+02  0.30600144278E+02  0.47787272582E+02  0.20000007012E+02 0.  0.
         12    1    1    2    0    0 -0.27848443267E+02 -0.13104141259E+02 -0.30600144278E+02  0.43400727418E+02  0.00000000000E+00 0. -1.
         11    1    3    3    0    0  0.32227034183E+01 -0.15380102934E+01 -0.10073274888E+01  0.37102563140E+01  0.51100000000E-03 0. -1.
        -11    1    3    3    0    0  0.19608058618E+02  0.11541733142E+02  0.17241843811E+02  0.28547657434E+02  0.51100000000E-03 0.  1.
         12    1    3    3    0    0  0.50176812313E+01  0.31004184100E+01  0.14365627956E+02  0.15529358835E+02  0.00000000000E+00 0. -1.
</event>
<event>
 7    1  0.2318319E-009  0.4778727E+02  0.7816164E-02  0.1312668E+00
        -11   -1    0    0    0    0  0.00000000000E+00  0.00000000000E+00  0.45593999997E+02  0.45594000000E+02  0.51100000000E-03 0.  1.
         11   -1    0    0    0    0 -0.00000000000E+00 -0.00000000000E+00 -0.45593999997E+02  0.45594000000E+02  0.51100000000E-03 0. -1.
    9900012    2    1    2    0    0 -0.13249671601E+02 -0.18408758459E+02  0.37002526526E+02  0.47787272415E+02  0.20000006250E+02 0.  0.
         12    1    1    2    0    0  0.13249671601E+02  0.18408758459E+02 -0.37002526526E+02  0.43400727585E+02  0.00000000000E+00 0. -1.
         11    1    3    3    0    0 -0.50313332733E+01 -0.16108149919E+02  0.18510741012E+02  0.25048639512E+02  0.51100000000E-03 0. -1.
        -11    1    3    3    0    0 -0.26245655696E+01 -0.42872614258E+01  0.15071470939E+02  0.15887674200E+02  0.51100000000E-03 0.  1.
        -12    1    3    3    0    0 -0.55937727584E+01  0.19866528861E+01  0.34203145764E+01  0.68509587040E+01  0.00000000000E+00 0.  1.
</event>
<event>
 7    1  0.2318319E-009  0.4778728E+02  0.7816164E-02  0.1312668E+00
        -11   -1    0    0    0    0  0.00000000000E+00  0.00000000000E+00  0.45593999997E+02  0.45594000000E+02  0.51100000000E-03 0. -1.
         11   -1    0    0    0    0 -0.00000000000E+00 -0.00000000000E+00 -0.45593999997E+02  0.45594000000E+02  0.51100000000E-03 0.  1.
    9900012    2    1    2    0    0  0.12719105040E+02  0.36794216991E+02 -0.19184161966E+02  0.47787284483E+02  0.20000061273E+02 0.  0.
         12    1    1    2    0    0 -0.12719105040E+02 -0.36794216991E+02  0.19184161966E+02  0.43400715517E+02  0.00000000000E+00 0. -1.
         11    1    3    3    0    0  0.34655225943E+01  0.14704473254E+02 -0.10010768688E+02  0.18123103226E+02  0.51100000000E-03 0. -1.
        -11    1    3    3    0    0  0.10688446170E+02  0.21463615652E+02 -0.40631513875E+01  0.24319516398E+02  0.51100000000E-03 0.  1.
         12    1    3    3    0    0 -0.14348637239E+01  0.62612808508E+00 -0.51102418903E+01  0.53446648597E+01  0.00000000000E+00 0. -1.
</event>
<event>
 7    1  0.2318319E-009  0.4778727E+02  0.7816164E-02  0.1312668E+00
        -11   -1    0    0    0    0  0.00000000000E+00  0.00000000000E+00  0.45593999997E+02  0.45594000000E+02  0.51100000000E-03 0.  1.
         11   -1    0    0    0    0 -0.00000000000E+00 -0.00000000000E+00 -0.45593999997E+02  0.45594000000E+02  0.51100000000E-03 0. -1.
    9900012    2    1    2    0    0 -0.33747290246E+02 -0.89329085888E+01  0.25786564421E+02  0.47787270059E+02  0.19999995505E+02 0.  0.
         12    1    1    2    0    0  0.33747290246E+02  0.89329085888E+01 -0.25786564421E+02  0.43400729941E+02  0.00000000000E+00 0. -1.
         11    1    3    3    0    0  0.50807194518E+00 -0.14381451409E+01  0.86694615677E-01  0.15277155381E+01  0.51100000000E-03 0. -1.
        -11    1    3    3    0    0 -0.96754317326E+01 -0.89033591958E+01  0.13264580686E+02  0.18677068432E+02  0.51100000000E-03 0.  1.
         12    1    3    3    0    0 -0.24579930459E+02  0.14085957479E+01  0.12435289119E+02  0.27582486088E+02  0.00000000000E+00 0. -1.
</event>
<event>
 7    1  0.2318319E-009  0.4778728E+02  0.7816164E-02  0.1312668E+00
        -11   -1    0    0    0    0  0.00000000000E+00  0.00000000000E+00  0.45593999997E+02  0.45594000000E+02  0.51100000000E-03 0. -1.
         11   -1    0    0    0    0 -0.00000000000E+00 -0.00000000000E+00 -0.45593999997E+02  0.45594000000E+02  0.51100000000E-03 0.  1.
    9900012    2    1    2    0    0 -0.15982051198E+02  0.18365676917E+02 -0.35929080800E+02  0.47787275395E+02  0.20000019836E+02 0.  0.
         12    1    1    2    0    0  0.15982051198E+02 -0.18365676917E+02  0.35929080800E+02  0.43400724605E+02  0.00000000000E+00 0. -1.
         11    1    3    3    0    0 -0.35438160059E+01  0.51603300839E+01 -0.16147102776E+01  0.64648996899E+01  0.51100000000E-03 0. -1.
        -11    1    3    3    0    0 -0.14308236083E+02  0.10439404121E+02 -0.20413839545E+02  0.27026498542E+02  0.51100000000E-03 0.  1.
         12    1    3    3    0    0  0.18700008908E+01  0.27659427125E+01 -0.13900530977E+02  0.14295877163E+02  0.00000000000E+00 0. -1.
</event>
<event>
 7    1  0.2318319E-009  0.4778727E+02  0.7816164E-02  0.1312668E+00
        -11   -1    0    0    0    0  0.00000000000E+00  0.00000000000E+00  0.45593999997E+02  0.45594000000E+02  0.51100000000E-03 0.  1.
         11   -1    0    0    0    0 -0.00000000000E+00 -0.00000000000E+00 -0.45593999997E+02  0.45594000000E+02  0.51100000000E-03 0. -1.
    9900012    2    1    2    0    0  0.38124790700E+02 -0.75335946533E+01 -0.19322749419E+02  0.47787270059E+02  0.19999995508E+02 0.  0.
         12    1    1    2    0    0 -0.38124790700E+02  0.75335946533E+01  0.19322749419E+02  0.43400729941E+02  0.00000000000E+00 0. -1.
         11    1    3    3    0    0 -0.57545559247E+00 -0.12326154209E+01  0.61554765450E+00  0.14931138908E+01  0.51100000000E-03 0. -1.
        -11    1    3    3    0    0  0.13446099719E+02 -0.43650460119E+00 -0.14545466570E+02  0.19813094961E+02  0.51100000000E-03 0.  1.
        -12    1    3    3    0    0  0.25254146573E+02 -0.58644746313E+01 -0.53928305033E+01  0.26481061208E+02  0.00000000000E+00 0.  1.
</event>
<event>
 7    1  0.2318319E-009  0.4778727E+02  0.7816164E-02  0.1312668E+00
        -11   -1    0    0    0    0  0.00000000000E+00  0.00000000000E+00  0.45593999997E+02  0.45594000000E+02  0.51100000000E-03 0. -1.
         11   -1    0    0    0    0 -0.00000000000E+00 -0.00000000000E+00 -0.45593999997E+02  0.45594000000E+02  0.51100000000E-03 0.  1.
    9900012    2    1    2    0    0  0.25724160423E+01  0.33551031574E+02 -0.27410475045E+02  0.47787272055E+02  0.20000004608E+02 0.  0.
         12    1    1    2    0    0 -0.25724160423E+01 -0.33551031574E+02  0.27410475045E+02  0.43400727945E+02  0.00000000000E+00 0. -1.
         11    1    3    3    0    0  0.41964194714E+01  0.22293692758E+02 -0.74054236097E+01  0.23863339504E+02  0.51100000000E-03 0. -1.
        -11    1    3    3    0    0  0.78842547188E-01  0.28033153668E+01 -0.87149083440E+00  0.29367141040E+01  0.51100000000E-03 0.  1.
         12    1    3    3    0    0 -0.17028459763E+01  0.84540234486E+01 -0.19133560601E+02  0.20987218447E+02  0.00000000000E+00 0. -1.
</event>
<event>
 7    1  0.2318319E-009  0.4778727E+02  0.7816164E-02  0.1312668E+00
        -11   -1    0    0    0    0  0.00000000000E+00  0.00000000000E+00  0.45593999997E+02  0.45594000000E+02  0.51100000000E-03 0. -1.
         11   -1    0    0    0    0 -0.00000000000E+00 -0.00000000000E+00 -0.45593999997E+02  0.45594000000E+02  0.51100000000E-03 0.  1.
    9900012    2    1    2    0    0 -0.15970480999E+02  0.13727075400E+02 -0.37949105095E+02  0.47787269132E+02  0.19999991280E+02 0.  0.
         12    1    1    2    0    0  0.15970480999E+02 -0.13727075400E+02  0.37949105095E+02  0.43400730868E+02  0.00000000000E+00 0. -1.
         11    1    3    3    0    0  0.27256705928E+01  0.16926988542E+01 -0.61656787162E+01  0.69505470205E+01  0.51100000000E-03 0. -1.
        -11    1    3    3    0    0 -0.26663353705E+01 -0.22999478705E+01 -0.18439835438E+01  0.39748434039E+01  0.51100000000E-03 0.  1.
         12    1    3    3    0    0 -0.16029816222E+02  0.14334324416E+02 -0.29939442835E+02  0.36861878707E+02  0.00000000000E+00 0. -1.
</event>
<event>
 7    1  0.2318319E-009  0.4778727E+02  0.7816164E-02  0.1312668E+00
        -11   -1    0    0    0    0  0.00000000000E+00  0.00000000000E+00  0.45593999997E+02  0.45594000000E+02  0.51100000000E-03 0.  1.
         11   -1    0    0    0    0 -0.00000000000E+00 -0.00000000000E+00 -0.45593999997E+02  0.45594000000E+02  0.51100000000E-03 0. -1.
    9900012    2    1    2    0    0 -0.30736810265E+02  0.13491323159E+02  0.27511011345E+02  0.47787273611E+02  0.20000011702E+02 0.  0.
         12    1    1    2    0    0  0.30736810265E+02 -0.13491323159E+02 -0.27511011345E+02  0.43400726389E+02  0.00000000000E+00 0. -1.
         11    1    3    3    0    0 -0.81541027939E+01  0.17887791654E+01  0.22798056715E+01  0.86537065722E+01  0.51100000000E-03 0. -1.
        -11    1    3    3    0    0 -0.12332315164E+02 -0.62538221831E-03  0.43139491608E+01  0.13065073874E+02  0.51100000000E-03 0.  1.
         12    1    3    3    0    0 -0.10250392307E+02  0.11703169376E+02  0.20917256513E+02  0.26068493165E+02  0.00000000000E+00 0. -1.
</event>
<event>
 7    1  0.2318319E-009  0.4778726E+02  0.7816164E-02  0.1312668E+00
        -11   -1    0    0    0    0  0.00000000000E+00  0.00000000000E+00  0.45593999997E+02  0.45594000000E+02  0.51100000000E-03 0.  1.
         11   -1    0    0    0    0 -0.00000000000E+00 -0.00000000000E+00 -0.45593999997E+02  0.45594000000E+02  0.51100000000E-03 0. -1.
    9900012    2    1    2    0    0 -0.38222196530E+02  0.15001416546E+02  0.14058630608E+02  0.47787263825E+02  0.19999967083E+02 0.  0.
         12    1    1    2    0    0  0.38222196530E+02 -0.15001416546E+02 -0.14058630608E+02  0.43400736175E+02  0.00000000000E+00 0. -1.
         11    1    3    3    0    0 -0.21988799725E+02 -0.17447242701E+01  0.76505719461E+01  0.23347004679E+02  0.51100000000E-03 0. -1.
        -11    1    3    3    0    0 -0.25081026097E+01  0.20771201897E+01 -0.27689934097E+00  0.32682840283E+01  0.51100000000E-03 0.  1.
         12    1    3    3    0    0 -0.13725294196E+02  0.14669020626E+02  0.66849580029E+01  0.21171975118E+02  0.00000000000E+00 0. -1.
</event>
<event>
 7    1  0.2318319E-009  0.4778727E+02  0.7816164E-02  0.1312668E+00
        -11   -1    0    0    0    0  0.00000000000E+00  0.00000000000E+00  0.45593999997E+02  0.45594000000E+02  0.51100000000E-03 0. -1.
         11   -1    0    0    0    0 -0.00000000000E+00 -0.00000000000E+00 -0.45593999997E+02  0.45594000000E+02  0.51100000000E-03 0.  1.
    9900012    2    1    2    0    0 -0.36852734136E+02  0.22914910138E+02  0.63732364257E+00  0.47787270727E+02  0.19999998555E+02 0.  0.
         12    1    1    2    0    0  0.36852734136E+02 -0.22914910138E+02 -0.63732364257E+00  0.43400729273E+02  0.00000000000E+00 0. -1.
         11    1    3    3    0    0 -0.30033301198E+01  0.41518757603E+01 -0.30988049685E+01  0.59883767944E+01  0.51100000000E-03 0. -1.
        -11    1    3    3    0    0 -0.18787424216E+02  0.11797955797E+02 -0.54323452349E+01  0.22840084165E+02  0.51100000000E-03 0.  1.
         12    1    3    3    0    0 -0.15061979801E+02  0.69650785804E+01  0.91684738460E+01  0.18958809768E+02  0.00000000000E+00 0. -1.
</event>
<event>
 7    1  0.2318319E-009  0.4778727E+02  0.7816164E-02  0.1312668E+00
        -11   -1    0    0    0    0  0.00000000000E+00  0.00000000000E+00  0.45593999997E+02  0.45594000000E+02  0.51100000000E-03 0. -1.
         11   -1    0    0    0    0 -0.00000000000E+00 -0.00000000000E+00 -0.45593999997E+02  0.45594000000E+02  0.51100000000E-03 0.  1.
    9900012    2    1    2    0    0 -0.18657273080E+02 -0.33304720126E+02 -0.20647639363E+02  0.47787271519E+02  0.20000002164E+02 0.  0.
         12    1    1    2    0    0  0.18657273080E+02  0.33304720126E+02  0.20647639363E+02  0.43400728481E+02  0.00000000000E+00 0. -1.
         11    1    3    3    0    0 -0.36763261794E+01 -0.48050502042E+01 -0.16336768625E+01  0.62667999804E+01  0.51100000000E-03 0. -1.
        -11    1    3    3    0    0 -0.82124773348E+01 -0.34538883505E+01  0.69910703949E+00  0.89366033606E+01  0.51100000000E-03 0.  1.
         12    1    3    3    0    0 -0.67684695655E+01 -0.25045781571E+02 -0.19713069540E+02  0.32583868178E+02  0.00000000000E+00 0. -1.
</event>
<event>
 7    1  0.2318319E-009  0.4778727E+02  0.7816164E-02  0.1312668E+00
        -11   -1    0    0    0    0  0.00000000000E+00  0.00000000000E+00  0.45593999997E+02  0.45594000000E+02  0.51100000000E-03 0.  1.
         11   -1    0    0    0    0 -0.00000000000E+00 -0.00000000000E+00 -0.45593999997E+02  0.45594000000E+02  0.51100000000E-03 0. -1.
    9900012    2    1    2    0    0  0.41786846726E+01  0.36984822595E+02  0.22322297924E+02  0.47787268525E+02  0.19999988514E+02 0.  0.
         12    1    1    2    0    0 -0.41786846726E+01 -0.36984822595E+02 -0.22322297924E+02  0.43400731475E+02  0.00000000000E+00 0. -1.
         11    1    3    3    0    0  0.72218356125E+01  0.25559517090E+02  0.12036776939E+02  0.29160381047E+02  0.51100000000E-03 0. -1.
        -11    1    3    3    0    0  0.27781055234E+01  0.82291906353E-01  0.19111016215E+01  0.33729737512E+01  0.51100000000E-03 0.  1.
         12    1    3    3    0    0 -0.58212564633E+01  0.11343013598E+02  0.83744193635E+01  0.15253913726E+02  0.00000000000E+00 0. -1.
</event>
<event>
 7    1  0.2318319E-009  0.4778727E+02  0.7816164E-02  0.1312668E+00
        -11   -1    0    0    0    0  0.00000000000E+00  0.00000000000E+00  0.45593999997E+02  0.45594000000E+02  0.51100000000E-03 0. -1.
         11   -1    0    0    0    0 -0.00000000000E+00 -0.00000000000E+00 -0.45593999997E+02  0.45594000000E+02  0.51100000000E-03 0.  1.
    9900012    2    1    2    0    0 -0.98484177088E+01 -0.40639334242E+02 -0.11622237493E+02  0.47787271627E+02  0.20000002655E+02 0.  0.
         12    1    1    2    0    0  0.98484177088E+01  0.40639334242E+02  0.11622237493E+02  0.43400728373E+02  0.00000000000E+00 0. -1.
         11    1    3    3    0    0 -0.24482056093E+01 -0.15185692930E+02 -0.36901443868E+00  0.15386200063E+02  0.51100000000E-03 0. -1.
        -11    1    3    3    0    0 -0.88362780165E+00 -0.23371550481E+02 -0.10044793907E+02  0.25454038086E+02  0.51100000000E-03 0.  1.
         12    1    3    3    0    0 -0.65165842978E+01 -0.20820908310E+01 -0.12084291471E+01  0.69470334779E+01  0.00000000000E+00 0. -1.
</event>
<event>
 7    1  0.2318319E-009  0.4778727E+02  0.7816164E-02  0.1312668E+00
        -11   -1    0    0    0    0  0.00000000000E+00  0.00000000000E+00  0.45593999997E+02  0.45594000000E+02  0.51100000000E-03 0.  1.
         11   -1    0    0    0    0 -0.00000000000E+00 -0.00000000000E+00 -0.45593999997E+02  0.45594000000E+02  0.51100000000E-03 0. -1.
    9900012    2    1    2    0    0  0.28729888351E+01  0.43051721442E+02 -0.46817056908E+01  0.47787272447E+02  0.20000006395E+02 0.  0.
         12    1    1    2    0    0 -0.28729888351E+01 -0.43051721442E+02  0.46817056908E+01  0.43400727553E+02  0.00000000000E+00 0. -1.
         11    1    3    3    0    0 -0.75581744438E+00  0.39765749484E+01  0.19636596247E+01  0.44989296185E+01  0.51100000000E-03 0. -1.
        -11    1    3    3    0    0  0.54272461234E+01  0.47961409803E+01 -0.52287725696E+01  0.89329744001E+01  0.51100000000E-03 0.  1.
        -12    1    3    3    0    0 -0.17984398439E+01  0.34279005513E+02 -0.14165927459E+01  0.34355368428E+02  0.00000000000E+00 0.  1.
</event>
<event>
 7    1  0.2318319E-009  0.4778727E+02  0.7816164E-02  0.1312668E+00
        -11   -1    0    0    0    0  0.00000000000E+00  0.00000000000E+00  0.45593999997E+02  0.45594000000E+02  0.51100000000E-03 0. -1.
         11   -1    0    0    0    0 -0.00000000000E+00 -0.00000000000E+00 -0.45593999997E+02  0.45594000000E+02  0.51100000000E-03 0.  1.
    9900012    2    1    2    0    0 -0.14558372829E+02 -0.38025203756E+02  0.15025350381E+02  0.47787268506E+02  0.19999988426E+02 0.  0.
         12    1    1    2    0    0  0.14558372829E+02  0.38025203756E+02 -0.15025350381E+02  0.43400731494E+02  0.00000000000E+00 0. -1.
         11    1    3    3    0    0 -0.22955841472E+01 -0.66532158490E+01 -0.77665440114E+00  0.70808318742E+01  0.51100000000E-03 0. -1.
        -11    1    3    3    0    0 -0.55919680425E+01 -0.27681917695E+02  0.17039286854E+02  0.32983268040E+02  0.51100000000E-03 0.  1.
        -12    1    3    3    0    0 -0.66708206393E+01 -0.36900702127E+01 -0.12372820715E+01  0.77231685920E+01  0.00000000000E+00 0.  1.
</event>
<event>
 7    1  0.2318319E-009  0.4778727E+02  0.7816164E-02  0.1312668E+00
        -11   -1    0    0    0    0  0.00000000000E+00  0.00000000000E+00  0.45593999997E+02  0.45594000000E+02  0.51100000000E-03 0.  1.
         11   -1    0    0    0    0 -0.00000000000E+00 -0.00000000000E+00 -0.45593999997E+02  0.45594000000E+02  0.51100000000E-03 0. -1.
    9900012    2    1    2    0    0 -0.10904405251E+02 -0.40703975073E+01  0.41810873750E+02  0.47787270127E+02  0.19999995818E+02 0.  0.
         12    1    1    2    0    0  0.10904405251E+02  0.40703975073E+01 -0.41810873750E+02  0.43400729873E+02  0.00000000000E+00 0. -1.
         11    1    3    3    0    0 -0.11051241667E+01 -0.40963081422E+01  0.48370349993E+01  0.64341236906E+01  0.51100000000E-03 0. -1.
        -11    1    3    3    0    0 -0.11621420456E+02 -0.47364428144E+01  0.31314157623E+02  0.33735260068E+02  0.51100000000E-03 0.  1.
         12    1    3    3    0    0  0.18221393710E+01  0.47623534492E+01  0.56596811272E+01  0.76178863685E+01  0.00000000000E+00 0. -1.
</event>
<event>
 7    1  0.2318319E-009  0.4778727E+02  0.7816164E-02  0.1312668E+00
        -11   -1    0    0    0    0  0.00000000000E+00  0.00000000000E+00  0.45593999997E+02  0.45594000000E+02  0.51100000000E-03 0.  1.
         11   -1    0    0    0    0 -0.00000000000E+00 -0.00000000000E+00 -0.45593999997E+02  0.45594000000E+02  0.51100000000E-03 0. -1.
    9900012    2    1    2    0    0  0.13724850652E+01 -0.43222724066E+02  0.36791371215E+01  0.47787266816E+02  0.19999980721E+02 0.  0.
         12    1    1    2    0    0 -0.13724850652E+01  0.43222724066E+02 -0.36791371215E+01  0.43400733184E+02  0.00000000000E+00 0. -1.
         11    1    3    3    0    0 -0.24323133379E+01 -0.15234551531E+00 -0.11128989500E+01  0.26791606267E+01  0.51100000000E-03 0. -1.
        -11    1    3    3    0    0 -0.29347384935E+01 -0.40855994549E+01 -0.98376793864E+00  0.51256816668E+01  0.51100000000E-03 0.  1.
        -12    1    3    3    0    0  0.67395368965E+01 -0.38984779096E+02  0.57758040101E+01  0.39982424523E+02  0.00000000000E+00 0.  1.
</event>
<event>
 7    1  0.2318319E-009  0.4778727E+02  0.7816164E-02  0.1312668E+00
        -11   -1    0    0    0    0  0.00000000000E+00  0.00000000000E+00  0.45593999997E+02  0.45594000000E+02  0.51100000000E-03 0.  1.
         11   -1    0    0    0    0 -0.00000000000E+00 -0.00000000000E+00 -0.45593999997E+02  0.45594000000E+02  0.51100000000E-03 0. -1.
    9900012    2    1    2    0    0 -0.40388188944E+02  0.96358866190E+01  0.12631995111E+02  0.47787269389E+02  0.19999992452E+02 0.  0.
         12    1    1    2    0    0  0.40388188944E+02 -0.96358866190E+01 -0.12631995111E+02  0.43400730611E+02  0.00000000000E+00 0. -1.
         11    1    3    3    0    0 -0.69479893466E+01  0.80414371225E+01  0.50729220524E+01  0.11775984263E+02  0.51100000000E-03 0. -1.
        -11    1    3    3    0    0 -0.22563196249E+02  0.52081496796E+01  0.81123273509E+01  0.24536350653E+02  0.51100000000E-03 0.  1.
        -12    1    3    3    0    0 -0.10877003348E+02 -0.36137001832E+01 -0.55325429196E+00  0.11474934473E+02  0.00000000000E+00 0.  1.
</event>
<event>
 7    1  0.2318319E-009  0.4778727E+02  0.7816164E-02  0.1312668E+00
        -11   -1    0    0    0    0  0.00000000000E+00  0.00000000000E+00  0.45593999997E+02  0.45594000000E+02  0.51100000000E-03 0. -1.
         11   -1    0    0    0    0 -0.00000000000E+00 -0.00000000000E+00 -0.45593999997E+02  0.45594000000E+02  0.51100000000E-03 0.  1.
    9900012    2    1    2    0    0  0.11652110836E+02 -0.32238825343E+02 -0.26617850496E+02  0.47787268307E+02  0.19999987518E+02 0.  0.
         12    1    1    2    0    0 -0.11652110836E+02  0.32238825343E+02  0.26617850496E+02  0.43400731693E+02  0.00000000000E+00 0. -1.
         11    1    3    3    0    0  0.61899653216E+01 -0.23786762761E+02 -0.11373396866E+02  0.27082834229E+02  0.51100000000E-03 0. -1.
        -11    1    3    3    0    0  0.66114234284E+01 -0.91177620391E+01 -0.92781036435E+01  0.14592042757E+02  0.51100000000E-03 0.  1.
        -12    1    3    3    0    0 -0.11492779136E+01  0.66569945667E+00 -0.59663499872E+01  0.61123913209E+01  0.00000000000E+00 0.  1.
</event>
<event>
 7    1  0.2318319E-009  0.4778727E+02  0.7816164E-02  0.1312668E+00
        -11   -1    0    0    0    0  0.00000000000E+00  0.00000000000E+00  0.45593999997E+02  0.45594000000E+02  0.51100000000E-03 0. -1.
         11   -1    0    0    0    0 -0.00000000000E+00 -0.00000000000E+00 -0.45593999997E+02  0.45594000000E+02  0.51100000000E-03 0.  1.
    9900012    2    1    2    0    0  0.27786978386E+01 -0.42790077393E+02  0.67015936955E+01  0.47787271400E+02  0.20000001621E+02 0.  0.
         12    1    1    2    0    0 -0.27786978386E+01  0.42790077393E+02 -0.67015936955E+01  0.43400728600E+02  0.00000000000E+00 0. -1.
         11    1    3    3    0    0 -0.90862422325E+00  0.84959200979E+00 -0.57790665737E+00  0.13716344002E+01  0.51100000000E-03 0. -1.
        -11    1    3    3    0    0  0.42717283755E+01 -0.69721365035E+01 -0.23359305514E+01  0.85038181154E+01  0.51100000000E-03 0.  1.
        -12    1    3    3    0    0 -0.58440631369E+00 -0.36667532899E+02  0.96154309042E+01  0.37911818884E+02  0.00000000000E+00 0.  1.
</event>
<event>
 7    1  0.2318319E-009  0.4778727E+02  0.7816164E-02  0.1312668E+00
        -11   -1    0    0    0    0  0.00000000000E+00  0.00000000000E+00  0.45593999997E+02  0.45594000000E+02  0.51100000000E-03 0. -1.
         11   -1    0    0    0    0 -0.00000000000E+00 -0.00000000000E+00 -0.45593999997E+02  0.45594000000E+02  0.51100000000E-03 0.  1.
    9900012    2    1    2    0    0  0.36896001903E+02  0.13116532839E+02 -0.18715362591E+02  0.47787272045E+02  0.20000004561E+02 0.  0.
         12    1    1    2    0    0 -0.36896001903E+02 -0.13116532839E+02  0.18715362591E+02  0.43400727955E+02  0.00000000000E+00 0. -1.
         11    1    3    3    0    0  0.13081078596E+02  0.71491734386E+01 -0.45952187350E+01  0.15599401705E+02  0.51100000000E-03 0.  1.
        -11    1    3    3    0    0  0.68092499407E+01  0.27497986403E+01  0.29171983466E+01  0.79017291634E+01  0.51100000000E-03 0. -1.
         12    1    3    3    0    0  0.17005673367E+02  0.32175607601E+01 -0.17037342202E+02  0.24286141176E+02  0.00000000000E+00 0. -1.
</event>
<event>
 7    1  0.2318319E-009  0.4778728E+02  0.7816164E-02  0.1312668E+00
        -11   -1    0    0    0    0  0.00000000000E+00  0.00000000000E+00  0.45593999997E+02  0.45594000000E+02  0.51100000000E-03 0.  1.
         11   -1    0    0    0    0 -0.00000000000E+00 -0.00000000000E+00 -0.45593999997E+02  0.45594000000E+02  0.51100000000E-03 0. -1.
    9900012    2    1    2    0    0 -0.38061543819E+02 -0.17510354443E+02  0.11328249843E+02  0.47787275638E+02  0.20000020946E+02 0.  0.
         12    1    1    2    0    0  0.38061543819E+02  0.17510354443E+02 -0.11328249843E+02  0.43400724362E+02  0.00000000000E+00 0. -1.
         11    1    3    3    0    0  0.91222879792E+00  0.26101008258E+00 -0.40124428114E+00  0.10301868167E+01  0.51100000000E-03 0. -1.
        -11    1    3    3    0    0 -0.50553071796E+01 -0.87600240502E+01  0.16903634082E+01  0.10254339606E+02  0.51100000000E-03 0.  1.
        -12    1    3    3    0    0 -0.33918465437E+02 -0.90113404755E+01  0.10039130716E+02  0.36502749216E+02  0.00000000000E+00 0.  1.
</event>
<event>
 7    1  0.2318319E-009  0.4778727E+02  0.7816164E-02  0.1312668E+00
        -11   -1    0    0    0    0  0.00000000000E+00  0.00000000000E+00  0.45593999997E+02  0.45594000000E+02  0.51100000000E-03 0.  1.
         11   -1    0    0    0    0 -0.00000000000E+00 -0.00000000000E+00 -0.45593999997E+02  0.45594000000E+02  0.51100000000E-03 0. -1.
    9900012    2    1    2    0    0 -0.10012397687E+02 -0.12828029329E+02  0.40234526542E+02  0.47787267633E+02  0.19999984448E+02 0.  0.
         12    1    1    2    0    0  0.10012397687E+02  0.12828029329E+02 -0.40234526542E+02  0.43400732367E+02  0.00000000000E+00 0. -1.
         11    1    3    3    0    0 -0.68329945644E+01 -0.35230595633E+01  0.13730084210E+02  0.15735850027E+02  0.51100000000E-03 0. -1.
        -11    1    3    3    0    0 -0.44803066010E+01  0.21437308758E+01  0.14867194066E+02  0.15674890397E+02  0.51100000000E-03 0.  1.
         12    1    3    3    0    0  0.13009034780E+01 -0.11448700641E+02  0.11637248266E+02  0.16376527209E+02  0.00000000000E+00 0. -1.
</event>
<event>
 7    1  0.2318319E-009  0.4778727E+02  0.7816164E-02  0.1312668E+00
        -11   -1    0    0    0    0  0.00000000000E+00  0.00000000000E+00  0.45593999997E+02  0.45594000000E+02  0.51100000000E-03 0.  1.
         11   -1    0    0    0    0 -0.00000000000E+00 -0.00000000000E+00 -0.45593999997E+02  0.45594000000E+02  0.51100000000E-03 0. -1.
    9900012    2    1    2    0    0  0.15301214561E+02 -0.40491618537E+02  0.31503572026E+01  0.47787273171E+02  0.20000009697E+02 0.  0.
         12    1    1    2    0    0 -0.15301214561E+02  0.40491618537E+02 -0.31503572026E+01  0.43400726829E+02  0.00000000000E+00 0. -1.
         11    1    3    3    0    0 -0.22118850202E+01 -0.81031697875E+00  0.46175866449E+00  0.24004729271E+01  0.51100000000E-03 0.  1.
        -11    1    3    3    0    0  0.25876284120E+01 -0.19524698246E+02 -0.22520984657E+01  0.19823763773E+02  0.51100000000E-03 0. -1.
        -12    1    3    3    0    0  0.14925471170E+02 -0.20156603312E+02  0.49406970038E+01  0.25563036471E+02  0.00000000000E+00 0.  1.
</event>
<event>
 7    1  0.2318319E-009  0.4778726E+02  0.7816164E-02  0.1312668E+00
        -11   -1    0    0    0    0  0.00000000000E+00  0.00000000000E+00  0.45593999997E+02  0.45594000000E+02  0.51100000000E-03 0.  1.
         11   -1    0    0    0    0 -0.00000000000E+00 -0.00000000000E+00 -0.45593999997E+02  0.45594000000E+02  0.51100000000E-03 0. -1.
    9900012    2    1    2    0    0 -0.12886805436E+02  0.35129084729E+02  0.21988668166E+02  0.47787264108E+02  0.19999968375E+02 0.  0.
         12    1    1    2    0    0  0.12886805436E+02 -0.35129084729E+02 -0.21988668166E+02  0.43400735892E+02  0.00000000000E+00 0. -1.
         11    1    3    3    0    0 -0.10211707705E+02  0.23514601425E+02  0.18732271150E+02  0.31750802149E+02  0.51100000000E-03 0.  1.
        -11    1    3    3    0    0  0.17968347085E+01  0.53810633911E+01  0.56434417512E+01  0.80020555640E+01  0.51100000000E-03 0. -1.
         12    1    3    3    0    0 -0.44719324400E+01  0.62334199122E+01 -0.23870447348E+01  0.80344063948E+01  0.00000000000E+00 0. -1.
</event>
<event>
 7    1  0.2318319E-009  0.4778727E+02  0.7816164E-02  0.1312668E+00
        -11   -1    0    0    0    0  0.00000000000E+00  0.00000000000E+00  0.45593999997E+02  0.45594000000E+02  0.51100000000E-03 0. -1.
         11   -1    0    0    0    0 -0.00000000000E+00 -0.00000000000E+00 -0.45593999997E+02  0.45594000000E+02  0.51100000000E-03 0.  1.
    9900012    2    1    2    0    0 -0.39299815140E+02  0.10559252402E+02 -0.15088074789E+02  0.47787270949E+02  0.19999999566E+02 0.  0.
         12    1    1    2    0    0  0.39299815140E+02 -0.10559252402E+02  0.15088074789E+02  0.43400729051E+02  0.00000000000E+00 0. -1.
         11    1    3    3    0    0 -0.35851075008E+01  0.37114665942E+01 -0.64729219189E+01  0.82780854369E+01  0.51100000000E-03 0. -1.
        -11    1    3    3    0    0 -0.62553109797E+01 -0.34863501978E+01 -0.31131862372E+01  0.78086799117E+01  0.51100000000E-03 0.  1.
        -12    1    3    3    0    0 -0.29459396659E+02  0.10334136006E+02 -0.55019666332E+01  0.31700505601E+02  0.00000000000E+00 0.  1.
</event>
<event>
 7    1  0.2318319E-009  0.4778725E+02  0.7816164E-02  0.1312668E+00
        -11   -1    0    0    0    0  0.00000000000E+00  0.00000000000E+00  0.45593999997E+02  0.45594000000E+02  0.51100000000E-03 0. -1.
         11   -1    0    0    0    0 -0.00000000000E+00 -0.00000000000E+00 -0.45593999997E+02  0.45594000000E+02  0.51100000000E-03 0.  1.
    9900012    2    1    2    0    0 -0.41765985645E+02 -0.26408769476E+01  0.11500157081E+02  0.47787246541E+02  0.19999888278E+02 0.  0.
         12    1    1    2    0    0  0.41765985645E+02  0.26408769476E+01 -0.11500157081E+02  0.43400753459E+02  0.00000000000E+00 0. -1.
         11    1    3    3    0    0 -0.24272825972E+01 -0.90910957750E+00  0.19115086671E+00  0.25989844066E+01  0.51100000000E-03 0. -1.
        -11    1    3    3    0    0 -0.25566112312E+02 -0.65747495125E+01  0.14679482073E+02  0.30204976810E+02  0.51100000000E-03 0.  1.
        -12    1    3    3    0    0 -0.13772590736E+02  0.48429821425E+01 -0.33704758585E+01  0.14983285324E+02  0.00000000000E+00 0.  1.
</event>
<event>
 7    1  0.2318319E-009  0.4778729E+02  0.7816164E-02  0.1312668E+00
        -11   -1    0    0    0    0  0.00000000000E+00  0.00000000000E+00  0.45593999997E+02  0.45594000000E+02  0.51100000000E-03 0.  1.
         11   -1    0    0    0    0 -0.00000000000E+00 -0.00000000000E+00 -0.45593999997E+02  0.45594000000E+02  0.51100000000E-03 0. -1.
    9900012    2    1    2    0    0 -0.68394617889E+01  0.67240448171E+00  0.42853134112E+02  0.47787291843E+02  0.20000094829E+02 0.  0.
         12    1    1    2    0    0  0.68394617889E+01 -0.67240448171E+00 -0.42853134112E+02  0.43400708157E+02  0.00000000000E+00 0. -1.
         11    1    3    3    0    0 -0.47276288133E+00  0.60456689296E+00  0.60738150081E+01  0.61221103293E+01  0.51100000000E-03 0. -1.
        -11    1    3    3    0    0 -0.84994057559E+01 -0.57959057221E+01  0.32525304431E+02  0.34113455555E+02  0.51100000000E-03 0.  1.
         12    1    3    3    0    0  0.21327068483E+01  0.58637433108E+01  0.42540146726E+01  0.75517259584E+01  0.00000000000E+00 0. -1.
</event>
<event>
 7    1  0.2318319E-009  0.4778727E+02  0.7816164E-02  0.1312668E+00
        -11   -1    0    0    0    0  0.00000000000E+00  0.00000000000E+00  0.45593999997E+02  0.45594000000E+02  0.51100000000E-03 0. -1.
         11   -1    0    0    0    0 -0.00000000000E+00 -0.00000000000E+00 -0.45593999997E+02  0.45594000000E+02  0.51100000000E-03 0.  1.
    9900012    2    1    2    0    0  0.41112040291E+02  0.12056413257E+01 -0.13855316100E+02  0.47787271755E+02  0.20000003242E+02 0.  0.
         12    1    1    2    0    0 -0.41112040291E+02 -0.12056413257E+01  0.13855316100E+02  0.43400728245E+02  0.00000000000E+00 0. -1.
         11    1    3    3    0    0  0.11080941195E+02 -0.15599828199E+01 -0.50349868196E+01  0.12270774087E+02  0.51100000000E-03 0. -1.
        -11    1    3    3    0    0  0.15549268503E+02 -0.51313355558E+00 -0.12797240976E+02  0.20144786766E+02  0.51100000000E-03 0.  1.
         12    1    3    3    0    0  0.14481830594E+02  0.32787577011E+01  0.39769116957E+01  0.15371710902E+02  0.00000000000E+00 0. -1.
</event>
<event>
 7    1  0.2318319E-009  0.4778727E+02  0.7816164E-02  0.1312668E+00
        -11   -1    0    0    0    0  0.00000000000E+00  0.00000000000E+00  0.45593999997E+02  0.45594000000E+02  0.51100000000E-03 0. -1.
         11   -1    0    0    0    0 -0.00000000000E+00 -0.00000000000E+00 -0.45593999997E+02  0.45594000000E+02  0.51100000000E-03 0.  1.
    9900012    2    1    2    0    0 -0.34543513372E+02 -0.85173343442E+01 -0.24856060572E+02  0.47787273651E+02  0.20000011885E+02 0.  0.
         12    1    1    2    0    0  0.34543513372E+02  0.85173343442E+01  0.24856060572E+02  0.43400726349E+02  0.00000000000E+00 0. -1.
         11    1    3    3    0    0 -0.40263805029E+01  0.32808208972E+01 -0.43148371437E+01  0.67522844691E+01  0.51100000000E-03 0. -1.
        -11    1    3    3    0    0 -0.21189566871E+02 -0.22731693592E+01 -0.16945471317E+02  0.27227082869E+02  0.51100000000E-03 0.  1.
         12    1    3    3    0    0 -0.93275659985E+01 -0.95249858822E+01 -0.35957521113E+01  0.13807906313E+02  0.00000000000E+00 0. -1.
</event>
<event>
 7    1  0.2318319E-009  0.4778727E+02  0.7816164E-02  0.1312668E+00
        -11   -1    0    0    0    0  0.00000000000E+00  0.00000000000E+00  0.45593999997E+02  0.45594000000E+02  0.51100000000E-03 0.  1.
         11   -1    0    0    0    0 -0.00000000000E+00 -0.00000000000E+00 -0.45593999997E+02  0.45594000000E+02  0.51100000000E-03 0. -1.
    9900012    2    1    2    0    0  0.25632700534E+02 -0.88140575047E+01  0.33895433440E+02  0.47787270116E+02  0.19999995769E+02 0.  0.
         12    1    1    2    0    0 -0.25632700534E+02  0.88140575047E+01 -0.33895433440E+02  0.43400729884E+02  0.00000000000E+00 0. -1.
         11    1    3    3    0    0  0.41983725858E+01 -0.75521386499E+01  0.13997134639E+02  0.16449343723E+02  0.51100000000E-03 0. -1.
        -11    1    3    3    0    0  0.11378594938E+02 -0.34115750757E+01  0.16843116289E+02  0.20610721333E+02  0.51100000000E-03 0.  1.
        -12    1    3    3    0    0  0.10055733009E+02  0.21496562209E+01  0.30551825116E+01  0.10727205060E+02  0.00000000000E+00 0.  1.
</event>
<event>
 7    1  0.2318319E-009  0.4778726E+02  0.7816164E-02  0.1312668E+00
        -11   -1    0    0    0    0  0.00000000000E+00  0.00000000000E+00  0.45593999997E+02  0.45594000000E+02  0.51100000000E-03 0. -1.
         11   -1    0    0    0    0 -0.00000000000E+00 -0.00000000000E+00 -0.45593999997E+02  0.45594000000E+02  0.51100000000E-03 0.  1.
    9900012    2    1    2    0    0 -0.39494055288E+02  0.47328394826E+00 -0.17989428132E+02  0.47787263539E+02  0.19999965782E+02 0.  0.
         12    1    1    2    0    0  0.39494055288E+02 -0.47328394826E+00  0.17989428132E+02  0.43400736461E+02  0.00000000000E+00 0. -1.
         11    1    3    3    0    0 -0.66865833166E+00  0.35369067120E+01 -0.35590616220E+01  0.50619890304E+01  0.51100000000E-03 0. -1.
        -11    1    3    3    0    0 -0.24175228416E+02  0.28981571309E+01 -0.77085456246E+01  0.25539433424E+02  0.51100000000E-03 0.  1.
        -12    1    3    3    0    0 -0.14650168540E+02 -0.59617798946E+01 -0.67218208858E+01  0.17185841085E+02  0.00000000000E+00 0.  1.
</event>
<event>
 7    1  0.2318319E-009  0.4778728E+02  0.7816164E-02  0.1312668E+00
        -11   -1    0    0    0    0  0.00000000000E+00  0.00000000000E+00  0.45593999997E+02  0.45594000000E+02  0.51100000000E-03 0.  1.
         11   -1    0    0    0    0 -0.00000000000E+00 -0.00000000000E+00 -0.45593999997E+02  0.45594000000E+02  0.51100000000E-03 0. -1.
    9900012    2    1    2    0    0  0.10896350633E+02  0.12785463503E+02  0.40017795697E+02  0.47787279884E+02  0.20000040303E+02 0.  0.
         12    1    1    2    0    0 -0.10896350633E+02 -0.12785463503E+02 -0.40017795697E+02  0.43400720116E+02  0.00000000000E+00 0. -1.
         11    1    3    3    0    0  0.63123009957E+01  0.44979485560E+01  0.87509923689E+01  0.11690019366E+02  0.51100000000E-03 0. -1.
        -11    1    3    3    0    0  0.68345653435E+01  0.50148924745E+00  0.46696696926E+01  0.82926829313E+01  0.51100000000E-03 0.  1.
        -12    1    3    3    0    0 -0.22505157062E+01  0.77860256999E+01  0.26597133636E+02  0.27804577587E+02  0.00000000000E+00 0.  1.
</event>
<event>
 7    1  0.2318319E-009  0.4778727E+02  0.7816164E-02  0.1312668E+00
        -11   -1    0    0    0    0  0.00000000000E+00  0.00000000000E+00  0.45593999997E+02  0.45594000000E+02  0.51100000000E-03 0.  1.
         11   -1    0    0    0    0 -0.00000000000E+00 -0.00000000000E+00 -0.45593999997E+02  0.45594000000E+02  0.51100000000E-03 0. -1.
    9900012    2    1    2    0    0 -0.14943359579E+02 -0.22726263523E+02  0.33820647299E+02  0.47787271516E+02  0.20000002151E+02 0.  0.
         12    1    1    2    0    0  0.14943359579E+02  0.22726263523E+02 -0.33820647299E+02  0.43400728484E+02  0.00000000000E+00 0. -1.
         11    1    3    3    0    0 -0.13265100622E+01 -0.44417239189E+01  0.96904347692E+01  0.10742116486E+02  0.51100000000E-03 0. -1.
        -11    1    3    3    0    0 -0.10932079859E+00 -0.13525849767E+02  0.92109598238E+01  0.16364667552E+02  0.51100000000E-03 0.  1.
         12    1    3    3    0    0 -0.13507528719E+02 -0.47586898368E+01  0.14919252706E+02  0.20680487478E+02  0.00000000000E+00 0. -1.
</event>
<event>
 7    1  0.2318319E-009  0.4778727E+02  0.7816164E-02  0.1312668E+00
        -11   -1    0    0    0    0  0.00000000000E+00  0.00000000000E+00  0.45593999997E+02  0.45594000000E+02  0.51100000000E-03 0.  1.
         11   -1    0    0    0    0 -0.00000000000E+00 -0.00000000000E+00 -0.45593999997E+02  0.45594000000E+02  0.51100000000E-03 0. -1.
    9900012    2    1    2    0    0  0.26838306595E+02  0.12592213613E+02  0.31698027393E+02  0.47787268610E+02  0.19999988902E+02 0.  0.
         12    1    1    2    0    0 -0.26838306595E+02 -0.12592213613E+02 -0.31698027393E+02  0.43400731390E+02  0.00000000000E+00 0. -1.
         11    1    3    3    0    0  0.85484643696E+00  0.42247831406E+01  0.60616714090E+01  0.74379711983E+01  0.51100000000E-03 0. -1.
        -11    1    3    3    0    0  0.23890801481E+02  0.12021943895E+02  0.23612390239E+02  0.35676918357E+02  0.51100000000E-03 0.  1.
         12    1    3    3    0    0  0.20926586772E+01 -0.36545134226E+01  0.20239657446E+01  0.46723790546E+01  0.00000000000E+00 0. -1.
</event>
<event>
 7    1  0.2318319E-009  0.4778727E+02  0.7816164E-02  0.1312668E+00
        -11   -1    0    0    0    0  0.00000000000E+00  0.00000000000E+00  0.45593999997E+02  0.45594000000E+02  0.51100000000E-03 0. -1.
         11   -1    0    0    0    0 -0.00000000000E+00 -0.00000000000E+00 -0.45593999997E+02  0.45594000000E+02  0.51100000000E-03 0.  1.
    9900012    2    1    2    0    0 -0.28152594795E+02  0.88401211387E+01 -0.31826201730E+02  0.47787268992E+02  0.19999990644E+02 0.  0.
         12    1    1    2    0    0  0.28152594795E+02 -0.88401211387E+01  0.31826201730E+02  0.43400731008E+02  0.00000000000E+00 0. -1.
         11    1    3    3    0    0 -0.91476938453E+01  0.31772327808E+01 -0.20140943252E+02  0.22347991099E+02  0.51100000000E-03 0. -1.
        -11    1    3    3    0    0 -0.12634968389E+02 -0.15769257725E+00 -0.11052021263E+02  0.16787330562E+02  0.51100000000E-03 0.  1.
         12    1    3    3    0    0 -0.63699325609E+01  0.58205809351E+01 -0.63323721458E+00  0.86519473313E+01  0.00000000000E+00 0. -1.
</event>
<event>
 7    1  0.2318319E-009  0.4778727E+02  0.7816164E-02  0.1312668E+00
        -11   -1    0    0    0    0  0.00000000000E+00  0.00000000000E+00  0.45593999997E+02  0.45594000000E+02  0.51100000000E-03 0.  1.
         11   -1    0    0    0    0 -0.00000000000E+00 -0.00000000000E+00 -0.45593999997E+02  0.45594000000E+02  0.51100000000E-03 0. -1.
    9900012    2    1    2    0    0  0.10519350560E+02 -0.42056436624E+02 -0.20549963342E+01  0.47787267199E+02  0.19999982467E+02 0.  0.
         12    1    1    2    0    0 -0.10519350560E+02  0.42056436624E+02  0.20549963342E+01  0.43400732801E+02  0.00000000000E+00 0. -1.
         11    1    3    3    0    0  0.28811776085E+00 -0.88776689098E+01  0.27828626985E+01  0.93080794032E+01  0.51100000000E-03 0. -1.
        -11    1    3    3    0    0  0.52195831085E+01 -0.14639974946E+02  0.57228281439E+01  0.16562719477E+02  0.51100000000E-03 0.  1.
         12    1    3    3    0    0  0.50116496911E+01 -0.18538792768E+02 -0.10560687177E+02  0.21916468319E+02  0.00000000000E+00 0. -1.
</event>
<event>
 7    1  0.2318319E-009  0.4778729E+02  0.7816164E-02  0.1312668E+00
        -11   -1    0    0    0    0  0.00000000000E+00  0.00000000000E+00  0.45593999997E+02  0.45594000000E+02  0.51100000000E-03 0.  1.
         11   -1    0    0    0    0 -0.00000000000E+00 -0.00000000000E+00 -0.45593999997E+02  0.45594000000E+02  0.51100000000E-03 0. -1.
    9900012    2    1    2    0    0 -0.53139816260E+01  0.24284918281E+02  0.35575642982E+02  0.47787285372E+02  0.20000065325E+02 0.  0.
         12    1    1    2    0    0  0.53139816260E+01 -0.24284918281E+02 -0.35575642982E+02  0.43400714628E+02  0.00000000000E+00 0. -1.
         11    1    3    3    0    0  0.36843975845E+00  0.14237773648E+02  0.20123183620E+02  0.24653447336E+02  0.51100000000E-03 0. -1.
        -11    1    3    3    0    0 -0.54493577904E+01  0.12982819424E+02  0.13978890908E+02  0.19840828909E+02  0.51100000000E-03 0.  1.
         12    1    3    3    0    0 -0.23306359414E+00 -0.29356747910E+01  0.14735684541E+01  0.32930091264E+01  0.00000000000E+00 0. -1.
</event>
<event>
 7    1  0.2318319E-009  0.4778727E+02  0.7816164E-02  0.1312668E+00
        -11   -1    0    0    0    0  0.00000000000E+00  0.00000000000E+00  0.45593999997E+02  0.45594000000E+02  0.51100000000E-03 0. -1.
         11   -1    0    0    0    0 -0.00000000000E+00 -0.00000000000E+00 -0.45593999997E+02  0.45594000000E+02  0.51100000000E-03 0.  1.
    9900012    2    1    2    0    0  0.26540765721E+02 -0.32488487058E+02 -0.11122464104E+02  0.47787271387E+02  0.20000001564E+02 0.  0.
         12    1    1    2    0    0 -0.26540765721E+02  0.32488487058E+02  0.11122464104E+02  0.43400728613E+02  0.00000000000E+00 0. -1.
         11    1    3    3    0    0  0.43111280815E+01 -0.51592493460E+01  0.23776308357E+01  0.71313959224E+01  0.51100000000E-03 0. -1.
        -11    1    3    3    0    0  0.16478568519E+02 -0.82706796609E+01 -0.67844410584E+01  0.19646271993E+02  0.51100000000E-03 0.  1.
         12    1    3    3    0    0  0.57510691207E+01 -0.19058558051E+02 -0.67156538815E+01  0.21009603472E+02  0.00000000000E+00 0. -1.
</event>
<event>
 7    1  0.2318319E-009  0.4778727E+02  0.7816164E-02  0.1312668E+00
        -11   -1    0    0    0    0  0.00000000000E+00  0.00000000000E+00  0.45593999997E+02  0.45594000000E+02  0.51100000000E-03 0.  1.
         11   -1    0    0    0    0 -0.00000000000E+00 -0.00000000000E+00 -0.45593999997E+02  0.45594000000E+02  0.51100000000E-03 0. -1.
    9900012    2    1    2    0    0 -0.30745736465E+02 -0.13434814976E+02  0.27528687126E+02  0.47787272136E+02  0.20000004978E+02 0.  0.
         12    1    1    2    0    0  0.30745736465E+02  0.13434814976E+02 -0.27528687126E+02  0.43400727864E+02  0.00000000000E+00 0. -1.
         11    1    3    3    0    0 -0.96661283136E+01 -0.71145805061E+01  0.21432477024E+02  0.24564249714E+02  0.51100000000E-03 0. -1.
        -11    1    3    3    0    0 -0.19723504045E+01 -0.30525474201E+00 -0.62895752147E+00  0.20925903567E+01  0.51100000000E-03 0.  1.
         12    1    3    3    0    0 -0.19107257747E+02 -0.60149797283E+01  0.67251676237E+01  0.21130432066E+02  0.00000000000E+00 0. -1.
</event>
<event>
 7    1  0.2318319E-009  0.4778727E+02  0.7816164E-02  0.1312668E+00
        -11   -1    0    0    0    0  0.00000000000E+00  0.00000000000E+00  0.45593999997E+02  0.45594000000E+02  0.51100000000E-03 0.  1.
         11   -1    0    0    0    0 -0.00000000000E+00 -0.00000000000E+00 -0.45593999997E+02  0.45594000000E+02  0.51100000000E-03 0. -1.
    9900012    2    1    2    0    0 -0.31073496487E+02 -0.27562819020E+02  0.12583797050E+02  0.47787272766E+02  0.20000007849E+02 0.  0.
         12    1    1    2    0    0  0.31073496487E+02  0.27562819020E+02 -0.12583797050E+02  0.43400727234E+02  0.00000000000E+00 0. -1.
         11    1    3    3    0    0 -0.61194180735E+01 -0.25817702419E+00  0.74669124078E+01  0.96575728888E+01  0.51100000000E-03 0. -1.
        -11    1    3    3    0    0 -0.26737940167E+01 -0.56346669064E+01 -0.13553273617E+01  0.63824413909E+01  0.51100000000E-03 0.  1.
        -12    1    3    3    0    0 -0.22280284397E+02 -0.21669975089E+02  0.64722120035E+01  0.31747258486E+02  0.00000000000E+00 0.  1.
</event>
<event>
 7    1  0.2318319E-009  0.4778727E+02  0.7816164E-02  0.1312668E+00
        -11   -1    0    0    0    0  0.00000000000E+00  0.00000000000E+00  0.45593999997E+02  0.45594000000E+02  0.51100000000E-03 0.  1.
         11   -1    0    0    0    0 -0.00000000000E+00 -0.00000000000E+00 -0.45593999997E+02  0.45594000000E+02  0.51100000000E-03 0. -1.
    9900012    2    1    2    0    0 -0.81226417980E+01 -0.42626868722E+02  0.77220343398E+00  0.47787267921E+02  0.19999985760E+02 0.  0.
         12    1    1    2    0    0  0.81226417980E+01  0.42626868722E+02 -0.77220343398E+00  0.43400732079E+02  0.00000000000E+00 0. -1.
         11    1    3    3    0    0  0.55923520749E+00 -0.13073664858E+02  0.32816896529E+01  0.13490846678E+02  0.51100000000E-03 0. -1.
        -11    1    3    3    0    0 -0.44368778059E+01 -0.26186278411E+02  0.28046852064E+01  0.26707177332E+02  0.51100000000E-03 0.  1.
         12    1    3    3    0    0 -0.42449991996E+01 -0.33669254530E+01 -0.53141714253E+01  0.75892439115E+01  0.00000000000E+00 0. -1.
</event>
<event>
 7    1  0.2318319E-009  0.4778726E+02  0.7816164E-02  0.1312668E+00
        -11   -1    0    0    0    0  0.00000000000E+00  0.00000000000E+00  0.45593999997E+02  0.45594000000E+02  0.51100000000E-03 0. -1.
         11   -1    0    0    0    0 -0.00000000000E+00 -0.00000000000E+00 -0.45593999997E+02  0.45594000000E+02  0.51100000000E-03 0.  1.
    9900012    2    1    2    0    0  0.35396678106E+01 -0.16425101649E+02 -0.40016382028E+02  0.47787262183E+02  0.19999959599E+02 0.  0.
         12    1    1    2    0    0 -0.35396678106E+01  0.16425101649E+02  0.40016382028E+02  0.43400737817E+02  0.00000000000E+00 0. -1.
         11    1    3    3    0    0  0.69821322525E+01 -0.13066811347E+02 -0.19217072853E+02  0.24264946299E+02  0.51100000000E-03 0.  1.
        -11    1    3    3    0    0 -0.72006953678E+00 -0.24327032262E+01 -0.11988773850E-01  0.25370630888E+01  0.51100000000E-03 0. -1.
        -12    1    3    3    0    0 -0.27223949051E+01 -0.92558707606E+00 -0.20787320401E+02  0.20985252796E+02  0.00000000000E+00 0.  1.
</event>
<event>
 7    1  0.2318319E-009  0.4778727E+02  0.7816164E-02  0.1312668E+00
        -11   -1    0    0    0    0  0.00000000000E+00  0.00000000000E+00  0.45593999997E+02  0.45594000000E+02  0.51100000000E-03 0.  1.
         11   -1    0    0    0    0 -0.00000000000E+00 -0.00000000000E+00 -0.45593999997E+02  0.45594000000E+02  0.51100000000E-03 0. -1.
    9900012    2    1    2    0    0  0.32299017675E+02  0.14556285617E+02  0.25070128664E+02  0.47787270226E+02  0.19999996268E+02 0.  0.
         12    1    1    2    0    0 -0.32299017675E+02 -0.14556285617E+02 -0.25070128664E+02  0.43400729774E+02  0.00000000000E+00 0. -1.
         11    1    3    3    0    0  0.12920204087E+02  0.26116857388E+01  0.94280596775E+01  0.16206198987E+02  0.51100000000E-03 0. -1.
        -11    1    3    3    0    0  0.21601101973E+02  0.10948194159E+02  0.11576549545E+02  0.26841890049E+02  0.51100000000E-03 0.  1.
         12    1    3    3    0    0 -0.22222883852E+01  0.99640571856E+00  0.40655194413E+01  0.47391811898E+01  0.00000000000E+00 0. -1.
</event>
<event>
 7    1  0.2318319E-009  0.4778727E+02  0.7816164E-02  0.1312668E+00
        -11   -1    0    0    0    0  0.00000000000E+00  0.00000000000E+00  0.45593999997E+02  0.45594000000E+02  0.51100000000E-03 0.  1.
         11   -1    0    0    0    0 -0.00000000000E+00 -0.00000000000E+00 -0.45593999997E+02  0.45594000000E+02  0.51100000000E-03 0. -1.
    9900012    2    1    2    0    0  0.51323768183E+01 -0.18888452197E+02  0.38736398306E+02  0.47787268762E+02  0.19999989595E+02 0.  0.
         12    1    1    2    0    0 -0.51323768183E+01  0.18888452197E+02 -0.38736398306E+02  0.43400731238E+02  0.00000000000E+00 0. -1.
         11    1    3    3    0    0 -0.45675779759E+01 -0.85771237268E+01  0.13139125059E+02  0.16342167163E+02  0.51100000000E-03 0. -1.
        -11    1    3    3    0    0  0.37011885827E+01 -0.60665839986E+01  0.22273494492E+02  0.23379709055E+02  0.51100000000E-03 0.  1.
         12    1    3    3    0    0  0.59987662116E+01 -0.42447444719E+01  0.33237787554E+01  0.80653925451E+01  0.00000000000E+00 0. -1.
</event>
<event>
 7    1  0.2318319E-009  0.4778726E+02  0.7816164E-02  0.1312668E+00
        -11   -1    0    0    0    0  0.00000000000E+00  0.00000000000E+00  0.45593999997E+02  0.45594000000E+02  0.51100000000E-03 0. -1.
         11   -1    0    0    0    0 -0.00000000000E+00 -0.00000000000E+00 -0.45593999997E+02  0.45594000000E+02  0.51100000000E-03 0.  1.
    9900012    2    1    2    0    0  0.20682415306E+02  0.36252007041E+02 -0.11901833003E+02  0.47787263298E+02  0.19999964682E+02 0.  0.
         12    1    1    2    0    0 -0.20682415306E+02 -0.36252007041E+02  0.11901833003E+02  0.43400736702E+02  0.00000000000E+00 0. -1.
         11    1    3    3    0    0  0.57052297693E+01  0.21697121214E+02  0.20863126870E+01  0.22531476129E+02  0.51100000000E-03 0. -1.
        -11    1    3    3    0    0  0.14329234278E+01  0.15081825359E+01 -0.23563877761E+01  0.31433179483E+01  0.51100000000E-03 0.  1.
         12    1    3    3    0    0  0.13544262109E+02  0.13046703292E+02 -0.11631757913E+02  0.22112469221E+02  0.00000000000E+00 0. -1.
</event>
<event>
 7    1  0.2318319E-009  0.4778727E+02  0.7816164E-02  0.1312668E+00
        -11   -1    0    0    0    0  0.00000000000E+00  0.00000000000E+00  0.45593999997E+02  0.45594000000E+02  0.51100000000E-03 0.  1.
         11   -1    0    0    0    0 -0.00000000000E+00 -0.00000000000E+00 -0.45593999997E+02  0.45594000000E+02  0.51100000000E-03 0. -1.
    9900012    2    1    2    0    0  0.32424407613E+02 -0.17410642006E+02 -0.23003275601E+02  0.47787270139E+02  0.19999995871E+02 0.  0.
         12    1    1    2    0    0 -0.32424407613E+02  0.17410642006E+02  0.23003275601E+02  0.43400729861E+02  0.00000000000E+00 0. -1.
         11    1    3    3    0    0  0.45596741570E+01 -0.78360939706E+01 -0.12978241269E+02  0.15831290024E+02  0.51100000000E-03 0. -1.
        -11    1    3    3    0    0  0.45285325625E+01 -0.10211650900E+01 -0.45613691031E+01  0.65081851285E+01  0.51100000000E-03 0.  1.
         12    1    3    3    0    0  0.23336200893E+02 -0.85533829452E+01 -0.54636652298E+01  0.25447794987E+02  0.00000000000E+00 0. -1.
</event>
<event>
 7    1  0.2318319E-009  0.4778727E+02  0.7816164E-02  0.1312668E+00
        -11   -1    0    0    0    0  0.00000000000E+00  0.00000000000E+00  0.45593999997E+02  0.45594000000E+02  0.51100000000E-03 0. -1.
         11   -1    0    0    0    0 -0.00000000000E+00 -0.00000000000E+00 -0.45593999997E+02  0.45594000000E+02  0.51100000000E-03 0.  1.
    9900012    2    1    2    0    0  0.10572466455E+02  0.37925884165E+02 -0.18261266913E+02  0.47787267219E+02  0.19999982559E+02 0.  0.
         12    1    1    2    0    0 -0.10572466455E+02 -0.37925884165E+02  0.18261266913E+02  0.43400732781E+02  0.00000000000E+00 0. -1.
         11    1    3    3    0    0  0.72365349815E+01  0.15909636411E+02 -0.93298050047E+01  0.19812350465E+02  0.51100000000E-03 0. -1.
        -11    1    3    3    0    0 -0.11327542898E+01  0.71472505297E+01 -0.10077666852E+02  0.12406679324E+02  0.51100000000E-03 0.  1.
         12    1    3    3    0    0  0.44686857631E+01  0.14868997224E+02  0.11462049430E+01  0.15568237430E+02  0.00000000000E+00 0. -1.
</event>
<event>
 7    1  0.2518457E-009  0.4778727E+02  0.7816164E-02  0.1312668E+00
        -11   -1    0    0    0    0  0.00000000000E+00  0.00000000000E+00  0.45593999997E+02  0.45594000000E+02  0.51100000000E-03 0. -1.
         11   -1    0    0    0    0 -0.00000000000E+00 -0.00000000000E+00 -0.45593999997E+02  0.45594000000E+02  0.51100000000E-03 0.  1.
    9900012    2    1    2    0    0 -0.37510875942E+02  0.98505534756E+01 -0.19481383920E+02  0.47787268012E+02  0.19999986172E+02 0.  0.
         12    1    1    2    0    0  0.37510875942E+02 -0.98505534756E+01  0.19481383920E+02  0.43400731988E+02  0.00000000000E+00 0. -1.
         11    1    3    3    0    0 -0.10654599075E+02 -0.37571333263E+01 -0.45582208596E+01  0.12182524778E+02  0.51100000000E-03 0. -1.
        -11    1    3    3    0    0 -0.23057040320E+02  0.64695501406E+01 -0.13172223114E+02  0.27331111382E+02  0.51100000000E-03 0.  1.
         12    1    3    3    0    0 -0.37992365461E+01  0.71381366613E+01 -0.17509399462E+01  0.82736318521E+01  0.00000000000E+00 0. -1.
</event>
<event>
 7    1  0.2318319E-009  0.4778727E+02  0.7816164E-02  0.1312668E+00
        -11   -1    0    0    0    0  0.00000000000E+00  0.00000000000E+00  0.45593999997E+02  0.45594000000E+02  0.51100000000E-03 0.  1.
         11   -1    0    0    0    0 -0.00000000000E+00 -0.00000000000E+00 -0.45593999997E+02  0.45594000000E+02  0.51100000000E-03 0. -1.
    9900012    2    1    2    0    0  0.34136786903E+02 -0.25756822835E+02 -0.74087092780E+01  0.47787272866E+02  0.20000008304E+02 0.  0.
         12    1    1    2    0    0 -0.34136786903E+02  0.25756822835E+02  0.74087092780E+01  0.43400727134E+02  0.00000000000E+00 0. -1.
         11    1    3    3    0    0  0.92701390535E+01  0.72422830864E+00 -0.14551542830E+00  0.92995247037E+01  0.51100000000E-03 0. -1.
        -11    1    3    3    0    0  0.61320234214E+01 -0.57616300351E+01 -0.63463961075E+01  0.10539204700E+02  0.51100000000E-03 0.  1.
         12    1    3    3    0    0  0.18734624428E+02 -0.20719421109E+02 -0.91679774225E+00  0.27948543462E+02  0.00000000000E+00 0. -1.
</event>
<event>
 7    1  0.2318319E-009  0.4778727E+02  0.7816164E-02  0.1312668E+00
        -11   -1    0    0    0    0  0.00000000000E+00  0.00000000000E+00  0.45593999997E+02  0.45594000000E+02  0.51100000000E-03 0.  1.
         11   -1    0    0    0    0 -0.00000000000E+00 -0.00000000000E+00 -0.45593999997E+02  0.45594000000E+02  0.51100000000E-03 0. -1.
    9900012    2    1    2    0    0 -0.18894405358E+02  0.21724439060E+02  0.32475742492E+02  0.47787266634E+02  0.19999979890E+02 0.  0.
         12    1    1    2    0    0  0.18894405358E+02 -0.21724439060E+02 -0.32475742492E+02  0.43400733366E+02  0.00000000000E+00 0. -1.
         11    1    3    3    0    0 -0.13124095897E+02  0.77511374657E+01  0.19005235314E+02  0.24362286320E+02  0.51100000000E-03 0. -1.
        -11    1    3    3    0    0 -0.85049083614E+01  0.14030413261E+02  0.11138309353E+02  0.19830479016E+02  0.51100000000E-03 0.  1.
         12    1    3    3    0    0  0.27345988998E+01 -0.57111666806E-01  0.23321978251E+01  0.35945012979E+01  0.00000000000E+00 0. -1.
</event>
<event>
 7    1  0.2318319E-009  0.4778727E+02  0.7816164E-02  0.1312668E+00
        -11   -1    0    0    0    0  0.00000000000E+00  0.00000000000E+00  0.45593999997E+02  0.45594000000E+02  0.51100000000E-03 0. -1.
         11   -1    0    0    0    0 -0.00000000000E+00 -0.00000000000E+00 -0.45593999997E+02  0.45594000000E+02  0.51100000000E-03 0.  1.
    9900012    2    1    2    0    0  0.42420235529E+02 -0.86028896500E+01 -0.31839056543E+01  0.47787270191E+02  0.19999996111E+02 0.  0.
         12    1    1    2    0    0 -0.42420235529E+02  0.86028896500E+01  0.31839056543E+01  0.43400729809E+02  0.00000000000E+00 0. -1.
         11    1    3    3    0    0  0.22357102123E+02  0.44569298734E+01 -0.10008968760E+01  0.22818984071E+02  0.51100000000E-03 0.  1.
        -11    1    3    3    0    0  0.29618624588E+01 -0.91661119014E+00  0.18493751495E+01  0.36101238211E+01  0.51100000000E-03 0. -1.
        -12    1    3    3    0    0  0.17101270948E+02 -0.12143208333E+02 -0.40323839278E+01  0.21358162299E+02  0.00000000000E+00 0.  1.
</event>
<event>
 7    1  0.2318319E-009  0.4778727E+02  0.7816164E-02  0.1312668E+00
        -11   -1    0    0    0    0  0.00000000000E+00  0.00000000000E+00  0.45593999997E+02  0.45594000000E+02  0.51100000000E-03 0. -1.
         11   -1    0    0    0    0 -0.00000000000E+00 -0.00000000000E+00 -0.45593999997E+02  0.45594000000E+02  0.51100000000E-03 0.  1.
    9900012    2    1    2    0    0 -0.19370313219E+02  0.14811101691E+02 -0.35903276575E+02  0.47787273781E+02  0.20000012477E+02 0.  0.
         12    1    1    2    0    0  0.19370313219E+02 -0.14811101691E+02  0.35903276575E+02  0.43400726219E+02  0.00000000000E+00 0. -1.
         11    1    3    3    0    0 -0.56050332865E+01 -0.12754866665E+01 -0.45232024877E+01  0.73145488846E+01  0.51100000000E-03 0. -1.
        -11    1    3    3    0    0  0.13806718770E+01  0.38145704131E+01 -0.13228726636E+02  0.13836777476E+02  0.51100000000E-03 0.  1.
         12    1    3    3    0    0 -0.15145951809E+02  0.12272017945E+02 -0.18151347452E+02  0.26635947420E+02  0.00000000000E+00 0. -1.
</event>
<event>
 7    1  0.2318319E-009  0.4778728E+02  0.7816164E-02  0.1312668E+00
        -11   -1    0    0    0    0  0.00000000000E+00  0.00000000000E+00  0.45593999997E+02  0.45594000000E+02  0.51100000000E-03 0.  1.
         11   -1    0    0    0    0 -0.00000000000E+00 -0.00000000000E+00 -0.45593999997E+02  0.45594000000E+02  0.51100000000E-03 0. -1.
    9900012    2    1    2    0    0 -0.30159464730E+02 -0.59953093778E+01  0.30628183957E+02  0.47787277658E+02  0.20000030152E+02 0.  0.
         12    1    1    2    0    0  0.30159464730E+02  0.59953093778E+01 -0.30628183957E+02  0.43400722342E+02  0.00000000000E+00 0. -1.
         11    1    3    3    0    0 -0.11835243674E+02 -0.56070676094E+01  0.20069932985E+02  0.23964857819E+02  0.51100000000E-03 0. -1.
        -11    1    3    3    0    0  0.16748473133E+00  0.23627349665E+01  0.25612321592E+01  0.34886212307E+01  0.51100000000E-03 0.  1.
        -12    1    3    3    0    0 -0.18491705788E+02 -0.27509767349E+01  0.79970188130E+01  0.20333798608E+02  0.00000000000E+00 0.  1.
</event>
<event>
 7    1  0.2318319E-009  0.4778727E+02  0.7816164E-02  0.1312668E+00
        -11   -1    0    0    0    0  0.00000000000E+00  0.00000000000E+00  0.45593999997E+02  0.45594000000E+02  0.51100000000E-03 0. -1.
         11   -1    0    0    0    0 -0.00000000000E+00 -0.00000000000E+00 -0.45593999997E+02  0.45594000000E+02  0.51100000000E-03 0.  1.
    9900012    2    1    2    0    0 -0.31454185544E+02  0.29733796383E+02  0.31872628384E+01  0.47787273279E+02  0.20000010187E+02 0.  0.
         12    1    1    2    0    0  0.31454185544E+02 -0.29733796383E+02 -0.31872628384E+01  0.43400726721E+02  0.00000000000E+00 0. -1.
         11    1    3    3    0    0 -0.46613017346E+01  0.19732257025E+00  0.98482136509E+00  0.47682851676E+01  0.51100000000E-03 0.  1.
        -11    1    3    3    0    0 -0.20792716910E+01 -0.58497309960E+00  0.34115931338E+01  0.40378871040E+01  0.51100000000E-03 0. -1.
        -12    1    3    3    0    0 -0.24713612118E+02  0.30121446912E+02 -0.12091516605E+01  0.38981101007E+02  0.00000000000E+00 0.  1.
</event>
<event>
 7    1  0.2318319E-009  0.4778727E+02  0.7816164E-02  0.1312668E+00
        -11   -1    0    0    0    0  0.00000000000E+00  0.00000000000E+00  0.45593999997E+02  0.45594000000E+02  0.51100000000E-03 0.  1.
         11   -1    0    0    0    0 -0.00000000000E+00 -0.00000000000E+00 -0.45593999997E+02  0.45594000000E+02  0.51100000000E-03 0. -1.
    9900012    2    1    2    0    0 -0.71905559876E+01 -0.14329931667E+01  0.42776929916E+02  0.47787270768E+02  0.19999998740E+02 0.  0.
         12    1    1    2    0    0  0.71905559876E+01  0.14329931667E+01 -0.42776929916E+02  0.43400729232E+02  0.00000000000E+00 0. -1.
         11    1    3    3    0    0  0.34262865191E+01 -0.18337213971E+01  0.47748393814E+01  0.61563840729E+01  0.51100000000E-03 0. -1.
        -11    1    3    3    0    0 -0.18273678921E+01 -0.45673679592E+01  0.23183634397E+02  0.23699810708E+02  0.51100000000E-03 0.  1.
        -12    1    3    3    0    0 -0.87894746146E+01  0.49680961897E+01  0.14818456138E+02  0.17931075987E+02  0.00000000000E+00 0.  1.
</event>
<event>
 7    1  0.2318319E-009  0.4778727E+02  0.7816164E-02  0.1312668E+00
        -11   -1    0    0    0    0  0.00000000000E+00  0.00000000000E+00  0.45593999997E+02  0.45594000000E+02  0.51100000000E-03 0.  1.
         11   -1    0    0    0    0 -0.00000000000E+00 -0.00000000000E+00 -0.45593999997E+02  0.45594000000E+02  0.51100000000E-03 0. -1.
    9900012    2    1    2    0    0 -0.10058670961E+02  0.18259468784E+02  0.38066235780E+02  0.47787269957E+02  0.19999995043E+02 0.  0.
         12    1    1    2    0    0  0.10058670961E+02 -0.18259468784E+02 -0.38066235780E+02  0.43400730043E+02  0.00000000000E+00 0. -1.
         11    1    3    3    0    0 -0.57452487228E+01  0.49635968076E+01  0.61902458282E+01  0.97961380058E+01  0.51100000000E-03 0.  1.
        -11    1    3    3    0    0  0.15544213049E+01 -0.26512496401E+01  0.21485394786E+01  0.37498763179E+01  0.51100000000E-03 0. -1.
         12    1    3    3    0    0 -0.58678435431E+01  0.15947121617E+02  0.29727450473E+02  0.34241255633E+02  0.00000000000E+00 0. -1.
</event>
<event>
 7    1  0.2318319E-009  0.4778727E+02  0.7816164E-02  0.1312668E+00
        -11   -1    0    0    0    0  0.00000000000E+00  0.00000000000E+00  0.45593999997E+02  0.45594000000E+02  0.51100000000E-03 0.  1.
         11   -1    0    0    0    0 -0.00000000000E+00 -0.00000000000E+00 -0.45593999997E+02  0.45594000000E+02  0.51100000000E-03 0. -1.
    9900012    2    1    2    0    0  0.18044952267E+01  0.56453281210E+01  0.42994156113E+02  0.47787269678E+02  0.19999993771E+02 0.  0.
         12    1    1    2    0    0 -0.18044952267E+01 -0.56453281210E+01 -0.42994156113E+02  0.43400730322E+02  0.00000000000E+00 0. -1.
         11    1    3    3    0    0  0.43915240186E+01  0.26082659834E+01  0.95230819121E+01  0.10806369604E+02  0.51100000000E-03 0. -1.
        -11    1    3    3    0    0 -0.28819813794E+01  0.51128226220E+01  0.34246278111E+02  0.34745565710E+02  0.51100000000E-03 0.  1.
        -12    1    3    3    0    0  0.29495258754E+00 -0.20757604844E+01 -0.77520391013E+00  0.22353343642E+01  0.00000000000E+00 0.  1.
</event>
<event>
 7    1  0.2318319E-009  0.4778727E+02  0.7816164E-02  0.1312668E+00
        -11   -1    0    0    0    0  0.00000000000E+00  0.00000000000E+00  0.45593999997E+02  0.45594000000E+02  0.51100000000E-03 0. -1.
         11   -1    0    0    0    0 -0.00000000000E+00 -0.00000000000E+00 -0.45593999997E+02  0.45594000000E+02  0.51100000000E-03 0.  1.
    9900012    2    1    2    0    0  0.13361136922E+02 -0.81959569415E+00 -0.41284761706E+02  0.47787271134E+02  0.20000000409E+02 0.  0.
         12    1    1    2    0    0 -0.13361136922E+02  0.81959569415E+00  0.41284761706E+02  0.43400728866E+02  0.00000000000E+00 0. -1.
         11    1    3    3    0    0 -0.90875245418E+00  0.14824285768E+01 -0.69006169781E+00  0.18707247035E+01  0.51100000000E-03 0. -1.
        -11    1    3    3    0    0 -0.81830912470E+00  0.33391411832E+01 -0.17359371451E+01  0.38513597207E+01  0.51100000000E-03 0.  1.
        -12    1    3    3    0    0  0.15088198501E+02 -0.56411654542E+01 -0.38858762863E+02  0.42065186710E+02  0.00000000000E+00 0.  1.
</event>
<event>
 7    1  0.2318319E-009  0.4778728E+02  0.7816164E-02  0.1312668E+00
        -11   -1    0    0    0    0  0.00000000000E+00  0.00000000000E+00  0.45593999997E+02  0.45594000000E+02  0.51100000000E-03 0.  1.
         11   -1    0    0    0    0 -0.00000000000E+00 -0.00000000000E+00 -0.45593999997E+02  0.45594000000E+02  0.51100000000E-03 0. -1.
    9900012    2    1    2    0    0 -0.12466373538E+02 -0.34770996248E+02  0.22785740004E+02  0.47787278845E+02  0.20000035564E+02 0.  0.
         12    1    1    2    0    0  0.12466373538E+02  0.34770996248E+02 -0.22785740004E+02  0.43400721155E+02  0.00000000000E+00 0. -1.
         11    1    3    3    0    0  0.99127446223E+00 -0.98226679146E+00 -0.14671776502E+01  0.20248663234E+01  0.51100000000E-03 0. -1.
        -11    1    3    3    0    0  0.27331792317E+01 -0.32899249842E+01  0.26886760180E+01  0.50520148561E+01  0.51100000000E-03 0.  1.
        -12    1    3    3    0    0 -0.16190827232E+02 -0.30498804472E+02  0.21564241636E+02  0.40710397665E+02  0.00000000000E+00 0.  1.
</event>
<event>
 7    1  0.2318319E-009  0.4778726E+02  0.7816164E-02  0.1312668E+00
        -11   -1    0    0    0    0  0.00000000000E+00  0.00000000000E+00  0.45593999997E+02  0.45594000000E+02  0.51100000000E-03 0. -1.
         11   -1    0    0    0    0 -0.00000000000E+00 -0.00000000000E+00 -0.45593999997E+02  0.45594000000E+02  0.51100000000E-03 0.  1.
    9900012    2    1    2    0    0 -0.40801995418E+02 -0.57640221144E+01 -0.13623412590E+02  0.47787260933E+02  0.19999953896E+02 0.  0.
         12    1    1    2    0    0  0.40801995418E+02  0.57640221144E+01  0.13623412590E+02  0.43400739067E+02  0.00000000000E+00 0. -1.
         11    1    3    3    0    0 -0.18256928463E+02 -0.47698990873E+01  0.11933480371E+01  0.18907444407E+02  0.51100000000E-03 0. -1.
        -11    1    3    3    0    0 -0.12739024734E+02 -0.51077292947E+01 -0.56576132299E+01  0.14845209242E+02  0.51100000000E-03 0.  1.
         12    1    3    3    0    0 -0.98060422210E+01  0.41136062677E+01 -0.91591473970E+01  0.14034607284E+02  0.00000000000E+00 0. -1.
</event>
<event>
 7    1  0.2318319E-009  0.4778727E+02  0.7816164E-02  0.1312668E+00
        -11   -1    0    0    0    0  0.00000000000E+00  0.00000000000E+00  0.45593999997E+02  0.45594000000E+02  0.51100000000E-03 0.  1.
         11   -1    0    0    0    0 -0.00000000000E+00 -0.00000000000E+00 -0.45593999997E+02  0.45594000000E+02  0.51100000000E-03 0. -1.
    9900012    2    1    2    0    0 -0.24588566328E+02 -0.93208267555E+01  0.34527493948E+02  0.47787271391E+02  0.20000001580E+02 0.  0.
         12    1    1    2    0    0  0.24588566328E+02  0.93208267555E+01 -0.34527493948E+02  0.43400728609E+02  0.00000000000E+00 0. -1.
         11    1    3    3    0    0 -0.16849214702E+02 -0.11003692240E+02  0.23294601613E+02  0.30783367969E+02  0.51100000000E-03 0. -1.
        -11    1    3    3    0    0  0.41945290684E+00 -0.25739275623E+01  0.56946586582E+01  0.62634001414E+01  0.51100000000E-03 0.  1.
         12    1    3    3    0    0 -0.81588045331E+01  0.42567930468E+01  0.55382336768E+01  0.10740503280E+02  0.00000000000E+00 0. -1.
</event>
<event>
 7    1  0.2318319E-009  0.4778727E+02  0.7816164E-02  0.1312668E+00
        -11   -1    0    0    0    0  0.00000000000E+00  0.00000000000E+00  0.45593999997E+02  0.45594000000E+02  0.51100000000E-03 0. -1.
         11   -1    0    0    0    0 -0.00000000000E+00 -0.00000000000E+00 -0.45593999997E+02  0.45594000000E+02  0.51100000000E-03 0.  1.
    9900012    2    1    2    0    0  0.18811743496E+02  0.28065285340E+02 -0.27241174831E+02  0.47787267970E+02  0.19999985982E+02 0.  0.
         12    1    1    2    0    0 -0.18811743496E+02 -0.28065285340E+02  0.27241174831E+02  0.43400732030E+02  0.00000000000E+00 0. -1.
         11    1    3    3    0    0 -0.20965936056E+01  0.50595617800E+01 -0.11279471016E+01  0.55917023417E+01  0.51100000000E-03 0. -1.
        -11    1    3    3    0    0  0.25297839769E+01  0.10541458007E+02 -0.10110201020E+02  0.14823572741E+02  0.51100000000E-03 0.  1.
        -12    1    3    3    0    0  0.18378553125E+02  0.12464265553E+02 -0.16003026710E+02  0.27371992887E+02  0.00000000000E+00 0.  1.
</event>
<event>
 7    1  0.2318319E-009  0.4778727E+02  0.7816164E-02  0.1312668E+00
        -11   -1    0    0    0    0  0.00000000000E+00  0.00000000000E+00  0.45593999997E+02  0.45594000000E+02  0.51100000000E-03 0.  1.
         11   -1    0    0    0    0 -0.00000000000E+00 -0.00000000000E+00 -0.45593999997E+02  0.45594000000E+02  0.51100000000E-03 0. -1.
    9900012    2    1    2    0    0 -0.40052602464E+02  0.92988407473E+01  0.13890433889E+02  0.47787267782E+02  0.19999985126E+02 0.  0.
         12    1    1    2    0    0  0.40052602464E+02 -0.92988407473E+01 -0.13890433889E+02  0.43400732218E+02  0.00000000000E+00 0. -1.
         11    1    3    3    0    0 -0.11138945121E+02 -0.20869991556E+01  0.65232078152E+01  0.13076081383E+02  0.51100000000E-03 0. -1.
        -11    1    3    3    0    0 -0.29919806804E+02  0.12492442188E+02  0.71123130662E+01  0.33193989643E+02  0.51100000000E-03 0.  1.
         12    1    3    3    0    0  0.10061494607E+01 -0.11066022849E+01  0.25491300735E+00  0.15171967557E+01  0.00000000000E+00 0. -1.
</event>
<event>
 7    1  0.2318319E-009  0.4778727E+02  0.7816164E-02  0.1312668E+00
        -11   -1    0    0    0    0  0.00000000000E+00  0.00000000000E+00  0.45593999997E+02  0.45594000000E+02  0.51100000000E-03 0. -1.
         11   -1    0    0    0    0 -0.00000000000E+00 -0.00000000000E+00 -0.45593999997E+02  0.45594000000E+02  0.51100000000E-03 0.  1.
    9900012    2    1    2    0    0  0.48791321265E+01  0.21737344666E+02 -0.37246547020E+02  0.47787270187E+02  0.19999996089E+02 0.  0.
         12    1    1    2    0    0 -0.48791321265E+01 -0.21737344666E+02  0.37246547020E+02  0.43400729813E+02  0.00000000000E+00 0. -1.
         11    1    3    3    0    0 -0.56370438481E+01  0.93245032469E+01 -0.60292535344E+01  0.12452892138E+02  0.51100000000E-03 0. -1.
        -11    1    3    3    0    0  0.57598546235E+01  0.89859869788E+01 -0.19371407457E+02  0.22117308027E+02  0.51100000000E-03 0.  1.
        -12    1    3    3    0    0  0.47563213511E+01  0.34268544405E+01 -0.11845886029E+02  0.13217070022E+02  0.00000000000E+00 0.  1.
</event>
<event>
 7    1  0.2318319E-009  0.4778726E+02  0.7816164E-02  0.1312668E+00
        -11   -1    0    0    0    0  0.00000000000E+00  0.00000000000E+00  0.45593999997E+02  0.45594000000E+02  0.51100000000E-03 0. -1.
         11   -1    0    0    0    0 -0.00000000000E+00 -0.00000000000E+00 -0.45593999997E+02  0.45594000000E+02  0.51100000000E-03 0.  1.
    9900012    2    1    2    0    0 -0.22290593918E+02 -0.35659260581E+02 -0.10731764725E+02  0.47787260184E+02  0.19999950485E+02 0.  0.
         12    1    1    2    0    0  0.22290593918E+02  0.35659260581E+02  0.10731764725E+02  0.43400739816E+02  0.00000000000E+00 0. -1.
         11    1    3    3    0    0  0.13238010702E+01  0.37176077853E+00 -0.11078483193E+01  0.17657812746E+01  0.51100000000E-03 0. -1.
        -11    1    3    3    0    0 -0.14270666320E+02 -0.10231803195E+02 -0.40966434362E+01  0.18031200780E+02  0.51100000000E-03 0.  1.
         12    1    3    3    0    0 -0.93437286677E+01 -0.25799218165E+02 -0.55272729692E+01  0.27990278130E+02  0.00000000000E+00 0. -1.
</event>
<event>
 7    1  0.2318319E-009  0.4778728E+02  0.7816164E-02  0.1312668E+00
        -11   -1    0    0    0    0  0.00000000000E+00  0.00000000000E+00  0.45593999997E+02  0.45594000000E+02  0.51100000000E-03 0. -1.
         11   -1    0    0    0    0 -0.00000000000E+00 -0.00000000000E+00 -0.45593999997E+02  0.45594000000E+02  0.51100000000E-03 0.  1.
    9900012    2    1    2    0    0  0.16679514190E+02 -0.99107799735E+01 -0.38822585048E+02  0.47787275777E+02  0.20000021575E+02 0.  0.
         12    1    1    2    0    0 -0.16679514190E+02  0.99107799735E+01  0.38822585048E+02  0.43400724223E+02  0.00000000000E+00 0. -1.
         11    1    3    3    0    0  0.82279497198E+01 -0.35658303630E+00 -0.12675465840E+02  0.15116009479E+02  0.51100000000E-03 0. -1.
        -11    1    3    3    0    0  0.24336259881E+00  0.32221232677E+01 -0.99820770109E+01  0.10492052488E+02  0.51100000000E-03 0.  1.
         12    1    3    3    0    0  0.82082018713E+01 -0.12776320205E+02 -0.16165042197E+02  0.22179213809E+02  0.00000000000E+00 0. -1.
</event>
<event>
 7    1  0.2318319E-009  0.4778727E+02  0.7816164E-02  0.1312668E+00
        -11   -1    0    0    0    0  0.00000000000E+00  0.00000000000E+00  0.45593999997E+02  0.45594000000E+02  0.51100000000E-03 0.  1.
         11   -1    0    0    0    0 -0.00000000000E+00 -0.00000000000E+00 -0.45593999997E+02  0.45594000000E+02  0.51100000000E-03 0. -1.
    9900012    2    1    2    0    0  0.15628211684E+02  0.30068253838E+02  0.27116097585E+02  0.47787266854E+02  0.19999980896E+02 0.  0.
         12    1    1    2    0    0 -0.15628211684E+02 -0.30068253838E+02 -0.27116097585E+02  0.43400733146E+02  0.00000000000E+00 0. -1.
         11    1    3    3    0    0  0.80815837158E+00  0.56305237850E+00 -0.20204708047E+01  0.22477656613E+01  0.51100000000E-03 0. -1.
        -11    1    3    3    0    0  0.27852197142E+01  0.10334972656E+02  0.33229762779E+01  0.11207643832E+02  0.51100000000E-03 0.  1.
        -12    1    3    3    0    0  0.12034833598E+02  0.19170228803E+02  0.25813592112E+02  0.34331857361E+02  0.00000000000E+00 0.  1.
</event>
<event>
 7    1  0.2318319E-009  0.4778726E+02  0.7816164E-02  0.1312668E+00
        -11   -1    0    0    0    0  0.00000000000E+00  0.00000000000E+00  0.45593999997E+02  0.45594000000E+02  0.51100000000E-03 0.  1.
         11   -1    0    0    0    0 -0.00000000000E+00 -0.00000000000E+00 -0.45593999997E+02  0.45594000000E+02  0.51100000000E-03 0. -1.
    9900012    2    1    2    0    0  0.77360331021E+01 -0.27462821055E+02  0.32704301933E+02  0.47787261373E+02  0.19999955902E+02 0.  0.
         12    1    1    2    0    0 -0.77360331021E+01  0.27462821055E+02 -0.32704301933E+02  0.43400738627E+02  0.00000000000E+00 0. -1.
         11    1    3    3    0    0  0.18179650301E+01 -0.97700059996E+01  0.51878936648E+01  0.11210363733E+02  0.51100000000E-03 0.  1.
        -11    1    3    3    0    0  0.68441298357E+01 -0.22427548507E+01  0.35063596338E+01  0.80104070228E+01  0.51100000000E-03 0. -1.
         12    1    3    3    0    0 -0.92606176377E+00 -0.15450060205E+02  0.24010048635E+02  0.28566490617E+02  0.00000000000E+00 0. -1.
</event>
<event>
 7    1  0.2318319E-009  0.4778727E+02  0.7816164E-02  0.1312668E+00
        -11   -1    0    0    0    0  0.00000000000E+00  0.00000000000E+00  0.45593999997E+02  0.45594000000E+02  0.51100000000E-03 0. -1.
         11   -1    0    0    0    0 -0.00000000000E+00 -0.00000000000E+00 -0.45593999997E+02  0.45594000000E+02  0.51100000000E-03 0.  1.
    9900012    2    1    2    0    0  0.28934448014E+02 -0.31030618020E+02 -0.91390289145E+01  0.47787269752E+02  0.19999994106E+02 0.  0.
         12    1    1    2    0    0 -0.28934448014E+02  0.31030618020E+02  0.91390289145E+01  0.43400730248E+02  0.00000000000E+00 0. -1.
         11    1    3    3    0    0 -0.17491518457E+00 -0.39878045043E+01  0.30386418141E+00  0.40031879531E+01  0.51100000000E-03 0. -1.
        -11    1    3    3    0    0  0.99027486114E+01 -0.19071937985E+02 -0.80311672590E+01  0.22941292387E+02  0.51100000000E-03 0.  1.
         12    1    3    3    0    0  0.19206614587E+02 -0.79708755303E+01 -0.14117258369E+01  0.20842789412E+02  0.00000000000E+00 0. -1.
</event>
<event>
 7    1  0.2318319E-009  0.4778727E+02  0.7816164E-02  0.1312668E+00
        -11   -1    0    0    0    0  0.00000000000E+00  0.00000000000E+00  0.45593999997E+02  0.45594000000E+02  0.51100000000E-03 0. -1.
         11   -1    0    0    0    0 -0.00000000000E+00 -0.00000000000E+00 -0.45593999997E+02  0.45594000000E+02  0.51100000000E-03 0.  1.
    9900012    2    1    2    0    0 -0.41007608749E+02 -0.11533596252E+02 -0.83051521234E+01  0.47787269942E+02  0.19999994972E+02 0.  0.
         12    1    1    2    0    0  0.41007608749E+02  0.11533596252E+02  0.83051521234E+01  0.43400730058E+02  0.00000000000E+00 0. -1.
         11    1    3    3    0    0 -0.57989785635E+01 -0.57772554780E+01 -0.22078990555E+01  0.84781868190E+01  0.51100000000E-03 0. -1.
        -11    1    3    3    0    0  0.11571311331E+00 -0.22798806299E+01 -0.28707238060E+01  0.36677378100E+01  0.51100000000E-03 0.  1.
         12    1    3    3    0    0 -0.35324343299E+02 -0.34764601446E+01 -0.32265292619E+01  0.35641345313E+02  0.00000000000E+00 0. -1.
</event>
<event>
 7    1  0.2318319E-009  0.4778727E+02  0.7816164E-02  0.1312668E+00
        -11   -1    0    0    0    0  0.00000000000E+00  0.00000000000E+00  0.45593999997E+02  0.45594000000E+02  0.51100000000E-03 0.  1.
         11   -1    0    0    0    0 -0.00000000000E+00 -0.00000000000E+00 -0.45593999997E+02  0.45594000000E+02  0.51100000000E-03 0. -1.
    9900012    2    1    2    0    0  0.26156530571E+02  0.34416591135E+02  0.38674565734E+01  0.47787273540E+02  0.20000011380E+02 0.  0.
         12    1    1    2    0    0 -0.26156530571E+02 -0.34416591135E+02 -0.38674565734E+01  0.43400726460E+02  0.00000000000E+00 0. -1.
         11    1    3    3    0    0 -0.24210399001E+01  0.51082270144E+01 -0.24038016809E+00  0.56580208832E+01  0.51100000000E-03 0. -1.
        -11    1    3    3    0    0  0.18474532990E+01  0.24497031413E+01 -0.21177684213E+01  0.37281459897E+01  0.51100000000E-03 0.  1.
        -12    1    3    3    0    0  0.26730117172E+02  0.26858660979E+02  0.62256051628E+01  0.38401106667E+02  0.00000000000E+00 0.  1.
</event>
<event>
 7    1  0.2318319E-009  0.4778727E+02  0.7816164E-02  0.1312668E+00
        -11   -1    0    0    0    0  0.00000000000E+00  0.00000000000E+00  0.45593999997E+02  0.45594000000E+02  0.51100000000E-03 0.  1.
         11   -1    0    0    0    0 -0.00000000000E+00 -0.00000000000E+00 -0.45593999997E+02  0.45594000000E+02  0.51100000000E-03 0. -1.
    9900012    2    1    2    0    0 -0.19570597647E+02 -0.42154628815E+01  0.38507725786E+02  0.47787269998E+02  0.19999995228E+02 0.  0.
         12    1    1    2    0    0  0.19570597647E+02  0.42154628815E+01 -0.38507725786E+02  0.43400730002E+02  0.00000000000E+00 0. -1.
         11    1    3    3    0    0 -0.14470392592E+01  0.60351140090E-01  0.55373846198E+01  0.57236521179E+01  0.51100000000E-03 0. -1.
        -11    1    3    3    0    0 -0.12061513682E+02  0.63085419806E+01  0.20602571542E+02  0.24692990273E+02  0.51100000000E-03 0.  1.
         12    1    3    3    0    0 -0.60620447056E+01 -0.10584356002E+02  0.12367769623E+02  0.17370627607E+02  0.00000000000E+00 0. -1.
</event>
<event>
 7    1  0.2318319E-009  0.4778729E+02  0.7816164E-02  0.1312668E+00
        -11   -1    0    0    0    0  0.00000000000E+00  0.00000000000E+00  0.45593999997E+02  0.45594000000E+02  0.51100000000E-03 0.  1.
         11   -1    0    0    0    0 -0.00000000000E+00 -0.00000000000E+00 -0.45593999997E+02  0.45594000000E+02  0.51100000000E-03 0. -1.
    9900012    2    1    2    0    0 -0.14802042661E+02  0.18257768585E+01  0.40757668037E+02  0.47787292265E+02  0.20000096754E+02 0.  0.
         12    1    1    2    0    0  0.14802042661E+02 -0.18257768585E+01 -0.40757668037E+02  0.43400707735E+02  0.00000000000E+00 0. -1.
         11    1    3    3    0    0  0.13103949038E+01  0.19301517947E+01  0.68028270577E+01  0.71917367160E+01  0.51100000000E-03 0.  1.
        -11    1    3    3    0    0 -0.77830349622E+01  0.69748358222E+01  0.22237234238E+02  0.24570684866E+02  0.51100000000E-03 0. -1.
         12    1    3    3    0    0 -0.83294026024E+01 -0.70792107584E+01  0.11717606741E+02  0.16024870683E+02  0.00000000000E+00 0. -1.
</event>
<event>
 7    1  0.2318319E-009  0.4778727E+02  0.7816164E-02  0.1312668E+00
        -11   -1    0    0    0    0  0.00000000000E+00  0.00000000000E+00  0.45593999997E+02  0.45594000000E+02  0.51100000000E-03 0. -1.
         11   -1    0    0    0    0 -0.00000000000E+00 -0.00000000000E+00 -0.45593999997E+02  0.45594000000E+02  0.51100000000E-03 0.  1.
    9900012    2    1    2    0    0  0.17736526966E+02 -0.37110800773E+02 -0.13850172222E+02  0.47787271971E+02  0.20000004226E+02 0.  0.
         12    1    1    2    0    0 -0.17736526966E+02  0.37110800773E+02  0.13850172222E+02  0.43400728029E+02  0.00000000000E+00 0. -1.
         11    1    3    3    0    0  0.73394699045E+01 -0.14281840363E+02  0.19862831388E+01  0.16179743619E+02  0.51100000000E-03 0. -1.
        -11    1    3    3    0    0  0.97094795270E+01 -0.15079589884E+02 -0.56784213649E+01  0.18812562112E+02  0.51100000000E-03 0.  1.
         12    1    3    3    0    0  0.68757753484E+00 -0.77493705266E+01 -0.10158033996E+02  0.12794966240E+02  0.00000000000E+00 0. -1.
</event>
<event>
 7    1  0.2318319E-009  0.4778726E+02  0.7816164E-02  0.1312668E+00
        -11   -1    0    0    0    0  0.00000000000E+00  0.00000000000E+00  0.45593999997E+02  0.45594000000E+02  0.51100000000E-03 0.  1.
         11   -1    0    0    0    0 -0.00000000000E+00 -0.00000000000E+00 -0.45593999997E+02  0.45594000000E+02  0.51100000000E-03 0. -1.
    9900012    2    1    2    0    0  0.67705117601E+01 -0.24840508539E+02  0.34938991311E+02  0.47787264894E+02  0.19999971957E+02 0.  0.
         12    1    1    2    0    0 -0.67705117601E+01  0.24840508539E+02 -0.34938991311E+02  0.43400735106E+02  0.00000000000E+00 0. -1.
         11    1    3    3    0    0 -0.26970127987E+00  0.14506912437E+01  0.67828688975E-01  0.14771069213E+01  0.51100000000E-03 0. -1.
        -11    1    3    3    0    0 -0.33323229792E+01 -0.11977929628E+02  0.10955595491E+02  0.16571066575E+02  0.51100000000E-03 0.  1.
        -12    1    3    3    0    0  0.10372536019E+02 -0.14313270155E+02  0.23915567131E+02  0.29739091398E+02  0.00000000000E+00 0.  1.
</event>
<event>
 7    1  0.2318319E-009  0.4778726E+02  0.7816164E-02  0.1312668E+00
        -11   -1    0    0    0    0  0.00000000000E+00  0.00000000000E+00  0.45593999997E+02  0.45594000000E+02  0.51100000000E-03 0. -1.
         11   -1    0    0    0    0 -0.00000000000E+00 -0.00000000000E+00 -0.45593999997E+02  0.45594000000E+02  0.51100000000E-03 0.  1.
    9900012    2    1    2    0    0  0.18497635405E+02  0.35425744569E+02 -0.16925660914E+02  0.47787263932E+02  0.19999967573E+02 0.  0.
         12    1    1    2    0    0 -0.18497635405E+02 -0.35425744569E+02  0.16925660914E+02  0.43400736068E+02  0.00000000000E+00 0. -1.
         11    1    3    3    0    0 -0.67387661989E+00  0.90561608325E+01 -0.52708837496E+00  0.90964818001E+01  0.51100000000E-03 0. -1.
        -11    1    3    3    0    0  0.50347994815E+01  0.15463774844E+02 -0.34223841616E+01  0.16618972647E+02  0.51100000000E-03 0.  1.
         12    1    3    3    0    0  0.14136712543E+02  0.10905808893E+02 -0.12976188378E+02  0.22071809485E+02  0.00000000000E+00 0. -1.
</event>
<event>
 7    1  0.2318319E-009  0.4778727E+02  0.7816164E-02  0.1312668E+00
        -11   -1    0    0    0    0  0.00000000000E+00  0.00000000000E+00  0.45593999997E+02  0.45594000000E+02  0.51100000000E-03 0. -1.
         11   -1    0    0    0    0 -0.00000000000E+00 -0.00000000000E+00 -0.45593999997E+02  0.45594000000E+02  0.51100000000E-03 0.  1.
    9900012    2    1    2    0    0  0.42395993609E+02  0.83235250277E+01  0.41136670507E+01  0.47787267293E+02  0.19999982894E+02 0.  0.
         12    1    1    2    0    0 -0.42395993609E+02 -0.83235250277E+01 -0.41136670507E+01  0.43400732707E+02  0.00000000000E+00 0. -1.
         11    1    3    3    0    0  0.32141377861E+01  0.47619540587E+01  0.24888367937E+00  0.57505505399E+01  0.51100000000E-03 0. -1.
        -11    1    3    3    0    0  0.10537917887E+02 -0.11900706768E+01 -0.49353032787E+01  0.11697059474E+02  0.51100000000E-03 0.  1.
        -12    1    3    3    0    0  0.28643937935E+02  0.47516416458E+01  0.88000866500E+01  0.30339657279E+02  0.00000000000E+00 0.  1.
</event>
<event>
 7    1  0.2318319E-009  0.4778727E+02  0.7816164E-02  0.1312668E+00
        -11   -1    0    0    0    0  0.00000000000E+00  0.00000000000E+00  0.45593999997E+02  0.45594000000E+02  0.51100000000E-03 0.  1.
         11   -1    0    0    0    0 -0.00000000000E+00 -0.00000000000E+00 -0.45593999997E+02  0.45594000000E+02  0.51100000000E-03 0. -1.
    9900012    2    1    2    0    0 -0.28313527798E+02  0.25441920006E+02  0.20848885241E+02  0.47787272290E+02  0.20000005679E+02 0.  0.
         12    1    1    2    0    0  0.28313527798E+02 -0.25441920006E+02 -0.20848885241E+02  0.43400727710E+02  0.00000000000E+00 0. -1.
         11    1    3    3    0    0 -0.20625438384E+01  0.81807076603E+01  0.56461500235E+01  0.10151703072E+02  0.51100000000E-03 0. -1.
        -11    1    3    3    0    0 -0.66701986546E+01  0.71345488066E+00  0.90602631926E+01  0.11273372935E+02  0.51100000000E-03 0.  1.
        -12    1    3    3    0    0 -0.19580785305E+02  0.16547757465E+02  0.61424720251E+01  0.26362196283E+02  0.00000000000E+00 0.  1.
</event>
<event>
 7    1  0.2318319E-009  0.4778727E+02  0.7816164E-02  0.1312668E+00
        -11   -1    0    0    0    0  0.00000000000E+00  0.00000000000E+00  0.45593999997E+02  0.45594000000E+02  0.51100000000E-03 0.  1.
         11   -1    0    0    0    0 -0.00000000000E+00 -0.00000000000E+00 -0.45593999997E+02  0.45594000000E+02  0.51100000000E-03 0. -1.
    9900012    2    1    2    0    0 -0.42266224751E+02 -0.33381745321E+01 -0.92761273134E+01  0.47787266114E+02  0.19999977521E+02 0.  0.
         12    1    1    2    0    0  0.42266224751E+02  0.33381745321E+01  0.92761273134E+01  0.43400733886E+02  0.00000000000E+00 0. -1.
         11    1    3    3    0    0 -0.69515800595E+00  0.24561331517E+01  0.44275661088E+00  0.25907273863E+01  0.51100000000E-03 0. -1.
        -11    1    3    3    0    0 -0.86181837144E+01 -0.92290910877E+00  0.35149051618E+01  0.93530428373E+01  0.51100000000E-03 0.  1.
         12    1    3    3    0    0 -0.32952883030E+02 -0.48713985751E+01 -0.13233789086E+02  0.35843495891E+02  0.00000000000E+00 0. -1.
</event>
<event>
 7    1  0.2318319E-009  0.4778727E+02  0.7816164E-02  0.1312668E+00
        -11   -1    0    0    0    0  0.00000000000E+00  0.00000000000E+00  0.45593999997E+02  0.45594000000E+02  0.51100000000E-03 0.  1.
         11   -1    0    0    0    0 -0.00000000000E+00 -0.00000000000E+00 -0.45593999997E+02  0.45594000000E+02  0.51100000000E-03 0. -1.
    9900012    2    1    2    0    0 -0.65941592747E+00  0.38555866732E+01  0.43224100874E+02  0.47787271039E+02  0.19999999974E+02 0.  0.
         12    1    1    2    0    0  0.65941592747E+00 -0.38555866732E+01 -0.43224100874E+02  0.43400728961E+02  0.00000000000E+00 0. -1.
         11    1    3    3    0    0 -0.57037763117E+01  0.43216132754E+01  0.19202535879E+02  0.20492603299E+02  0.51100000000E-03 0. -1.
        -11    1    3    3    0    0 -0.16237241480E+01 -0.45565147564E+01  0.12149467155E+02  0.13076997333E+02  0.51100000000E-03 0.  1.
         12    1    3    3    0    0  0.66680845322E+01  0.40904881542E+01  0.11872097840E+02  0.14217670407E+02  0.00000000000E+00 0. -1.
</event>
<event>
 7    1  0.2318319E-009  0.4778727E+02  0.7816164E-02  0.1312668E+00
        -11   -1    0    0    0    0  0.00000000000E+00  0.00000000000E+00  0.45593999997E+02  0.45594000000E+02  0.51100000000E-03 0.  1.
         11   -1    0    0    0    0 -0.00000000000E+00 -0.00000000000E+00 -0.45593999997E+02  0.45594000000E+02  0.51100000000E-03 0. -1.
    9900012    2    1    2    0    0  0.37718402876E+02  0.15077132310E+02  0.15284815870E+02  0.47787269241E+02  0.19999991777E+02 0.  0.
         12    1    1    2    0    0 -0.37718402876E+02 -0.15077132310E+02 -0.15284815870E+02  0.43400730759E+02  0.00000000000E+00 0. -1.
         11    1    3    3    0    0 -0.70677928086E+00 -0.20831917859E+01 -0.45873681880E+00  0.22471459006E+01  0.51100000000E-03 0. -1.
        -11    1    3    3    0    0  0.82665347193E+01  0.24387620849E+01  0.63031646904E+01  0.10677688989E+02  0.51100000000E-03 0.  1.
        -12    1    3    3    0    0  0.30158647438E+02  0.14721562011E+02  0.94403879989E+01  0.34862434351E+02  0.00000000000E+00 0.  1.
</event>
<event>
 7    1  0.2318319E-009  0.4778730E+02  0.7816164E-02  0.1312668E+00
        -11   -1    0    0    0    0  0.00000000000E+00  0.00000000000E+00  0.45593999997E+02  0.45594000000E+02  0.51100000000E-03 0.  1.
         11   -1    0    0    0    0 -0.00000000000E+00 -0.00000000000E+00 -0.45593999997E+02  0.45594000000E+02  0.51100000000E-03 0. -1.
    9900012    2    1    2    0    0 -0.12635033521E+02  0.31691372086E+02  0.26825982501E+02  0.47787303302E+02  0.20000147074E+02 0.  0.
         12    1    1    2    0    0  0.12635033521E+02 -0.31691372086E+02 -0.26825982501E+02  0.43400696698E+02  0.00000000000E+00 0. -1.
         11    1    3    3    0    0 -0.38271022716E+00 -0.50912474797E+00  0.62333592327E+00  0.89119193293E+00  0.51100000000E-03 0. -1.
        -11    1    3    3    0    0 -0.11608969283E+02  0.12304928179E+02  0.19673753019E+02  0.25946791390E+02  0.51100000000E-03 0.  1.
        -12    1    3    3    0    0 -0.64335401082E+00  0.19895568655E+02  0.65288935580E+01  0.20949319979E+02  0.00000000000E+00 0.  1.
</event>
<event>
 7    1  0.2318319E-009  0.4778727E+02  0.7816164E-02  0.1312668E+00
        -11   -1    0    0    0    0  0.00000000000E+00  0.00000000000E+00  0.45593999997E+02  0.45594000000E+02  0.51100000000E-03 0.  1.
         11   -1    0    0    0    0 -0.00000000000E+00 -0.00000000000E+00 -0.45593999997E+02  0.45594000000E+02  0.51100000000E-03 0. -1.
    9900012    2    1    2    0    0 -0.18211435328E+02  0.29518155199E+02  0.26089181975E+02  0.47787270984E+02  0.19999999723E+02 0.  0.
         12    1    1    2    0    0  0.18211435328E+02 -0.29518155199E+02 -0.26089181975E+02  0.43400729016E+02  0.00000000000E+00 0. -1.
         11    1    3    3    0    0 -0.50443612900E+01  0.99519944048E+01 -0.15024960645E-01  0.11157419033E+02  0.51100000000E-03 0. -1.
        -11    1    3    3    0    0 -0.38530996797E+01  0.12822959495E+02  0.94363837653E+01  0.16380476372E+02  0.51100000000E-03 0.  1.
        -12    1    3    3    0    0 -0.93139743580E+01  0.67432012992E+01  0.16667823170E+02  0.20249375579E+02  0.00000000000E+00 0.  1.
</event>
<event>
 7    1  0.2318319E-009  0.4778727E+02  0.7816164E-02  0.1312668E+00
        -11   -1    0    0    0    0  0.00000000000E+00  0.00000000000E+00  0.45593999997E+02  0.45594000000E+02  0.51100000000E-03 0.  1.
         11   -1    0    0    0    0 -0.00000000000E+00 -0.00000000000E+00 -0.45593999997E+02  0.45594000000E+02  0.51100000000E-03 0. -1.
    9900012    2    1    2    0    0  0.16729612163E+01 -0.19738231975E+01  0.43323532121E+02  0.47787271749E+02  0.20000003213E+02 0.  0.
         12    1    1    2    0    0 -0.16729612163E+01  0.19738231975E+01 -0.43323532121E+02  0.43400728251E+02  0.00000000000E+00 0. -1.
         11    1    3    3    0    0 -0.46699437497E+01 -0.38547151591E+01  0.96306774692E+01  0.11376165978E+02  0.51100000000E-03 0. -1.
        -11    1    3    3    0    0 -0.13225922966E+01  0.49237831349E+01  0.85998822142E+01  0.99975429532E+01  0.51100000000E-03 0.  1.
        -12    1    3    3    0    0  0.76654972626E+01 -0.30428911733E+01  0.25092972438E+02  0.26413562818E+02  0.00000000000E+00 0.  1.
</event>
<event>
 7    1  0.2318319E-009  0.4778727E+02  0.7816164E-02  0.1312668E+00
        -11   -1    0    0    0    0  0.00000000000E+00  0.00000000000E+00  0.45593999997E+02  0.45594000000E+02  0.51100000000E-03 0.  1.
         11   -1    0    0    0    0 -0.00000000000E+00 -0.00000000000E+00 -0.45593999997E+02  0.45594000000E+02  0.51100000000E-03 0. -1.
    9900012    2    1    2    0    0 -0.12374530631E+02 -0.31094176674E+02  0.27634154594E+02  0.47787270381E+02  0.19999996975E+02 0.  0.
         12    1    1    2    0    0  0.12374530631E+02  0.31094176674E+02 -0.27634154594E+02  0.43400729619E+02  0.00000000000E+00 0. -1.
         11    1    3    3    0    0  0.20261478137E+01 -0.34082733721E+01  0.67769555528E+01  0.78516704699E+01  0.51100000000E-03 0. -1.
        -11    1    3    3    0    0 -0.57764002329E+00 -0.14653071131E+02  0.12119399726E+02  0.19024353118E+02  0.51100000000E-03 0.  1.
         12    1    3    3    0    0 -0.13823038421E+02 -0.13032832170E+02  0.87377993150E+01  0.20911246793E+02  0.00000000000E+00 0. -1.
</event>
<event>
 7    1  0.2318319E-009  0.4778728E+02  0.7816164E-02  0.1312668E+00
        -11   -1    0    0    0    0  0.00000000000E+00  0.00000000000E+00  0.45593999997E+02  0.45594000000E+02  0.51100000000E-03 0. -1.
         11   -1    0    0    0    0 -0.00000000000E+00 -0.00000000000E+00 -0.45593999997E+02  0.45594000000E+02  0.51100000000E-03 0.  1.
    9900012    2    1    2    0    0 -0.37307041779E+02  0.19878908517E+02 -0.98303727976E+01  0.47787278814E+02  0.20000035423E+02 0.  0.
         12    1    1    2    0    0  0.37307041779E+02 -0.19878908517E+02  0.98303727976E+01  0.43400721186E+02  0.00000000000E+00 0. -1.
         11    1    3    3    0    0 -0.10210361060E+02  0.11379948295E+02  0.25682094943E+00  0.15291195291E+02  0.51100000000E-03 0. -1.
        -11    1    3    3    0    0 -0.17689400903E+02  0.61495277643E+01 -0.31608141170E+00  0.18730496623E+02  0.51100000000E-03 0.  1.
        -12    1    3    3    0    0 -0.94072798171E+01  0.23494324575E+01 -0.97711123353E+01  0.13765586900E+02  0.00000000000E+00 0.  1.
</event>
<event>
 7    1  0.2318319E-009  0.4778727E+02  0.7816164E-02  0.1312668E+00
        -11   -1    0    0    0    0  0.00000000000E+00  0.00000000000E+00  0.45593999997E+02  0.45594000000E+02  0.51100000000E-03 0.  1.
         11   -1    0    0    0    0 -0.00000000000E+00 -0.00000000000E+00 -0.45593999997E+02  0.45594000000E+02  0.51100000000E-03 0. -1.
    9900012    2    1    2    0    0 -0.32597519760E+02  0.27074748026E+02  0.93799450606E+01  0.47787266775E+02  0.19999980532E+02 0.  0.
         12    1    1    2    0    0  0.32597519760E+02 -0.27074748026E+02 -0.93799450606E+01  0.43400733225E+02  0.00000000000E+00 0. -1.
         11    1    3    3    0    0 -0.85972464257E+01  0.71696476656E+01 -0.43569469748E+01  0.12012471892E+02  0.51100000000E-03 0. -1.
        -11    1    3    3    0    0  0.10188728523E+01  0.65060505924E+00 -0.26669676499E+00  0.12379484068E+01  0.51100000000E-03 0.  1.
         12    1    3    3    0    0 -0.25019146187E+02  0.19254495301E+02  0.14003588800E+02  0.34536846476E+02  0.00000000000E+00 0. -1.
</event>
<event>
 7    1  0.2318319E-009  0.4778726E+02  0.7816164E-02  0.1312668E+00
        -11   -1    0    0    0    0  0.00000000000E+00  0.00000000000E+00  0.45593999997E+02  0.45594000000E+02  0.51100000000E-03 0.  1.
         11   -1    0    0    0    0 -0.00000000000E+00 -0.00000000000E+00 -0.45593999997E+02  0.45594000000E+02  0.51100000000E-03 0. -1.
    9900012    2    1    2    0    0  0.10745853778E+02 -0.22087612797E+02  0.35781110455E+02  0.47787264086E+02  0.19999968272E+02 0.  0.
         12    1    1    2    0    0 -0.10745853778E+02  0.22087612797E+02 -0.35781110455E+02  0.43400735914E+02  0.00000000000E+00 0. -1.
         11    1    3    3    0    0 -0.28001865630E+01  0.63795534080E+00  0.79430853472E+01  0.84463386682E+01  0.51100000000E-03 0. -1.
        -11    1    3    3    0    0 -0.10442911026E+01 -0.24798448486E+01  0.40634766333E+01  0.48736041069E+01  0.51100000000E-03 0.  1.
        -12    1    3    3    0    0  0.14590331444E+02 -0.20245723289E+02  0.23774548475E+02  0.34467321311E+02  0.00000000000E+00 0.  1.
</event>
<event>
 7    1  0.2318319E-009  0.4778727E+02  0.7816164E-02  0.1312668E+00
        -11   -1    0    0    0    0  0.00000000000E+00  0.00000000000E+00  0.45593999997E+02  0.45594000000E+02  0.51100000000E-03 0. -1.
         11   -1    0    0    0    0 -0.00000000000E+00 -0.00000000000E+00 -0.45593999997E+02  0.45594000000E+02  0.51100000000E-03 0.  1.
    9900012    2    1    2    0    0 -0.52626984999E+01 -0.39870931111E+02 -0.16316741311E+02  0.47787272009E+02  0.20000004396E+02 0.  0.
         12    1    1    2    0    0  0.52626984999E+01  0.39870931111E+02  0.16316741311E+02  0.43400727991E+02  0.00000000000E+00 0. -1.
         11    1    3    3    0    0 -0.11973726318E+01 -0.18453043825E+01 -0.52513273881E+01  0.56934426388E+01  0.51100000000E-03 0. -1.
        -11    1    3    3    0    0 -0.70978386851E+01 -0.30586945769E+02 -0.12743907907E+02  0.33887280128E+02  0.51100000000E-03 0.  1.
         12    1    3    3    0    0  0.30325128170E+01 -0.74386809596E+01  0.16784939838E+01  0.82065492417E+01  0.00000000000E+00 0. -1.
</event>
<event>
 7    1  0.2318319E-009  0.4778727E+02  0.7816164E-02  0.1312668E+00
        -11   -1    0    0    0    0  0.00000000000E+00  0.00000000000E+00  0.45593999997E+02  0.45594000000E+02  0.51100000000E-03 0.  1.
         11   -1    0    0    0    0 -0.00000000000E+00 -0.00000000000E+00 -0.45593999997E+02  0.45594000000E+02  0.51100000000E-03 0. -1.
    9900012    2    1    2    0    0  0.39376064117E+02 -0.11790601867E+01  0.18214245403E+02  0.47787270238E+02  0.19999996325E+02 0.  0.
         12    1    1    2    0    0 -0.39376064117E+02  0.11790601867E+01 -0.18214245403E+02  0.43400729762E+02  0.00000000000E+00 0. -1.
         11    1    3    3    0    0  0.52457302902E+01 -0.48826379612E+01  0.69963404629E+01  0.10015319260E+02  0.51100000000E-03 0.  1.
        -11    1    3    3    0    0  0.15558332480E+02 -0.31113659160E+01  0.21555253929E+01  0.16012139064E+02  0.51100000000E-03 0. -1.
         12    1    3    3    0    0  0.18572001346E+02  0.68149436905E+01  0.90623795469E+01  0.21759811915E+02  0.00000000000E+00 0. -1.
</event>
<event>
 7    1  0.2318319E-009  0.4778727E+02  0.7816164E-02  0.1312668E+00
        -11   -1    0    0    0    0  0.00000000000E+00  0.00000000000E+00  0.45593999997E+02  0.45594000000E+02  0.51100000000E-03 0. -1.
         11   -1    0    0    0    0 -0.00000000000E+00 -0.00000000000E+00 -0.45593999997E+02  0.45594000000E+02  0.51100000000E-03 0.  1.
    9900012    2    1    2    0    0 -0.28355068677E+02 -0.24999788347E+02 -0.21321915411E+02  0.47787269432E+02  0.19999992649E+02 0.  0.
         12    1    1    2    0    0  0.28355068677E+02  0.24999788347E+02  0.21321915411E+02  0.43400730568E+02  0.00000000000E+00 0. -1.
         11    1    3    3    0    0 -0.85394806945E+01 -0.19755124890E+01 -0.33039785130E+01  0.93670515319E+01  0.51100000000E-03 0. -1.
        -11    1    3    3    0    0 -0.29326294754E+01 -0.25408760715E+01  0.27172830354E+01  0.47370871014E+01  0.51100000000E-03 0.  1.
        -12    1    3    3    0    0 -0.16882958507E+02 -0.20483399786E+02 -0.20735219933E+02  0.33683130799E+02  0.00000000000E+00 0.  1.
</event>
<event>
 7    1  0.2318319E-009  0.4778728E+02  0.7816164E-02  0.1312668E+00
        -11   -1    0    0    0    0  0.00000000000E+00  0.00000000000E+00  0.45593999997E+02  0.45594000000E+02  0.51100000000E-03 0. -1.
         11   -1    0    0    0    0 -0.00000000000E+00 -0.00000000000E+00 -0.45593999997E+02  0.45594000000E+02  0.51100000000E-03 0.  1.
    9900012    2    1    2    0    0  0.13568911675E+02  0.30790923778E+02 -0.27412154357E+02  0.47787279295E+02  0.20000037619E+02 0.  0.
         12    1    1    2    0    0 -0.13568911675E+02 -0.30790923778E+02  0.27412154357E+02  0.43400720705E+02  0.00000000000E+00 0. -1.
         11    1    3    3    0    0  0.66108727118E+01  0.18134870029E+00 -0.17766345052E+01  0.68478431487E+01  0.51100000000E-03 0. -1.
        -11    1    3    3    0    0  0.51177934435E+01  0.10235680461E+02 -0.85250195100E+01  0.14270140929E+02  0.51100000000E-03 0.  1.
         12    1    3    3    0    0  0.18402455194E+01  0.20373894617E+02 -0.17110500342E+02  0.26669295218E+02  0.00000000000E+00 0. -1.
</event>
<event>
 7    1  0.2318319E-009  0.4778727E+02  0.7816164E-02  0.1312668E+00
        -11   -1    0    0    0    0  0.00000000000E+00  0.00000000000E+00  0.45593999997E+02  0.45594000000E+02  0.51100000000E-03 0.  1.
         11   -1    0    0    0    0 -0.00000000000E+00 -0.00000000000E+00 -0.45593999997E+02  0.45594000000E+02  0.51100000000E-03 0. -1.
    9900012    2    1    2    0    0 -0.61163953105E+01 -0.42716923543E+02  0.46343876154E+01  0.47787269624E+02  0.19999993526E+02 0.  0.
         12    1    1    2    0    0  0.61163953105E+01  0.42716923543E+02 -0.46343876154E+01  0.43400730376E+02  0.00000000000E+00 0. -1.
         11    1    3    3    0    0 -0.18031707466E+01 -0.24698048513E+01 -0.17068524991E+01  0.35021002926E+01  0.51100000000E-03 0. -1.
        -11    1    3    3    0    0  0.31734136345E+01 -0.32968139812E+02  0.27153246539E+01  0.33231638314E+02  0.51100000000E-03 0.  1.
        -12    1    3    3    0    0 -0.74866381984E+01 -0.72789788793E+01  0.36259154606E+01  0.11053531018E+02  0.00000000000E+00 0.  1.
</event>
<event>
 7    1  0.2318319E-009  0.4778727E+02  0.7816164E-02  0.1312668E+00
        -11   -1    0    0    0    0  0.00000000000E+00  0.00000000000E+00  0.45593999997E+02  0.45594000000E+02  0.51100000000E-03 0.  1.
         11   -1    0    0    0    0 -0.00000000000E+00 -0.00000000000E+00 -0.45593999997E+02  0.45594000000E+02  0.51100000000E-03 0. -1.
    9900012    2    1    2    0    0  0.90202097143E+01  0.12949586780E+02  0.40429784677E+02  0.47787268784E+02  0.19999989695E+02 0.  0.
         12    1    1    2    0    0 -0.90202097143E+01 -0.12949586780E+02 -0.40429784677E+02  0.43400731216E+02  0.00000000000E+00 0. -1.
         11    1    3    3    0    0  0.10910143788E+02 -0.30893146578E-01  0.18070720758E+02  0.21108840348E+02  0.51100000000E-03 0. -1.
        -11    1    3    3    0    0  0.14808353341E+01  0.51343312626E+01  0.12742269746E+02  0.13817368395E+02  0.51100000000E-03 0.  1.
         12    1    3    3    0    0 -0.33707694074E+01  0.78461486637E+01  0.96167941719E+01  0.12861060042E+02  0.00000000000E+00 0. -1.
</event>
<event>
 7    1  0.2318319E-009  0.4778727E+02  0.7816164E-02  0.1312668E+00
        -11   -1    0    0    0    0  0.00000000000E+00  0.00000000000E+00  0.45593999997E+02  0.45594000000E+02  0.51100000000E-03 0.  1.
         11   -1    0    0    0    0 -0.00000000000E+00 -0.00000000000E+00 -0.45593999997E+02  0.45594000000E+02  0.51100000000E-03 0. -1.
    9900012    2    1    2    0    0  0.65442403016E+01 -0.91771727737E+01  0.41911522704E+02  0.47787270552E+02  0.19999997754E+02 0.  0.
         12    1    1    2    0    0 -0.65442403016E+01  0.91771727737E+01 -0.41911522704E+02  0.43400729448E+02  0.00000000000E+00 0. -1.
         11    1    3    3    0    0  0.38324213442E+01 -0.93402027993E+01  0.12551044052E+02  0.16107623932E+02  0.51100000000E-03 0. -1.
        -11    1    3    3    0    0 -0.26979054506E+01 -0.32354564477E+01  0.52186185094E+01  0.67067765471E+01  0.51100000000E-03 0.  1.
         12    1    3    3    0    0  0.54097244079E+01  0.33984864733E+01  0.24141860143E+02  0.24972870073E+02  0.00000000000E+00 0. -1.
</event>
<event>
 7    1  0.2318319E-009  0.4778727E+02  0.7816164E-02  0.1312668E+00
        -11   -1    0    0    0    0  0.00000000000E+00  0.00000000000E+00  0.45593999997E+02  0.45594000000E+02  0.51100000000E-03 0.  1.
         11   -1    0    0    0    0 -0.00000000000E+00 -0.00000000000E+00 -0.45593999997E+02  0.45594000000E+02  0.51100000000E-03 0. -1.
    9900012    2    1    2    0    0 -0.43801710499E+01  0.23040029434E+02  0.36518413404E+02  0.47787269911E+02  0.19999994832E+02 0.  0.
         12    1    1    2    0    0  0.43801710499E+01 -0.23040029434E+02 -0.36518413404E+02  0.43400730089E+02  0.00000000000E+00 0. -1.
         11    1    3    3    0    0 -0.32313393249E+01  0.35033036690E+01  0.13524456478E+02  0.14339651799E+02  0.51100000000E-03 0. -1.
        -11    1    3    3    0    0  0.47351740120E+01  0.15630115578E+01  0.74623278613E+01  0.89750328927E+01  0.51100000000E-03 0.  1.
         12    1    3    3    0    0 -0.58840057370E+01  0.17973714207E+02  0.15531629064E+02  0.24472585219E+02  0.00000000000E+00 0. -1.
</event>
<event>
 7    1  0.2318319E-009  0.4778730E+02  0.7816164E-02  0.1312668E+00
        -11   -1    0    0    0    0  0.00000000000E+00  0.00000000000E+00  0.45593999997E+02  0.45594000000E+02  0.51100000000E-03 0.  1.
         11   -1    0    0    0    0 -0.00000000000E+00 -0.00000000000E+00 -0.45593999997E+02  0.45594000000E+02  0.51100000000E-03 0. -1.
    9900012    2    1    2    0    0 -0.56067978220E+01 -0.13665399453E+02  0.40809824470E+02  0.47787296120E+02  0.20000114327E+02 0.  0.
         12    1    1    2    0    0  0.56067978220E+01  0.13665399453E+02 -0.40809824470E+02  0.43400703880E+02  0.00000000000E+00 0. -1.
         11    1    3    3    0    0 -0.44407703194E+01 -0.61285163829E+01  0.39396713918E+01  0.85323012735E+01  0.51100000000E-03 0. -1.
        -11    1    3    3    0    0  0.10621482052E+01 -0.85996095416E+01  0.15624062857E+02  0.17865967187E+02  0.51100000000E-03 0.  1.
        -12    1    3    3    0    0 -0.22281757078E+01  0.10627264714E+01  0.21246090221E+02  0.21389027660E+02  0.00000000000E+00 0.  1.
</event>
<event>
 7    1  0.2318319E-009  0.4778727E+02  0.7816164E-02  0.1312668E+00
        -11   -1    0    0    0    0  0.00000000000E+00  0.00000000000E+00  0.45593999997E+02  0.45594000000E+02  0.51100000000E-03 0.  1.
         11   -1    0    0    0    0 -0.00000000000E+00 -0.00000000000E+00 -0.45593999997E+02  0.45594000000E+02  0.51100000000E-03 0. -1.
    9900012    2    1    2    0    0  0.14637242234E+02 -0.62503394214E+01  0.40377071277E+02  0.47787268577E+02  0.19999988751E+02 0.  0.
         12    1    1    2    0    0 -0.14637242234E+02  0.62503394214E+01 -0.40377071277E+02  0.43400731423E+02  0.00000000000E+00 0. -1.
         11    1    3    3    0    0  0.10811198820E+02 -0.20547405354E+01  0.26628517906E+02  0.28812878105E+02  0.51100000000E-03 0. -1.
        -11    1    3    3    0    0  0.75301969716E+01 -0.45132075370E+01  0.68405543829E+01  0.11129514510E+02  0.51100000000E-03 0.  1.
         12    1    3    3    0    0 -0.37041535574E+01  0.31760865091E+00  0.69079989883E+01  0.78448759617E+01  0.00000000000E+00 0. -1.
</event>
<event>
 7    1  0.2318319E-009  0.4778727E+02  0.7816164E-02  0.1312668E+00
        -11   -1    0    0    0    0  0.00000000000E+00  0.00000000000E+00  0.45593999997E+02  0.45594000000E+02  0.51100000000E-03 0. -1.
         11   -1    0    0    0    0 -0.00000000000E+00 -0.00000000000E+00 -0.45593999997E+02  0.45594000000E+02  0.51100000000E-03 0.  1.
    9900012    2    1    2    0    0 -0.35109776806E+01  0.12466957956E+02 -0.41423076322E+02  0.47787271240E+02  0.20000000891E+02 0.  0.
         12    1    1    2    0    0  0.35109776806E+01 -0.12466957956E+02  0.41423076322E+02  0.43400728760E+02  0.00000000000E+00 0. -1.
         11    1    3    3    0    0 -0.67055522465E+01  0.18016637578E+01 -0.35106176030E+01  0.77804151202E+01  0.51100000000E-03 0. -1.
        -11    1    3    3    0    0  0.13321388863E+01  0.15203593083E+00 -0.12931711250E+01  0.18627938040E+01  0.51100000000E-03 0.  1.
        -12    1    3    3    0    0  0.18624356796E+01  0.10513258267E+02 -0.36619287594E+02  0.38144062316E+02  0.00000000000E+00 0.  1.
</event>
<event>
 7    1  0.2318319E-009  0.4778727E+02  0.7816164E-02  0.1312668E+00
        -11   -1    0    0    0    0  0.00000000000E+00  0.00000000000E+00  0.45593999997E+02  0.45594000000E+02  0.51100000000E-03 0.  1.
         11   -1    0    0    0    0 -0.00000000000E+00 -0.00000000000E+00 -0.45593999997E+02  0.45594000000E+02  0.51100000000E-03 0. -1.
    9900012    2    1    2    0    0  0.24377068063E+01 -0.15882091574E+02  0.40316745947E+02  0.47787271308E+02  0.20000001202E+02 0.  0.
         12    1    1    2    0    0 -0.24377068063E+01  0.15882091574E+02 -0.40316745947E+02  0.43400728692E+02  0.00000000000E+00 0. -1.
         11    1    3    3    0    0 -0.69500521988E+01 -0.10790961876E+02  0.13928502582E+02  0.18940730404E+02  0.51100000000E-03 0.  1.
        -11    1    3    3    0    0  0.73090790588E+00  0.84116990126E+00  0.33545669018E+01  0.35348143558E+01  0.51100000000E-03 0. -1.
        -12    1    3    3    0    0  0.86568510992E+01 -0.59322995995E+01  0.23033676463E+02  0.25311726549E+02  0.00000000000E+00 0.  1.
</event>
<event>
 7    1  0.2318319E-009  0.4778727E+02  0.7816164E-02  0.1312668E+00
        -11   -1    0    0    0    0  0.00000000000E+00  0.00000000000E+00  0.45593999997E+02  0.45594000000E+02  0.51100000000E-03 0.  1.
         11   -1    0    0    0    0 -0.00000000000E+00 -0.00000000000E+00 -0.45593999997E+02  0.45594000000E+02  0.51100000000E-03 0. -1.
    9900012    2    1    2    0    0 -0.75798348643E+00 -0.43392793709E+02 -0.33819220519E+00  0.47787268914E+02  0.19999990287E+02 0.  0.
         12    1    1    2    0    0  0.75798348643E+00  0.43392793709E+02  0.33819220519E+00  0.43400731086E+02  0.00000000000E+00 0. -1.
         11    1    3    3    0    0  0.93791911444E+00 -0.10997101847E+02 -0.29299695091E+01  0.11419310964E+02  0.51100000000E-03 0. -1.
        -11    1    3    3    0    0  0.54343456750E+01 -0.11778194156E+02 -0.40069006064E+01  0.13576200618E+02  0.51100000000E-03 0.  1.
         12    1    3    3    0    0 -0.71302482758E+01 -0.20617497706E+02  0.65986779104E+01  0.22791757332E+02  0.00000000000E+00 0. -1.
</event>
<event>
 7    1  0.2318319E-009  0.4778727E+02  0.7816164E-02  0.1312668E+00
        -11   -1    0    0    0    0  0.00000000000E+00  0.00000000000E+00  0.45593999997E+02  0.45594000000E+02  0.51100000000E-03 0.  1.
         11   -1    0    0    0    0 -0.00000000000E+00 -0.00000000000E+00 -0.45593999997E+02  0.45594000000E+02  0.51100000000E-03 0. -1.
    9900012    2    1    2    0    0 -0.30011495591E+01 -0.15842811961E+02  0.40294188784E+02  0.47787271443E+02  0.20000001816E+02 0.  0.
         12    1    1    2    0    0  0.30011495591E+01  0.15842811961E+02 -0.40294188784E+02  0.43400728557E+02  0.00000000000E+00 0. -1.
         11    1    3    3    0    0 -0.96054850855E+00 -0.11199009696E+02  0.96019350900E+01  0.14783018276E+02  0.51100000000E-03 0. -1.
        -11    1    3    3    0    0 -0.25148383535E+01 -0.79742923957E+01  0.17577327807E+02  0.19464742594E+02  0.51100000000E-03 0.  1.
         12    1    3    3    0    0  0.47423730295E+00  0.33304901302E+01  0.13114925887E+02  0.13539510573E+02  0.00000000000E+00 0. -1.
</event>
<event>
 7    1  0.2318319E-009  0.4778728E+02  0.7816164E-02  0.1312668E+00
        -11   -1    0    0    0    0  0.00000000000E+00  0.00000000000E+00  0.45593999997E+02  0.45594000000E+02  0.51100000000E-03 0.  1.
         11   -1    0    0    0    0 -0.00000000000E+00 -0.00000000000E+00 -0.45593999997E+02  0.45594000000E+02  0.51100000000E-03 0. -1.
    9900012    2    1    2    0    0  0.42400000736E+02  0.79373289205E+01  0.47813690082E+01  0.47787277168E+02  0.20000027918E+02 0.  0.
         12    1    1    2    0    0 -0.42400000736E+02 -0.79373289205E+01 -0.47813690082E+01  0.43400722832E+02  0.00000000000E+00 0. -1.
         11    1    3    3    0    0  0.14403574371E+01 -0.31663979580E+01 -0.82395505127E+00  0.35748577262E+01  0.51100000000E-03 0. -1.
        -11    1    3    3    0    0  0.18153973814E+02  0.10047233492E+02  0.51470443857E+01  0.21377692398E+02  0.51100000000E-03 0.  1.
         12    1    3    3    0    0  0.22805669484E+02  0.10564933867E+01  0.45827967376E+00  0.22834727044E+02  0.00000000000E+00 0. -1.
</event>
<event>
 7    1  0.2318319E-009  0.4778727E+02  0.7816164E-02  0.1312668E+00
        -11   -1    0    0    0    0  0.00000000000E+00  0.00000000000E+00  0.45593999997E+02  0.45594000000E+02  0.51100000000E-03 0.  1.
         11   -1    0    0    0    0 -0.00000000000E+00 -0.00000000000E+00 -0.45593999997E+02  0.45594000000E+02  0.51100000000E-03 0. -1.
    9900012    2    1    2    0    0  0.27277168947E+02 -0.27130310446E+02 -0.20087940794E+02  0.47787273554E+02  0.20000011443E+02 0.  0.
         12    1    1    2    0    0 -0.27277168947E+02  0.27130310446E+02  0.20087940794E+02  0.43400726446E+02  0.00000000000E+00 0. -1.
         11    1    3    3    0    0  0.66994527752E+01 -0.35581964178E+01 -0.92618107866E+01  0.11971823944E+02  0.51100000000E-03 0. -1.
        -11    1    3    3    0    0  0.16545478949E+02 -0.86867933429E+01 -0.51710785027E+01  0.19389515346E+02  0.51100000000E-03 0.  1.
        -12    1    3    3    0    0  0.40322372232E+01 -0.14885320685E+02 -0.56550515051E+01  0.16425934264E+02  0.00000000000E+00 0.  1.
</event>
<event>
 7    1  0.2318319E-009  0.4778727E+02  0.7816164E-02  0.1312668E+00
        -11   -1    0    0    0    0  0.00000000000E+00  0.00000000000E+00  0.45593999997E+02  0.45594000000E+02  0.51100000000E-03 0. -1.
         11   -1    0    0    0    0 -0.00000000000E+00 -0.00000000000E+00 -0.45593999997E+02  0.45594000000E+02  0.51100000000E-03 0.  1.
    9900012    2    1    2    0    0 -0.40022457028E+02 -0.44360139748E+01  0.16190999128E+02  0.47787265682E+02  0.19999975551E+02 0.  0.
         12    1    1    2    0    0  0.40022457028E+02  0.44360139748E+01 -0.16190999128E+02  0.43400734318E+02  0.00000000000E+00 0. -1.
         11    1    3    3    0    0 -0.53084378741E+00  0.22587189893E+00 -0.89026605049E+00  0.10608426571E+01  0.51100000000E-03 0. -1.
        -11    1    3    3    0    0 -0.29947353875E+02  0.44725509210E+01  0.11691546283E+02  0.32458280463E+02  0.51100000000E-03 0.  1.
         12    1    3    3    0    0 -0.95442593654E+01 -0.91344367947E+01  0.53897188959E+01  0.14268142562E+02  0.00000000000E+00 0. -1.
</event>
<event>
 7    1  0.2318319E-009  0.4778728E+02  0.7816164E-02  0.1312668E+00
        -11   -1    0    0    0    0  0.00000000000E+00  0.00000000000E+00  0.45593999997E+02  0.45594000000E+02  0.51100000000E-03 0.  1.
         11   -1    0    0    0    0 -0.00000000000E+00 -0.00000000000E+00 -0.45593999997E+02  0.45594000000E+02  0.51100000000E-03 0. -1.
    9900012    2    1    2    0    0 -0.22786228189E+02 -0.33963393495E+02  0.14522348067E+02  0.47787275511E+02  0.20000020366E+02 0.  0.
         12    1    1    2    0    0  0.22786228189E+02  0.33963393495E+02 -0.14522348067E+02  0.43400724489E+02  0.00000000000E+00 0. -1.
         11    1    3    3    0    0 -0.13690404385E+02 -0.19443973129E+02  0.33011476459E+01  0.24008182757E+02  0.51100000000E-03 0. -1.
        -11    1    3    3    0    0 -0.84601220620E+01 -0.43228650415E+01  0.13918204748E+01  0.96019785443E+01  0.51100000000E-03 0.  1.
        -12    1    3    3    0    0 -0.63570174232E+00 -0.10196555325E+02  0.98293799461E+01  0.14177114210E+02  0.00000000000E+00 0.  1.
</event>
<event>
 7    1  0.2318319E-009  0.4778727E+02  0.7816164E-02  0.1312668E+00
        -11   -1    0    0    0    0  0.00000000000E+00  0.00000000000E+00  0.45593999997E+02  0.45594000000E+02  0.51100000000E-03 0.  1.
         11   -1    0    0    0    0 -0.00000000000E+00 -0.00000000000E+00 -0.45593999997E+02  0.45594000000E+02  0.51100000000E-03 0. -1.
    9900012    2    1    2    0    0  0.76033066320E+01  0.68864084570E+01  0.42170966629E+02  0.47787270518E+02  0.19999997598E+02 0.  0.
         12    1    1    2    0    0 -0.76033066320E+01 -0.68864084570E+01 -0.42170966629E+02  0.43400729482E+02  0.00000000000E+00 0. -1.
         11    1    3    3    0    0  0.46928965231E+01  0.21705380153E+01  0.30447922782E+02  0.30883822870E+02  0.51100000000E-03 0. -1.
        -11    1    3    3    0    0  0.57370020173E+01  0.32927012790E+01  0.12025151376E+02  0.13724406717E+02  0.51100000000E-03 0.  1.
         12    1    3    3    0    0 -0.28265919084E+01  0.14231691627E+01 -0.30210752858E+00  0.31790409310E+01  0.00000000000E+00 0. -1.
</event>
<event>
 7    1  0.2318319E-009  0.4778727E+02  0.7816164E-02  0.1312668E+00
        -11   -1    0    0    0    0  0.00000000000E+00  0.00000000000E+00  0.45593999997E+02  0.45594000000E+02  0.51100000000E-03 0.  1.
         11   -1    0    0    0    0 -0.00000000000E+00 -0.00000000000E+00 -0.45593999997E+02  0.45594000000E+02  0.51100000000E-03 0. -1.
    9900012    2    1    2    0    0 -0.35583029682E+02  0.16714544224E+02  0.18387368518E+02  0.47787270617E+02  0.19999998050E+02 0.  0.
         12    1    1    2    0    0  0.35583029682E+02 -0.16714544224E+02 -0.18387368518E+02  0.43400729383E+02  0.00000000000E+00 0. -1.
         11    1    3    3    0    0 -0.69073512058E+01  0.47421687336E+00 -0.17776130385E+01  0.71481669468E+01  0.51100000000E-03 0. -1.
        -11    1    3    3    0    0 -0.12710294058E+02  0.24876006029E+01  0.26080123893E+01  0.13211414031E+02  0.51100000000E-03 0.  1.
        -12    1    3    3    0    0 -0.15965384418E+02  0.13752726748E+02  0.17556969167E+02  0.27427689639E+02  0.00000000000E+00 0.  1.
</event>
<event>
 7    1  0.2318319E-009  0.4778727E+02  0.7816164E-02  0.1312668E+00
        -11   -1    0    0    0    0  0.00000000000E+00  0.00000000000E+00  0.45593999997E+02  0.45594000000E+02  0.51100000000E-03 0.  1.
         11   -1    0    0    0    0 -0.00000000000E+00 -0.00000000000E+00 -0.45593999997E+02  0.45594000000E+02  0.51100000000E-03 0. -1.
    9900012    2    1    2    0    0  0.28519474900E+02 -0.28894756321E+02  0.15341306218E+02  0.47787273418E+02  0.20000010820E+02 0.  0.
         12    1    1    2    0    0 -0.28519474900E+02  0.28894756321E+02 -0.15341306218E+02  0.43400726582E+02  0.00000000000E+00 0. -1.
         11    1    3    3    0    0  0.15394767621E+02 -0.16501378317E+02  0.12155954766E+02  0.25633212694E+02  0.51100000000E-03 0. -1.
        -11    1    3    3    0    0  0.14207813722E+02 -0.12271612637E+02  0.55276225527E+01  0.19570617231E+02  0.51100000000E-03 0.  1.
         12    1    3    3    0    0 -0.10831064426E+01 -0.12176536719E+00 -0.23422711009E+01  0.25834434929E+01  0.00000000000E+00 0. -1.
</event>
<event>
 7    1  0.2318319E-009  0.4778727E+02  0.7816164E-02  0.1312668E+00
        -11   -1    0    0    0    0  0.00000000000E+00  0.00000000000E+00  0.45593999997E+02  0.45594000000E+02  0.51100000000E-03 0.  1.
         11   -1    0    0    0    0 -0.00000000000E+00 -0.00000000000E+00 -0.45593999997E+02  0.45594000000E+02  0.51100000000E-03 0. -1.
    9900012    2    1    2    0    0 -0.33447759541E+01 -0.38447426665E+01  0.43100505793E+02  0.47787272218E+02  0.20000005352E+02 0.  0.
         12    1    1    2    0    0  0.33447759541E+01  0.38447426665E+01 -0.43100505793E+02  0.43400727782E+02  0.00000000000E+00 0. -1.
         11    1    3    3    0    0 -0.11450314706E+01  0.24265785795E+00  0.52839702641E+01  0.54120533920E+01  0.51100000000E-03 0.  1.
        -11    1    3    3    0    0 -0.21264481462E+01  0.31754281012E+01 -0.46384773778E-01  0.38219467752E+01  0.51100000000E-03 0. -1.
         12    1    3    3    0    0 -0.73296337276E-01 -0.72628286256E+01  0.37862920303E+02  0.38553272051E+02  0.00000000000E+00 0. -1.
</event>
<event>
 7    1  0.2318319E-009  0.4778729E+02  0.7816164E-02  0.1312668E+00
        -11   -1    0    0    0    0  0.00000000000E+00  0.00000000000E+00  0.45593999997E+02  0.45594000000E+02  0.51100000000E-03 0.  1.
         11   -1    0    0    0    0 -0.00000000000E+00 -0.00000000000E+00 -0.45593999997E+02  0.45594000000E+02  0.51100000000E-03 0. -1.
    9900012    2    1    2    0    0 -0.37259853210E+02 -0.18192523863E+02  0.12820196757E+02  0.47787285367E+02  0.20000065302E+02 0.  0.
         12    1    1    2    0    0  0.37259853210E+02  0.18192523863E+02 -0.12820196757E+02  0.43400714633E+02  0.00000000000E+00 0. -1.
         11    1    3    3    0    0 -0.29532529119E+01 -0.44122417325E+01  0.11070315138E+01  0.54235688344E+01  0.51100000000E-03 0. -1.
        -11    1    3    3    0    0 -0.35471867492E+02 -0.10249028461E+02  0.99020306252E+01  0.38227557842E+02  0.51100000000E-03 0.  1.
        -12    1    3    3    0    0  0.11652671938E+01 -0.35312536693E+01  0.18111346185E+01  0.41361586909E+01  0.00000000000E+00 0.  1.
</event>
<event>
 7    1  0.2318319E-009  0.4778725E+02  0.7816164E-02  0.1312668E+00
        -11   -1    0    0    0    0  0.00000000000E+00  0.00000000000E+00  0.45593999997E+02  0.45594000000E+02  0.51100000000E-03 0. -1.
         11   -1    0    0    0    0 -0.00000000000E+00 -0.00000000000E+00 -0.45593999997E+02  0.45594000000E+02  0.51100000000E-03 0.  1.
    9900012    2    1    2    0    0  0.11271730917E+02 -0.17060892065E+02 -0.38281832978E+02  0.47787254707E+02  0.19999925509E+02 0.  0.
         12    1    1    2    0    0 -0.11271730917E+02  0.17060892065E+02  0.38281832978E+02  0.43400745293E+02  0.00000000000E+00 0. -1.
         11    1    3    3    0    0  0.24230180140E+01 -0.45879996664E+00 -0.70561619398E+01  0.74746863002E+01  0.51100000000E-03 0. -1.
        -11    1    3    3    0    0 -0.42453653196E+00 -0.72690105157E+01 -0.10027785407E+01  0.73501231423E+01  0.51100000000E-03 0.  1.
        -12    1    3    3    0    0  0.92732494348E+01 -0.93330815822E+01 -0.30222892497E+02  0.32962445264E+02  0.00000000000E+00 0.  1.
</event>
<event>
 7    1  0.2318319E-009  0.4778727E+02  0.7816164E-02  0.1312668E+00
        -11   -1    0    0    0    0  0.00000000000E+00  0.00000000000E+00  0.45593999997E+02  0.45594000000E+02  0.51100000000E-03 0. -1.
         11   -1    0    0    0    0 -0.00000000000E+00 -0.00000000000E+00 -0.45593999997E+02  0.45594000000E+02  0.51100000000E-03 0.  1.
    9900012    2    1    2    0    0 -0.37495152646E+02 -0.24123747253E+01  0.21723659237E+02  0.47787269656E+02  0.19999993670E+02 0.  0.
         12    1    1    2    0    0  0.37495152646E+02  0.24123747253E+01 -0.21723659237E+02  0.43400730344E+02  0.00000000000E+00 0. -1.
         11    1    3    3    0    0 -0.29727723092E+01 -0.42777424763E+01  0.27738084233E+01  0.59017344337E+01  0.51100000000E-03 0. -1.
        -11    1    3    3    0    0 -0.55911189790E+01  0.13624003189E+00 -0.21961425701E+01  0.60085118983E+01  0.51100000000E-03 0.  1.
        -12    1    3    3    0    0 -0.28931261358E+02  0.17291277191E+01  0.21145993384E+02  0.35877023324E+02  0.00000000000E+00 0.  1.
</event>
<event>
 7    1  0.2318319E-009  0.4778727E+02  0.7816164E-02  0.1312668E+00
        -11   -1    0    0    0    0  0.00000000000E+00  0.00000000000E+00  0.45593999997E+02  0.45594000000E+02  0.51100000000E-03 0.  1.
         11   -1    0    0    0    0 -0.00000000000E+00 -0.00000000000E+00 -0.45593999997E+02  0.45594000000E+02  0.51100000000E-03 0. -1.
    9900012    2    1    2    0    0 -0.19899502425E+02 -0.17292925633E+02  0.34475900293E+02  0.47787272187E+02  0.20000005207E+02 0.  0.
         12    1    1    2    0    0  0.19899502425E+02  0.17292925633E+02 -0.34475900293E+02  0.43400727813E+02  0.00000000000E+00 0. -1.
         11    1    3    3    0    0 -0.46949803090E+01 -0.20622843191E+01  0.67122407892E+01  0.84468948962E+01  0.51100000000E-03 0. -1.
        -11    1    3    3    0    0 -0.85726317065E+01 -0.16443110855E+02  0.11717587515E+02  0.21935536611E+02  0.51100000000E-03 0.  1.
        -12    1    3    3    0    0 -0.66318904091E+01  0.12124695412E+01  0.16046071990E+02  0.17404840680E+02  0.00000000000E+00 0.  1.
</event>
<event>
 7    1  0.2318319E-009  0.4778727E+02  0.7816164E-02  0.1312668E+00
        -11   -1    0    0    0    0  0.00000000000E+00  0.00000000000E+00  0.45593999997E+02  0.45594000000E+02  0.51100000000E-03 0.  1.
         11   -1    0    0    0    0 -0.00000000000E+00 -0.00000000000E+00 -0.45593999997E+02  0.45594000000E+02  0.51100000000E-03 0. -1.
    9900012    2    1    2    0    0 -0.42303487228E+02  0.78957246117E+01 -0.56298920561E+01  0.47787272088E+02  0.20000004756E+02 0.  0.
         12    1    1    2    0    0  0.42303487228E+02 -0.78957246117E+01  0.56298920561E+01  0.43400727912E+02  0.00000000000E+00 0. -1.
         11    1    3    3    0    0 -0.12670249367E+02  0.28829534541E+01  0.73009153038E+01  0.14904697386E+02  0.51100000000E-03 0. -1.
        -11    1    3    3    0    0 -0.14607669722E+02  0.40085156656E+01 -0.57945482954E+01  0.16218168909E+02  0.51100000000E-03 0.  1.
         12    1    3    3    0    0 -0.15025568139E+02  0.10042554920E+01 -0.71362590645E+01  0.16664405793E+02  0.00000000000E+00 0. -1.
</event>
<event>
 7    1  0.2318319E-009  0.4778727E+02  0.7816164E-02  0.1312668E+00
        -11   -1    0    0    0    0  0.00000000000E+00  0.00000000000E+00  0.45593999997E+02  0.45594000000E+02  0.51100000000E-03 0. -1.
         11   -1    0    0    0    0 -0.00000000000E+00 -0.00000000000E+00 -0.45593999997E+02  0.45594000000E+02  0.51100000000E-03 0.  1.
    9900012    2    1    2    0    0  0.40874457430E+02  0.57573854014E+01  0.13407255811E+02  0.47787271144E+02  0.20000000454E+02 0.  0.
         12    1    1    2    0    0 -0.40874457430E+02 -0.57573854014E+01 -0.13407255811E+02  0.43400728856E+02  0.00000000000E+00 0. -1.
         11    1    3    3    0    0  0.91895162594E+01 -0.11573497127E+01  0.35214367528E+01  0.99089446716E+01  0.51100000000E-03 0. -1.
        -11    1    3    3    0    0  0.31599687397E+02  0.57067708956E+01  0.12919071176E+02  0.34612279294E+02  0.51100000000E-03 0.  1.
         12    1    3    3    0    0  0.85253773673E-01  0.12079642185E+01 -0.30332521179E+01  0.32660471781E+01  0.00000000000E+00 0. -1.
</event>
<event>
 7    1  0.2318319E-009  0.4778727E+02  0.7816164E-02  0.1312668E+00
        -11   -1    0    0    0    0  0.00000000000E+00  0.00000000000E+00  0.45593999997E+02  0.45594000000E+02  0.51100000000E-03 0.  1.
         11   -1    0    0    0    0 -0.00000000000E+00 -0.00000000000E+00 -0.45593999997E+02  0.45594000000E+02  0.51100000000E-03 0. -1.
    9900012    2    1    2    0    0 -0.13283584837E+02  0.38565257403E+02 -0.14828700962E+02  0.47787273313E+02  0.20000010345E+02 0.  0.
         12    1    1    2    0    0  0.13283584837E+02 -0.38565257403E+02  0.14828700962E+02  0.43400726687E+02  0.00000000000E+00 0. -1.
         11    1    3    3    0    0  0.14115831821E+01  0.46851985456E+01 -0.39044298918E+01  0.62600499625E+01  0.51100000000E-03 0. -1.
        -11    1    3    3    0    0  0.80534205490E+00  0.52302539901E+01  0.30210319365E+01  0.60935020185E+01  0.51100000000E-03 0.  1.
         12    1    3    3    0    0 -0.15500510074E+02  0.28649804868E+02 -0.13945303006E+02  0.35433721332E+02  0.00000000000E+00 0. -1.
</event>
<event>
 7    1  0.2318319E-009  0.4778727E+02  0.7816164E-02  0.1312668E+00
        -11   -1    0    0    0    0  0.00000000000E+00  0.00000000000E+00  0.45593999997E+02  0.45594000000E+02  0.51100000000E-03 0.  1.
         11   -1    0    0    0    0 -0.00000000000E+00 -0.00000000000E+00 -0.45593999997E+02  0.45594000000E+02  0.51100000000E-03 0. -1.
    9900012    2    1    2    0    0 -0.33128069091E+02 -0.35410214326E+01  0.27813943734E+02  0.47787271199E+02  0.20000000704E+02 0.  0.
         12    1    1    2    0    0  0.33128069091E+02  0.35410214326E+01 -0.27813943734E+02  0.43400728801E+02  0.00000000000E+00 0. -1.
         11    1    3    3    0    0 -0.41775574189E+00  0.13446420409E+01 -0.15847873409E+01  0.21199370875E+01  0.51100000000E-03 0. -1.
        -11    1    3    3    0    0 -0.16902414874E+01  0.21629637558E+01  0.44986714367E+01  0.52700449192E+01  0.51100000000E-03 0.  1.
         12    1    3    3    0    0 -0.31020071861E+02 -0.70486272292E+01  0.24900059638E+02  0.40397289192E+02  0.00000000000E+00 0. -1.
</event>
<event>
 7    1  0.2318319E-009  0.4778727E+02  0.7816164E-02  0.1312668E+00
        -11   -1    0    0    0    0  0.00000000000E+00  0.00000000000E+00  0.45593999997E+02  0.45594000000E+02  0.51100000000E-03 0.  1.
         11   -1    0    0    0    0 -0.00000000000E+00 -0.00000000000E+00 -0.45593999997E+02  0.45594000000E+02  0.51100000000E-03 0. -1.
    9900012    2    1    2    0    0  0.14703702889E+02  0.19434070565E+01  0.40787835107E+02  0.47787271868E+02  0.20000003757E+02 0.  0.
         12    1    1    2    0    0 -0.14703702889E+02 -0.19434070565E+01 -0.40787835107E+02  0.43400728132E+02  0.00000000000E+00 0. -1.
         11    1    3    3    0    0  0.88092430796E+01  0.58996945019E+01  0.11506067286E+02  0.15646045619E+02  0.51100000000E-03 0. -1.
        -11    1    3    3    0    0  0.82974138570E+01 -0.42496722935E+01  0.15037702496E+02  0.17692916321E+02  0.51100000000E-03 0.  1.
         12    1    3    3    0    0 -0.24029540473E+01  0.29338484814E+00  0.14244065325E+02  0.14448309929E+02  0.00000000000E+00 0. -1.
</event>
<event>
 7    1  0.2318319E-009  0.4778727E+02  0.7816164E-02  0.1312668E+00
        -11   -1    0    0    0    0  0.00000000000E+00  0.00000000000E+00  0.45593999997E+02  0.45594000000E+02  0.51100000000E-03 0.  1.
         11   -1    0    0    0    0 -0.00000000000E+00 -0.00000000000E+00 -0.45593999997E+02  0.45594000000E+02  0.51100000000E-03 0. -1.
    9900012    2    1    2    0    0 -0.17459441846E+02 -0.16563349461E+02  0.36117123243E+02  0.47787271362E+02  0.20000001449E+02 0.  0.
         12    1    1    2    0    0  0.17459441846E+02  0.16563349461E+02 -0.36117123243E+02  0.43400728638E+02  0.00000000000E+00 0. -1.
         11    1    3    3    0    0 -0.77404850129E+01 -0.17946749552E+01  0.32715691929E+01  0.85929698984E+01  0.51100000000E-03 0. -1.
        -11    1    3    3    0    0 -0.11160197271E+02 -0.67773089309E+01  0.17518135024E+02  0.21848729356E+02  0.51100000000E-03 0.  1.
        -12    1    3    3    0    0  0.14412404386E+01 -0.79913655744E+01  0.15327419026E+02  0.17345572108E+02  0.00000000000E+00 0.  1.
</event>
<event>
 7    1  0.2318319E-009  0.4778727E+02  0.7816164E-02  0.1312668E+00
        -11   -1    0    0    0    0  0.00000000000E+00  0.00000000000E+00  0.45593999997E+02  0.45594000000E+02  0.51100000000E-03 0. -1.
         11   -1    0    0    0    0 -0.00000000000E+00 -0.00000000000E+00 -0.45593999997E+02  0.45594000000E+02  0.51100000000E-03 0.  1.
    9900012    2    1    2    0    0  0.32923765213E+02  0.14160969800E+02 -0.24476840952E+02  0.47787272766E+02  0.20000007848E+02 0.  0.
         12    1    1    2    0    0 -0.32923765213E+02 -0.14160969800E+02  0.24476840952E+02  0.43400727234E+02  0.00000000000E+00 0. -1.
         11    1    3    3    0    0  0.11776927267E+02  0.10947452530E+02 -0.14301212185E+02  0.21519000975E+02  0.51100000000E-03 0. -1.
        -11    1    3    3    0    0  0.29352150722E+01  0.51189452665E+01 -0.22403307585E+01  0.63117485953E+01  0.51100000000E-03 0.  1.
        -12    1    3    3    0    0  0.18211622874E+02 -0.19054279967E+01 -0.79352980091E+01  0.19956523195E+02  0.00000000000E+00 0.  1.
</event>
<event>
 7    1  0.2318319E-009  0.4778727E+02  0.7816164E-02  0.1312668E+00
        -11   -1    0    0    0    0  0.00000000000E+00  0.00000000000E+00  0.45593999997E+02  0.45594000000E+02  0.51100000000E-03 0. -1.
         11   -1    0    0    0    0 -0.00000000000E+00 -0.00000000000E+00 -0.45593999997E+02  0.45594000000E+02  0.51100000000E-03 0.  1.
    9900012    2    1    2    0    0 -0.22359048000E+02  0.18945237474E+02 -0.32012093446E+02  0.47787272158E+02  0.20000005078E+02 0.  0.
         12    1    1    2    0    0  0.22359048000E+02 -0.18945237474E+02  0.32012093446E+02  0.43400727842E+02  0.00000000000E+00 0. -1.
         11    1    3    3    0    0 -0.49442088077E+01  0.25091132251E+01 -0.67838092822E+01  0.87613308663E+01  0.51100000000E-03 0. -1.
        -11    1    3    3    0    0 -0.19689774881E+02  0.17505160479E+02 -0.25278388600E+02  0.36511844773E+02  0.51100000000E-03 0.  1.
         12    1    3    3    0    0  0.22749356893E+01 -0.10690362297E+01  0.50104436328E-01  0.25140965187E+01  0.00000000000E+00 0. -1.
</event>
<event>
 7    1  0.2318319E-009  0.4778727E+02  0.7816164E-02  0.1312668E+00
        -11   -1    0    0    0    0  0.00000000000E+00  0.00000000000E+00  0.45593999997E+02  0.45594000000E+02  0.51100000000E-03 0.  1.
         11   -1    0    0    0    0 -0.00000000000E+00 -0.00000000000E+00 -0.45593999997E+02  0.45594000000E+02  0.51100000000E-03 0. -1.
    9900012    2    1    2    0    0  0.22318959491E+02 -0.36140544127E+02  0.89077797383E+01  0.47787269333E+02  0.19999992197E+02 0.  0.
         12    1    1    2    0    0 -0.22318959491E+02  0.36140544127E+02 -0.89077797383E+01  0.43400730667E+02  0.00000000000E+00 0. -1.
         11    1    3    3    0    0  0.49495388423E+00 -0.80813202784E+01  0.18985768524E+01  0.83160874885E+01  0.51100000000E-03 0. -1.
        -11    1    3    3    0    0 -0.73535937112E+00 -0.18474844520E+01 -0.28821052664E+01  0.35014972844E+01  0.51100000000E-03 0.  1.
        -12    1    3    3    0    0  0.22559364978E+02 -0.26211739397E+02  0.98913081523E+01  0.35969684560E+02  0.00000000000E+00 0.  1.
</event>
<event>
 7    1  0.2318319E-009  0.4778727E+02  0.7816164E-02  0.1312668E+00
        -11   -1    0    0    0    0  0.00000000000E+00  0.00000000000E+00  0.45593999997E+02  0.45594000000E+02  0.51100000000E-03 0.  1.
         11   -1    0    0    0    0 -0.00000000000E+00 -0.00000000000E+00 -0.45593999997E+02  0.45594000000E+02  0.51100000000E-03 0. -1.
    9900012    2    1    2    0    0  0.15553983135E+02  0.20077269915E+02  0.35193749302E+02  0.47787272489E+02  0.20000006585E+02 0.  0.
         12    1    1    2    0    0 -0.15553983135E+02 -0.20077269915E+02 -0.35193749302E+02  0.43400727511E+02  0.00000000000E+00 0. -1.
         11    1    3    3    0    0  0.10326096050E+02  0.54361798233E+01  0.13695968996E+02  0.17993328700E+02  0.51100000000E-03 0. -1.
        -11    1    3    3    0    0  0.79054352861E+01  0.15424075883E+02  0.15813390403E+02  0.23461912544E+02  0.51100000000E-03 0.  1.
         12    1    3    3    0    0 -0.26775482007E+01 -0.78298579221E+00  0.56843899031E+01  0.63320312450E+01  0.00000000000E+00 0. -1.
</event>
<event>
 7    1  0.2318319E-009  0.4778727E+02  0.7816164E-02  0.1312668E+00
        -11   -1    0    0    0    0  0.00000000000E+00  0.00000000000E+00  0.45593999997E+02  0.45594000000E+02  0.51100000000E-03 0. -1.
         11   -1    0    0    0    0 -0.00000000000E+00 -0.00000000000E+00 -0.45593999997E+02  0.45594000000E+02  0.51100000000E-03 0.  1.
    9900012    2    1    2    0    0 -0.29764356434E+02  0.30289454082E+02 -0.89585328306E+01  0.47787271285E+02  0.20000001095E+02 0.  0.
         12    1    1    2    0    0  0.29764356434E+02 -0.30289454082E+02  0.89585328306E+01  0.43400728715E+02  0.00000000000E+00 0. -1.
         11    1    3    3    0    0 -0.22373092116E+02  0.14105044885E+02 -0.69020419067E+01  0.27333966503E+02  0.51100000000E-03 0.  1.
        -11    1    3    3    0    0 -0.70516075280E+01  0.60841805676E+01  0.20641681855E+01  0.95395603917E+01  0.51100000000E-03 0. -1.
        -12    1    3    3    0    0 -0.33965679029E+00  0.10100228630E+02 -0.41206591094E+01  0.10913744390E+02  0.00000000000E+00 0.  1.
</event>
<event>
 7    1  0.2318319E-009  0.4778727E+02  0.7816164E-02  0.1312668E+00
        -11   -1    0    0    0    0  0.00000000000E+00  0.00000000000E+00  0.45593999997E+02  0.45594000000E+02  0.51100000000E-03 0.  1.
         11   -1    0    0    0    0 -0.00000000000E+00 -0.00000000000E+00 -0.45593999997E+02  0.45594000000E+02  0.51100000000E-03 0. -1.
    9900012    2    1    2    0    0  0.71899661739E+01  0.23023191564E+02  0.36081300479E+02  0.47787271807E+02  0.20000003479E+02 0.  0.
         12    1    1    2    0    0 -0.71899661739E+01 -0.23023191564E+02 -0.36081300479E+02  0.43400728193E+02  0.00000000000E+00 0. -1.
         11    1    3    3    0    0 -0.31470462066E+01  0.45884822335E+01  0.27662201457E+01  0.62136980285E+01  0.51100000000E-03 0. -1.
        -11    1    3    3    0    0  0.42595171231E+01  0.14563595884E+02  0.12872800196E+02  0.19898512415E+02  0.51100000000E-03 0.  1.
         12    1    3    3    0    0  0.60774952574E+01  0.38711134471E+01  0.20442280137E+02  0.21675061364E+02  0.00000000000E+00 0. -1.
</event>
<event>
 7    1  0.2318319E-009  0.4778727E+02  0.7816164E-02  0.1312668E+00
        -11   -1    0    0    0    0  0.00000000000E+00  0.00000000000E+00  0.45593999997E+02  0.45594000000E+02  0.51100000000E-03 0.  1.
         11   -1    0    0    0    0 -0.00000000000E+00 -0.00000000000E+00 -0.45593999997E+02  0.45594000000E+02  0.51100000000E-03 0. -1.
    9900012    2    1    2    0    0  0.43231284355E+02 -0.37887940272E+01 -0.56949003651E+00  0.47787271596E+02  0.20000002513E+02 0.  0.
         12    1    1    2    0    0 -0.43231284355E+02  0.37887940272E+01  0.56949003651E+00  0.43400728404E+02  0.00000000000E+00 0. -1.
         11    1    3    3    0    0  0.48752213114E+01  0.31571026876E+01  0.80764052272E+00  0.58640739840E+01  0.51100000000E-03 0. -1.
        -11    1    3    3    0    0  0.21522911815E+02  0.38619632679E+01  0.70496460324E-01  0.21866766183E+02  0.51100000000E-03 0.  1.
         12    1    3    3    0    0  0.16833151228E+02 -0.10807859983E+02 -0.14476270196E+01  0.20056431429E+02  0.00000000000E+00 0. -1.
</event>
<event>
 7    1  0.2318319E-009  0.4778728E+02  0.7816164E-02  0.1312668E+00
        -11   -1    0    0    0    0  0.00000000000E+00  0.00000000000E+00  0.45593999997E+02  0.45594000000E+02  0.51100000000E-03 0.  1.
         11   -1    0    0    0    0 -0.00000000000E+00 -0.00000000000E+00 -0.45593999997E+02  0.45594000000E+02  0.51100000000E-03 0. -1.
    9900012    2    1    2    0    0 -0.37655663435E+02  0.19294664320E+02  0.96638224057E+01  0.47787279690E+02  0.20000039418E+02 0.  0.
         12    1    1    2    0    0  0.37655663435E+02 -0.19294664320E+02 -0.96638224057E+01  0.43400720310E+02  0.00000000000E+00 0. -1.
         11    1    3    3    0    0 -0.24072376470E+02  0.76013022667E+01  0.83369326758E+01  0.26585024953E+02  0.51100000000E-03 0. -1.
        -11    1    3    3    0    0 -0.13183835929E+02  0.47300079798E+01 -0.41656773484E+00  0.14012852466E+02  0.51100000000E-03 0.  1.
         12    1    3    3    0    0 -0.39945103614E+00  0.69633540733E+01  0.17434574648E+01  0.71894022709E+01  0.00000000000E+00 0. -1.
</event>
<event>
 7    1  0.2318319E-009  0.4778727E+02  0.7816164E-02  0.1312668E+00
        -11   -1    0    0    0    0  0.00000000000E+00  0.00000000000E+00  0.45593999997E+02  0.45594000000E+02  0.51100000000E-03 0. -1.
         11   -1    0    0    0    0 -0.00000000000E+00 -0.00000000000E+00 -0.45593999997E+02  0.45594000000E+02  0.51100000000E-03 0.  1.
    9900012    2    1    2    0    0  0.10221827007E+02  0.41806995796E+02  0.55957880137E+01  0.47787268574E+02  0.19999988736E+02 0.  0.
         12    1    1    2    0    0 -0.10221827007E+02 -0.41806995796E+02 -0.55957880137E+01  0.43400731426E+02  0.00000000000E+00 0. -1.
         11    1    3    3    0    0 -0.12784562131E+01 -0.56624580836E+00 -0.23299410131E+01  0.27172982887E+01  0.51100000000E-03 0.  1.
        -11    1    3    3    0    0  0.15198770197E+01  0.37874157600E+01 -0.10546773415E+01  0.42150787478E+01  0.51100000000E-03 0. -1.
        -12    1    3    3    0    0  0.99804062003E+01  0.38585825844E+02  0.89804063682E+01  0.40854891537E+02  0.00000000000E+00 0.  1.
</event>
<event>
 7    1  0.2318319E-009  0.4778726E+02  0.7816164E-02  0.1312668E+00
        -11   -1    0    0    0    0  0.00000000000E+00  0.00000000000E+00  0.45593999997E+02  0.45594000000E+02  0.51100000000E-03 0.  1.
         11   -1    0    0    0    0 -0.00000000000E+00 -0.00000000000E+00 -0.45593999997E+02  0.45594000000E+02  0.51100000000E-03 0. -1.
    9900012    2    1    2    0    0  0.38203783413E+02  0.45605825835E+01  0.20082229321E+02  0.47787263658E+02  0.19999966322E+02 0.  0.
         12    1    1    2    0    0 -0.38203783413E+02 -0.45605825835E+01 -0.20082229321E+02  0.43400736342E+02  0.00000000000E+00 0. -1.
         11    1    3    3    0    0  0.46683563949E+01 -0.20366513877E+01  0.96101796562E+00  0.51831511744E+01  0.51100000000E-03 0. -1.
        -11    1    3    3    0    0  0.33205993197E+02  0.99517457215E+01  0.16881879182E+02  0.38557399706E+02  0.51100000000E-03 0.  1.
         12    1    3    3    0    0  0.32943382091E+00 -0.33545117503E+01  0.22393321731E+01  0.40467127779E+01  0.00000000000E+00 0. -1.
</event>
<event>
 7    1  0.2318319E-009  0.4778728E+02  0.7816164E-02  0.1312668E+00
        -11   -1    0    0    0    0  0.00000000000E+00  0.00000000000E+00  0.45593999997E+02  0.45594000000E+02  0.51100000000E-03 0. -1.
         11   -1    0    0    0    0 -0.00000000000E+00 -0.00000000000E+00 -0.45593999997E+02  0.45594000000E+02  0.51100000000E-03 0.  1.
    9900012    2    1    2    0    0 -0.67318346561E+01 -0.25152351816E+02 -0.34722679445E+02  0.47787275726E+02  0.20000021343E+02 0.  0.
         12    1    1    2    0    0  0.67318346561E+01  0.25152351816E+02  0.34722679445E+02  0.43400724274E+02  0.00000000000E+00 0. -1.
         11    1    3    3    0    0 -0.39541708018E+01 -0.59185158386E+00 -0.86223812761E+01  0.95042734682E+01  0.51100000000E-03 0. -1.
        -11    1    3    3    0    0 -0.56326134945E+01 -0.46509399482E+01 -0.10678827512E+02  0.12938119433E+02  0.51100000000E-03 0.  1.
         12    1    3    3    0    0  0.28549496401E+01 -0.19909560284E+02 -0.15421470657E+02  0.25344882824E+02  0.00000000000E+00 0. -1.
</event>
<event>
 7    1  0.2318319E-009  0.4778727E+02  0.7816164E-02  0.1312668E+00
        -11   -1    0    0    0    0  0.00000000000E+00  0.00000000000E+00  0.45593999997E+02  0.45594000000E+02  0.51100000000E-03 0.  1.
         11   -1    0    0    0    0 -0.00000000000E+00 -0.00000000000E+00 -0.45593999997E+02  0.45594000000E+02  0.51100000000E-03 0. -1.
    9900012    2    1    2    0    0 -0.12136215280E+01 -0.40704185323E+02 -0.15010646519E+02  0.47787273175E+02  0.20000009713E+02 0.  0.
         12    1    1    2    0    0  0.12136215280E+01  0.40704185323E+02  0.15010646519E+02  0.43400726825E+02  0.00000000000E+00 0. -1.
         11    1    3    3    0    0  0.51277999894E+01 -0.11338362523E+02 -0.48734237127E+01  0.13364245448E+02  0.51100000000E-03 0. -1.
        -11    1    3    3    0    0 -0.88205655906E+00 -0.16655603851E+02  0.93398154030E+00  0.16705073637E+02  0.51100000000E-03 0.  1.
         12    1    3    3    0    0 -0.54593649583E+01 -0.12710218948E+02 -0.11071204347E+02  0.17717954090E+02  0.00000000000E+00 0. -1.
</event>
<event>
 7    1  0.2318319E-009  0.4778727E+02  0.7816164E-02  0.1312668E+00
        -11   -1    0    0    0    0  0.00000000000E+00  0.00000000000E+00  0.45593999997E+02  0.45594000000E+02  0.51100000000E-03 0. -1.
         11   -1    0    0    0    0 -0.00000000000E+00 -0.00000000000E+00 -0.45593999997E+02  0.45594000000E+02  0.51100000000E-03 0.  1.
    9900012    2    1    2    0    0  0.25309924105E+02  0.20446563863E+02 -0.28722276365E+02  0.47787269689E+02  0.19999993819E+02 0.  0.
         12    1    1    2    0    0 -0.25309924105E+02 -0.20446563863E+02  0.28722276365E+02  0.43400730311E+02  0.00000000000E+00 0. -1.
         11    1    3    3    0    0 -0.14745443887E+00 -0.23203191774E+01 -0.15057495619E+01  0.27700010651E+01  0.51100000000E-03 0. -1.
        -11    1    3    3    0    0  0.85213058284E+01  0.24443547123E+01 -0.36455855730E+01  0.95852917228E+01  0.51100000000E-03 0.  1.
        -12    1    3    3    0    0  0.16936072715E+02  0.20322528328E+02 -0.23570941230E+02  0.35431976901E+02  0.00000000000E+00 0.  1.
</event>
<event>
 7    1  0.2318319E-009  0.4778726E+02  0.7816164E-02  0.1312668E+00
        -11   -1    0    0    0    0  0.00000000000E+00  0.00000000000E+00  0.45593999997E+02  0.45594000000E+02  0.51100000000E-03 0. -1.
         11   -1    0    0    0    0 -0.00000000000E+00 -0.00000000000E+00 -0.45593999997E+02  0.45594000000E+02  0.51100000000E-03 0.  1.
    9900012    2    1    2    0    0  0.24226620625E+02 -0.23817058318E+02 -0.27008194836E+02  0.47787262654E+02  0.19999961746E+02 0.  0.
         12    1    1    2    0    0 -0.24226620625E+02  0.23817058318E+02  0.27008194836E+02  0.43400737346E+02  0.00000000000E+00 0. -1.
         11    1    3    3    0    0  0.13408358811E+01 -0.94424151036E+01 -0.13743084498E+02  0.16728102571E+02  0.51100000000E-03 0. -1.
        -11    1    3    3    0    0  0.83443658933E+01 -0.77435699136E+01 -0.90167374191E+01  0.14522151050E+02  0.51100000000E-03 0.  1.
         12    1    3    3    0    0  0.14541418850E+02 -0.66310733012E+01 -0.42483729190E+01  0.16537009033E+02  0.00000000000E+00 0. -1.
</event>
<event>
 7    1  0.2318319E-009  0.4778727E+02  0.7816164E-02  0.1312668E+00
        -11   -1    0    0    0    0  0.00000000000E+00  0.00000000000E+00  0.45593999997E+02  0.45594000000E+02  0.51100000000E-03 0. -1.
         11   -1    0    0    0    0 -0.00000000000E+00 -0.00000000000E+00 -0.45593999997E+02  0.45594000000E+02  0.51100000000E-03 0.  1.
    9900012    2    1    2    0    0 -0.22186095580E+01 -0.28299108277E+02 -0.32830802144E+02  0.47787270432E+02  0.19999997208E+02 0.  0.
         12    1    1    2    0    0  0.22186095580E+01  0.28299108277E+02  0.32830802144E+02  0.43400729568E+02  0.00000000000E+00 0. -1.
         11    1    3    3    0    0  0.50201442992E+01 -0.13526716529E+02 -0.10380934870E+02  0.17774636927E+02  0.51100000000E-03 0. -1.
        -11    1    3    3    0    0  0.12416572520E+01 -0.12661251948E+01  0.69553113763E+00  0.19048752098E+01  0.51100000000E-03 0.  1.
         12    1    3    3    0    0 -0.84804111092E+01 -0.13506266553E+02 -0.23145398411E+02  0.28107758296E+02  0.00000000000E+00 0. -1.
</event>
<event>
 7    1  0.2318319E-009  0.4778727E+02  0.7816164E-02  0.1312668E+00
        -11   -1    0    0    0    0  0.00000000000E+00  0.00000000000E+00  0.45593999997E+02  0.45594000000E+02  0.51100000000E-03 0. -1.
         11   -1    0    0    0    0 -0.00000000000E+00 -0.00000000000E+00 -0.45593999997E+02  0.45594000000E+02  0.51100000000E-03 0.  1.
    9900012    2    1    2    0    0  0.18897846588E+02 -0.78495170995E+01 -0.38273752085E+02  0.47787267022E+02  0.19999981662E+02 0.  0.
         12    1    1    2    0    0 -0.18897846588E+02  0.78495170995E+01  0.38273752085E+02  0.43400732978E+02  0.00000000000E+00 0. -1.
         11    1    3    3    0    0  0.13675546107E+02 -0.39378611533E+01 -0.11518024094E+02  0.18308254725E+02  0.51100000000E-03 0. -1.
        -11    1    3    3    0    0  0.29588798240E+01  0.34628256426E+01 -0.81281324034E+01  0.93173315854E+01  0.51100000000E-03 0.  1.
        -12    1    3    3    0    0  0.22634206570E+01 -0.73744815888E+01 -0.18627595587E+02  0.20161680712E+02  0.00000000000E+00 0.  1.
</event>
<event>
 7    1  0.2318319E-009  0.4778726E+02  0.7816164E-02  0.1312668E+00
        -11   -1    0    0    0    0  0.00000000000E+00  0.00000000000E+00  0.45593999997E+02  0.45594000000E+02  0.51100000000E-03 0. -1.
         11   -1    0    0    0    0 -0.00000000000E+00 -0.00000000000E+00 -0.45593999997E+02  0.45594000000E+02  0.51100000000E-03 0.  1.
    9900012    2    1    2    0    0  0.36620198730E+02 -0.17650983857E+02 -0.15199610110E+02  0.47787258836E+02  0.19999944335E+02 0.  0.
         12    1    1    2    0    0 -0.36620198730E+02  0.17650983857E+02  0.15199610110E+02  0.43400741164E+02  0.00000000000E+00 0. -1.
         11    1    3    3    0    0  0.42497164431E+01 -0.44379937142E+01  0.32516417485E+01  0.69519099805E+01  0.51100000000E-03 0. -1.
        -11    1    3    3    0    0  0.10836780260E+02 -0.98370766369E+00 -0.18909385399E+01  0.11044416508E+02  0.51100000000E-03 0.  1.
         12    1    3    3    0    0  0.21533702027E+02 -0.12229282479E+02 -0.16560313318E+02  0.29790932347E+02  0.00000000000E+00 0. -1.
</event>
<event>
 7    1  0.2318319E-009  0.4778725E+02  0.7816164E-02  0.1312668E+00
        -11   -1    0    0    0    0  0.00000000000E+00  0.00000000000E+00  0.45593999997E+02  0.45594000000E+02  0.51100000000E-03 0.  1.
         11   -1    0    0    0    0 -0.00000000000E+00 -0.00000000000E+00 -0.45593999997E+02  0.45594000000E+02  0.51100000000E-03 0. -1.
    9900012    2    1    2    0    0 -0.26387768950E+02 -0.29901715475E+02  0.17123024740E+02  0.47787252141E+02  0.19999913809E+02 0.  0.
         12    1    1    2    0    0  0.26387768950E+02  0.29901715475E+02 -0.17123024740E+02  0.43400747859E+02  0.00000000000E+00 0. -1.
         11    1    3    3    0    0 -0.12651269668E+02 -0.82898897021E+01  0.76264081382E+01  0.16939273799E+02  0.51100000000E-03 0. -1.
        -11    1    3    3    0    0 -0.12172775332E+02 -0.10236302925E+02 -0.66371064242E-01  0.15904803118E+02  0.51100000000E-03 0.  1.
         12    1    3    3    0    0 -0.15637239507E+01 -0.11375522848E+02  0.95629876663E+01  0.14943175224E+02  0.00000000000E+00 0. -1.
</event>
<event>
 7    1  0.2318319E-009  0.4778727E+02  0.7816164E-02  0.1312668E+00
        -11   -1    0    0    0    0  0.00000000000E+00  0.00000000000E+00  0.45593999997E+02  0.45594000000E+02  0.51100000000E-03 0.  1.
         11   -1    0    0    0    0 -0.00000000000E+00 -0.00000000000E+00 -0.45593999997E+02  0.45594000000E+02  0.51100000000E-03 0. -1.
    9900012    2    1    2    0    0  0.12975339698E+02  0.23579516693E+02  0.34048059947E+02  0.47787269200E+02  0.19999991593E+02 0.  0.
         12    1    1    2    0    0 -0.12975339698E+02 -0.23579516693E+02 -0.34048059947E+02  0.43400730800E+02  0.00000000000E+00 0. -1.
         11    1    3    3    0    0  0.61770861294E+01  0.71270178639E-01  0.11652509630E+02  0.13188724481E+02  0.51100000000E-03 0. -1.
        -11    1    3    3    0    0 -0.19228138092E+01  0.23717623172E+01  0.50401147723E+01  0.58928114354E+01  0.51100000000E-03 0.  1.
         12    1    3    3    0    0  0.87210673778E+01  0.21136484197E+02  0.17355435545E+02  0.28705733284E+02  0.00000000000E+00 0. -1.
</event>
<event>
 7    1  0.2318319E-009  0.4778727E+02  0.7816164E-02  0.1312668E+00
        -11   -1    0    0    0    0  0.00000000000E+00  0.00000000000E+00  0.45593999997E+02  0.45594000000E+02  0.51100000000E-03 0.  1.
         11   -1    0    0    0    0 -0.00000000000E+00 -0.00000000000E+00 -0.45593999997E+02  0.45594000000E+02  0.51100000000E-03 0. -1.
    9900012    2    1    2    0    0  0.39862440620E+02 -0.12046204603E+02  0.12226932046E+02  0.47787273223E+02  0.20000009932E+02 0.  0.
         12    1    1    2    0    0 -0.39862440620E+02  0.12046204603E+02 -0.12226932046E+02  0.43400726777E+02  0.00000000000E+00 0. -1.
         11    1    3    3    0    0 -0.54557841530E+00 -0.17591979509E+01 -0.12187064543E+01  0.22085467893E+01  0.51100000000E-03 0. -1.
        -11    1    3    3    0    0  0.28172065829E+01 -0.47582870852E+01  0.22331331533E+01  0.59636258147E+01  0.51100000000E-03 0.  1.
        -12    1    3    3    0    0  0.37590812452E+02 -0.55287195670E+01  0.11212505347E+02  0.39615100619E+02  0.00000000000E+00 0.  1.
</event>
<event>
 7    1  0.2318319E-009  0.4778727E+02  0.7816164E-02  0.1312668E+00
        -11   -1    0    0    0    0  0.00000000000E+00  0.00000000000E+00  0.45593999997E+02  0.45594000000E+02  0.51100000000E-03 0.  1.
         11   -1    0    0    0    0 -0.00000000000E+00 -0.00000000000E+00 -0.45593999997E+02  0.45594000000E+02  0.51100000000E-03 0. -1.
    9900012    2    1    2    0    0  0.32246267951E+02  0.26399736512E+02  0.12118393734E+02  0.47787270151E+02  0.19999995928E+02 0.  0.
         12    1    1    2    0    0 -0.32246267951E+02 -0.26399736512E+02 -0.12118393734E+02  0.43400729849E+02  0.00000000000E+00 0. -1.
         11    1    3    3    0    0  0.20766454983E+02  0.13757154585E+02  0.60044905806E+01  0.25623404579E+02  0.51100000000E-03 0. -1.
        -11    1    3    3    0    0  0.80578706674E+01  0.11742025333E+02  0.96175018648E+01  0.17184317880E+02  0.51100000000E-03 0.  1.
        -12    1    3    3    0    0  0.34219423012E+01  0.90055659416E+00 -0.35035987115E+01  0.49795476926E+01  0.00000000000E+00 0.  1.
</event>
<event>
 7    1  0.2318319E-009  0.4778728E+02  0.7816164E-02  0.1312668E+00
        -11   -1    0    0    0    0  0.00000000000E+00  0.00000000000E+00  0.45593999997E+02  0.45594000000E+02  0.51100000000E-03 0.  1.
         11   -1    0    0    0    0 -0.00000000000E+00 -0.00000000000E+00 -0.45593999997E+02  0.45594000000E+02  0.51100000000E-03 0. -1.
    9900012    2    1    2    0    0 -0.27281750466E+02 -0.35351086213E+00  0.33752090058E+02  0.47787280401E+02  0.20000042662E+02 0.  0.
         12    1    1    2    0    0  0.27281750466E+02  0.35351086213E+00 -0.33752090058E+02  0.43400719599E+02  0.00000000000E+00 0. -1.
         11    1    3    3    0    0 -0.41388753501E+01 -0.36006311262E+01  0.12050175589E+00  0.54871991585E+01  0.51100000000E-03 0. -1.
        -11    1    3    3    0    0  0.58535022137E+00 -0.43989983214E+00  0.44447280387E+01  0.45046369823E+01  0.51100000000E-03 0.  1.
        -12    1    3    3    0    0 -0.23728225337E+02  0.36870200962E+01  0.29186860263E+02  0.37795444261E+02  0.00000000000E+00 0.  1.
</event>
<event>
 7    1  0.2318319E-009  0.4778727E+02  0.7816164E-02  0.1312668E+00
        -11   -1    0    0    0    0  0.00000000000E+00  0.00000000000E+00  0.45593999997E+02  0.45594000000E+02  0.51100000000E-03 0. -1.
         11   -1    0    0    0    0 -0.00000000000E+00 -0.00000000000E+00 -0.45593999997E+02  0.45594000000E+02  0.51100000000E-03 0.  1.
    9900012    2    1    2    0    0  0.31517846792E+02 -0.70418973376E+00 -0.29828729876E+02  0.47787266416E+02  0.19999978898E+02 0.  0.
         12    1    1    2    0    0 -0.31517846792E+02  0.70418973376E+00  0.29828729876E+02  0.43400733584E+02  0.00000000000E+00 0. -1.
         11    1    3    3    0    0 -0.97530681576E+00 -0.59171026906E+00  0.11133523599E+01  0.15940194998E+01  0.51100000000E-03 0. -1.
        -11    1    3    3    0    0  0.62444028079E+01  0.27898251331E+01 -0.22552382564E+01  0.72015130740E+01  0.51100000000E-03 0.  1.
        -12    1    3    3    0    0  0.26248750800E+02 -0.29023045978E+01 -0.28686843980E+02  0.38991733842E+02  0.00000000000E+00 0.  1.
</event>
<event>
 7    1  0.2318319E-009  0.4778729E+02  0.7816164E-02  0.1312668E+00
        -11   -1    0    0    0    0  0.00000000000E+00  0.00000000000E+00  0.45593999997E+02  0.45594000000E+02  0.51100000000E-03 0. -1.
         11   -1    0    0    0    0 -0.00000000000E+00 -0.00000000000E+00 -0.45593999997E+02  0.45594000000E+02  0.51100000000E-03 0.  1.
    9900012    2    1    2    0    0  0.42570203964E+02  0.84021851676E+01  0.89592717176E+00  0.47787289561E+02  0.20000084425E+02 0.  0.
         12    1    1    2    0    0 -0.42570203964E+02 -0.84021851676E+01 -0.89592717176E+00  0.43400710439E+02  0.00000000000E+00 0. -1.
         11    1    3    3    0    0  0.76916412662E+01  0.12861786953E+01 -0.98141011893E+00  0.78599470155E+01  0.51100000000E-03 0. -1.
        -11    1    3    3    0    0  0.35237874249E+02  0.70433269825E+01 -0.20401356785E+01  0.35992754694E+02  0.51100000000E-03 0.  1.
         12    1    3    3    0    0 -0.35931155197E+00  0.72679489802E-01  0.39174729692E+01  0.39345878519E+01  0.00000000000E+00 0. -1.
</event>
<event>
 7    1  0.2318319E-009  0.4778727E+02  0.7816164E-02  0.1312668E+00
        -11   -1    0    0    0    0  0.00000000000E+00  0.00000000000E+00  0.45593999997E+02  0.45594000000E+02  0.51100000000E-03 0. -1.
         11   -1    0    0    0    0 -0.00000000000E+00 -0.00000000000E+00 -0.45593999997E+02  0.45594000000E+02  0.51100000000E-03 0.  1.
    9900012    2    1    2    0    0 -0.37181319479E+02  0.11747932533E+02 -0.19056730805E+02  0.47787269293E+02  0.19999992013E+02 0.  0.
         12    1    1    2    0    0  0.37181319479E+02 -0.11747932533E+02  0.19056730805E+02  0.43400730707E+02  0.00000000000E+00 0. -1.
         11    1    3    3    0    0 -0.18459089602E+01  0.24871085092E+01  0.34972522191E+01  0.46716016494E+01  0.51100000000E-03 0. -1.
        -11    1    3    3    0    0 -0.90455202361E+01  0.10107543022E+01 -0.43217055696E+01  0.10075723294E+02  0.51100000000E-03 0.  1.
        -12    1    3    3    0    0 -0.26289890282E+02  0.82500697213E+01 -0.18232277454E+02  0.33039944350E+02  0.00000000000E+00 0.  1.
</event>
<event>
 7    1  0.2318319E-009  0.4778727E+02  0.7816164E-02  0.1312668E+00
        -11   -1    0    0    0    0  0.00000000000E+00  0.00000000000E+00  0.45593999997E+02  0.45594000000E+02  0.51100000000E-03 0.  1.
         11   -1    0    0    0    0 -0.00000000000E+00 -0.00000000000E+00 -0.45593999997E+02  0.45594000000E+02  0.51100000000E-03 0. -1.
    9900012    2    1    2    0    0  0.26929649687E+01 -0.14071166520E+02  0.40967958081E+02  0.47787269858E+02  0.19999994590E+02 0.  0.
         12    1    1    2    0    0 -0.26929649687E+01  0.14071166520E+02 -0.40967958081E+02  0.43400730142E+02  0.00000000000E+00 0. -1.
         11    1    3    3    0    0 -0.10207018054E+01 -0.19397067737E+01  0.14951597279E+02  0.15111404832E+02  0.51100000000E-03 0. -1.
        -11    1    3    3    0    0  0.72399618219E+01 -0.10623602991E+02  0.25810673362E+02  0.28835201531E+02  0.51100000000E-03 0.  1.
         12    1    3    3    0    0 -0.35262950479E+01 -0.15078567552E+01  0.20568744029E+00  0.38406634950E+01  0.00000000000E+00 0. -1.
</event>
<event>
 7    1  0.2318319E-009  0.4778727E+02  0.7816164E-02  0.1312668E+00
        -11   -1    0    0    0    0  0.00000000000E+00  0.00000000000E+00  0.45593999997E+02  0.45594000000E+02  0.51100000000E-03 0. -1.
         11   -1    0    0    0    0 -0.00000000000E+00 -0.00000000000E+00 -0.45593999997E+02  0.45594000000E+02  0.51100000000E-03 0.  1.
    9900012    2    1    2    0    0  0.33439558198E+02  0.18906710847E+01 -0.27601528033E+02  0.47787273746E+02  0.20000012317E+02 0.  0.
         12    1    1    2    0    0 -0.33439558198E+02 -0.18906710847E+01  0.27601528033E+02  0.43400726254E+02  0.00000000000E+00 0. -1.
         11    1    3    3    0    0  0.97430485968E+01 -0.16488994355E+01 -0.24231435237E-01  0.98816219686E+01  0.51100000000E-03 0.  1.
        -11    1    3    3    0    0  0.35247300699E+01  0.33235805072E+01 -0.17886619444E+01  0.51642251370E+01  0.51100000000E-03 0. -1.
        -12    1    3    3    0    0  0.20171779531E+02  0.21599001303E+00 -0.25788634654E+02  0.32741426640E+02  0.00000000000E+00 0.  1.
</event>
<event>
 7    1  0.2318319E-009  0.4778727E+02  0.7816164E-02  0.1312668E+00
        -11   -1    0    0    0    0  0.00000000000E+00  0.00000000000E+00  0.45593999997E+02  0.45594000000E+02  0.51100000000E-03 0.  1.
         11   -1    0    0    0    0 -0.00000000000E+00 -0.00000000000E+00 -0.45593999997E+02  0.45594000000E+02  0.51100000000E-03 0. -1.
    9900012    2    1    2    0    0  0.88754214452E+01  0.20095951714E+02  0.37429971954E+02  0.47787272108E+02  0.20000004849E+02 0.  0.
         12    1    1    2    0    0 -0.88754214452E+01 -0.20095951714E+02 -0.37429971954E+02  0.43400727892E+02  0.00000000000E+00 0. -1.
         11    1    3    3    0    0 -0.10977891340E+01  0.14669042560E+02  0.15786230705E+02  0.21577558499E+02  0.51100000000E-03 0. -1.
        -11    1    3    3    0    0  0.31389109142E+01  0.31323809944E+01  0.12920272021E+01  0.46188642515E+01  0.51100000000E-03 0.  1.
        -12    1    3    3    0    0  0.68342996650E+01  0.22945281591E+01  0.20351714046E+02  0.21590849358E+02  0.00000000000E+00 0.  1.
</event>
<event>
 7    1  0.2318319E-009  0.4778727E+02  0.7816164E-02  0.1312668E+00
        -11   -1    0    0    0    0  0.00000000000E+00  0.00000000000E+00  0.45593999997E+02  0.45594000000E+02  0.51100000000E-03 0.  1.
         11   -1    0    0    0    0 -0.00000000000E+00 -0.00000000000E+00 -0.45593999997E+02  0.45594000000E+02  0.51100000000E-03 0. -1.
    9900012    2    1    2    0    0 -0.21801116108E+02  0.93800611967E+01  0.36336610518E+02  0.47787268721E+02  0.19999989408E+02 0.  0.
         12    1    1    2    0    0  0.21801116108E+02 -0.93800611967E+01 -0.36336610518E+02  0.43400731279E+02  0.00000000000E+00 0. -1.
         11    1    3    3    0    0 -0.88557919279E+01  0.95035099902E+01  0.20765511560E+02  0.24493840520E+02  0.51100000000E-03 0. -1.
        -11    1    3    3    0    0 -0.82707421412E+01 -0.34750639989E+01  0.15046044278E+02  0.17517553883E+02  0.51100000000E-03 0.  1.
         12    1    3    3    0    0 -0.46745820391E+01  0.33516152054E+01  0.52505467965E+00  0.57758743184E+01  0.00000000000E+00 0. -1.
</event>
<event>
 7    1  0.2318319E-009  0.4778726E+02  0.7816164E-02  0.1312668E+00
        -11   -1    0    0    0    0  0.00000000000E+00  0.00000000000E+00  0.45593999997E+02  0.45594000000E+02  0.51100000000E-03 0. -1.
         11   -1    0    0    0    0 -0.00000000000E+00 -0.00000000000E+00 -0.45593999997E+02  0.45594000000E+02  0.51100000000E-03 0.  1.
    9900012    2    1    2    0    0 -0.16492228300E+02  0.20602944092E+02 -0.34455031310E+02  0.47787261733E+02  0.19999957543E+02 0.  0.
         12    1    1    2    0    0  0.16492228300E+02 -0.20602944092E+02  0.34455031310E+02  0.43400738267E+02  0.00000000000E+00 0. -1.
         11    1    3    3    0    0 -0.56495819588E+01  0.28559409714E+01 -0.14818379348E+01  0.65015397460E+01  0.51100000000E-03 0. -1.
        -11    1    3    3    0    0 -0.47815325820E+01  0.66747881709E+00 -0.16584929486E+01  0.51048193822E+01  0.51100000000E-03 0.  1.
        -12    1    3    3    0    0 -0.60611137595E+01  0.17079524303E+02 -0.31314700427E+02  0.36180902604E+02  0.00000000000E+00 0.  1.
</event>
<event>
 7    1  0.2318319E-009  0.4778727E+02  0.7816164E-02  0.1312668E+00
        -11   -1    0    0    0    0  0.00000000000E+00  0.00000000000E+00  0.45593999997E+02  0.45594000000E+02  0.51100000000E-03 0. -1.
         11   -1    0    0    0    0 -0.00000000000E+00 -0.00000000000E+00 -0.45593999997E+02  0.45594000000E+02  0.51100000000E-03 0.  1.
    9900012    2    1    2    0    0 -0.26118455081E+02 -0.33821825902E+02 -0.75851104317E+01  0.47787268400E+02  0.19999987942E+02 0.  0.
         12    1    1    2    0    0  0.26118455081E+02  0.33821825902E+02  0.75851104317E+01  0.43400731600E+02  0.00000000000E+00 0. -1.
         11    1    3    3    0    0 -0.17378138499E+02 -0.10565349637E+02 -0.28215352832E+01  0.20532592926E+02  0.51100000000E-03 0. -1.
        -11    1    3    3    0    0  0.12622069148E+01 -0.11743725602E+00 -0.12890148466E+01  0.18079041293E+01  0.51100000000E-03 0.  1.
        -12    1    3    3    0    0 -0.10002523496E+02 -0.23139039009E+02 -0.34745603020E+01  0.25446771344E+02  0.00000000000E+00 0.  1.
</event>
<event>
 7    1  0.2318319E-009  0.4778727E+02  0.7816164E-02  0.1312668E+00
        -11   -1    0    0    0    0  0.00000000000E+00  0.00000000000E+00  0.45593999997E+02  0.45594000000E+02  0.51100000000E-03 0.  1.
         11   -1    0    0    0    0 -0.00000000000E+00 -0.00000000000E+00 -0.45593999997E+02  0.45594000000E+02  0.51100000000E-03 0. -1.
    9900012    2    1    2    0    0  0.60191176797E+01 -0.41264389625E+02  0.12026792039E+02  0.47787270104E+02  0.19999995711E+02 0.  0.
         12    1    1    2    0    0 -0.60191176797E+01  0.41264389625E+02 -0.12026792039E+02  0.43400729896E+02  0.00000000000E+00 0. -1.
         11    1    3    3    0    0 -0.19931605614E+01 -0.79653238644E+01 -0.24065766037E+01  0.85563242399E+01  0.51100000000E-03 0. -1.
        -11    1    3    3    0    0  0.15704103764E+01 -0.25560134344E+02  0.65227186777E+01  0.26425981829E+02  0.51100000000E-03 0.  1.
         12    1    3    3    0    0  0.64418678646E+01 -0.77389314171E+01  0.79106499649E+01  0.12804964035E+02  0.00000000000E+00 0. -1.
</event>
<event>
 7    1  0.2318319E-009  0.4778727E+02  0.7816164E-02  0.1312668E+00
        -11   -1    0    0    0    0  0.00000000000E+00  0.00000000000E+00  0.45593999997E+02  0.45594000000E+02  0.51100000000E-03 0.  1.
         11   -1    0    0    0    0 -0.00000000000E+00 -0.00000000000E+00 -0.45593999997E+02  0.45594000000E+02  0.51100000000E-03 0. -1.
    9900012    2    1    2    0    0  0.27501976047E+02  0.89395400221E+01  0.32362773501E+02  0.47787272229E+02  0.20000005403E+02 0.  0.
         12    1    1    2    0    0 -0.27501976047E+02 -0.89395400221E+01 -0.32362773501E+02  0.43400727771E+02  0.00000000000E+00 0. -1.
         11    1    3    3    0    0  0.63587741597E+00  0.32374979564E+01  0.10791874786E+02  0.11284958784E+02  0.51100000000E-03 0. -1.
        -11    1    3    3    0    0  0.13942038026E+02 -0.19154815186E+01  0.13339499079E+02  0.19390506175E+02  0.51100000000E-03 0.  1.
         12    1    3    3    0    0  0.12924060605E+02  0.76175235843E+01  0.82313996361E+01  0.17111807270E+02  0.00000000000E+00 0. -1.
</event>
<event>
 7    1  0.2318319E-009  0.4778726E+02  0.7816164E-02  0.1312668E+00
        -11   -1    0    0    0    0  0.00000000000E+00  0.00000000000E+00  0.45593999997E+02  0.45594000000E+02  0.51100000000E-03 0. -1.
         11   -1    0    0    0    0 -0.00000000000E+00 -0.00000000000E+00 -0.45593999997E+02  0.45594000000E+02  0.51100000000E-03 0.  1.
    9900012    2    1    2    0    0 -0.38493073860E+02 -0.11099959911E-01  0.20047617589E+02  0.47787264645E+02  0.19999970822E+02 0.  0.
         12    1    1    2    0    0  0.38493073860E+02  0.11099959911E-01 -0.20047617589E+02  0.43400735355E+02  0.00000000000E+00 0. -1.
         11    1    3    3    0    0 -0.18936743908E+02  0.18589448069E+01  0.96049321491E+01  0.21314564680E+02  0.51100000000E-03 0. -1.
        -11    1    3    3    0    0 -0.14458678132E+02 -0.55832511989E+01  0.12421893139E+02  0.19862766592E+02  0.51100000000E-03 0.  1.
         12    1    3    3    0    0 -0.50976518191E+01  0.37132064321E+01 -0.19792076992E+01  0.66099333727E+01  0.00000000000E+00 0. -1.
</event>
<event>
 7    1  0.2318319E-009  0.4778727E+02  0.7816164E-02  0.1312668E+00
        -11   -1    0    0    0    0  0.00000000000E+00  0.00000000000E+00  0.45593999997E+02  0.45594000000E+02  0.51100000000E-03 0.  1.
         11   -1    0    0    0    0 -0.00000000000E+00 -0.00000000000E+00 -0.45593999997E+02  0.45594000000E+02  0.51100000000E-03 0. -1.
    9900012    2    1    2    0    0  0.23650977927E+02 -0.23979754022E+02  0.27371987580E+02  0.47787273463E+02  0.20000011026E+02 0.  0.
         12    1    1    2    0    0 -0.23650977927E+02  0.23979754022E+02 -0.27371987580E+02  0.43400726537E+02  0.00000000000E+00 0. -1.
         11    1    3    3    0    0  0.21715329112E+01  0.92306440349E+00  0.95524256330E+01  0.98395344815E+01  0.51100000000E-03 0. -1.
        -11    1    3    3    0    0  0.21078986618E+00 -0.28471618233E+01  0.12808203829E+01  0.31290995398E+01  0.51100000000E-03 0.  1.
        -12    1    3    3    0    0  0.21268655149E+02 -0.22055656602E+02  0.16538741564E+02  0.34818639442E+02  0.00000000000E+00 0.  1.
</event>
<event>
 7    1  0.2318319E-009  0.4778727E+02  0.7816164E-02  0.1312668E+00
        -11   -1    0    0    0    0  0.00000000000E+00  0.00000000000E+00  0.45593999997E+02  0.45594000000E+02  0.51100000000E-03 0. -1.
         11   -1    0    0    0    0 -0.00000000000E+00 -0.00000000000E+00 -0.45593999997E+02  0.45594000000E+02  0.51100000000E-03 0.  1.
    9900012    2    1    2    0    0 -0.43743950749E+01 -0.34641334571E+02 -0.25777236333E+02  0.47787270673E+02  0.19999998308E+02 0.  0.
         12    1    1    2    0    0  0.43743950749E+01  0.34641334571E+02  0.25777236333E+02  0.43400729327E+02  0.00000000000E+00 0. -1.
         11    1    3    3    0    0 -0.18747318303E+01 -0.83998011475E+01 -0.11863202744E+02  0.14656290744E+02  0.51100000000E-03 0. -1.
        -11    1    3    3    0    0 -0.38219433033E+00 -0.18791336860E+00 -0.57220150347E+01  0.57378428228E+01  0.51100000000E-03 0.  1.
         12    1    3    3    0    0 -0.21174689142E+01 -0.26053620055E+02 -0.81920185543E+01  0.27393137107E+02  0.00000000000E+00 0. -1.
</event>
<event>
 7    1  0.2318319E-009  0.4778727E+02  0.7816164E-02  0.1312668E+00
        -11   -1    0    0    0    0  0.00000000000E+00  0.00000000000E+00  0.45593999997E+02  0.45594000000E+02  0.51100000000E-03 0.  1.
         11   -1    0    0    0    0 -0.00000000000E+00 -0.00000000000E+00 -0.45593999997E+02  0.45594000000E+02  0.51100000000E-03 0. -1.
    9900012    2    1    2    0    0 -0.19954977777E+02 -0.36867754734E+02  0.11233471967E+02  0.47787269941E+02  0.19999994971E+02 0.  0.
         12    1    1    2    0    0  0.19954977777E+02  0.36867754734E+02 -0.11233471967E+02  0.43400730059E+02  0.00000000000E+00 0. -1.
         11    1    3    3    0    0 -0.33104286784E+01 -0.21160640402E+02  0.64190535530E+01  0.22359246164E+02  0.51100000000E-03 0. -1.
        -11    1    3    3    0    0 -0.90430824727E+01 -0.11364457139E+02  0.73996740068E+01  0.16299797617E+02  0.51100000000E-03 0.  1.
        -12    1    3    3    0    0 -0.76014666259E+01 -0.43426571922E+01 -0.25852555929E+01  0.91282261604E+01  0.00000000000E+00 0.  1.
</event>
<event>
 7    1  0.2318319E-009  0.4778727E+02  0.7816164E-02  0.1312668E+00
        -11   -1    0    0    0    0  0.00000000000E+00  0.00000000000E+00  0.45593999997E+02  0.45594000000E+02  0.51100000000E-03 0.  1.
         11   -1    0    0    0    0 -0.00000000000E+00 -0.00000000000E+00 -0.45593999997E+02  0.45594000000E+02  0.51100000000E-03 0. -1.
    9900012    2    1    2    0    0  0.28528077941E+02  0.28272199008E+02 -0.16445501234E+02  0.47787274446E+02  0.20000015509E+02 0.  0.
         12    1    1    2    0    0 -0.28528077941E+02 -0.28272199008E+02  0.16445501234E+02  0.43400725554E+02  0.00000000000E+00 0. -1.
         11    1    3    3    0    0  0.18938261498E+02  0.13626712737E+02 -0.90671365768E+00  0.23348815355E+02  0.51100000000E-03 0. -1.
        -11    1    3    3    0    0  0.58823351701E+01  0.34566167524E+01 -0.38300207281E+01  0.78242651709E+01  0.51100000000E-03 0.  1.
         12    1    3    3    0    0  0.37074812730E+01  0.11188869519E+02 -0.11708766848E+02  0.16614193920E+02  0.00000000000E+00 0. -1.
</event>
<event>
 7    1  0.2318319E-009  0.4778724E+02  0.7816164E-02  0.1312668E+00
        -11   -1    0    0    0    0  0.00000000000E+00  0.00000000000E+00  0.45593999997E+02  0.45594000000E+02  0.51100000000E-03 0.  1.
         11   -1    0    0    0    0 -0.00000000000E+00 -0.00000000000E+00 -0.45593999997E+02  0.45594000000E+02  0.51100000000E-03 0. -1.
    9900012    2    1    2    0    0 -0.18144608168E+01 -0.16770749980E+02  0.39988441435E+02  0.47787242272E+02  0.19999868815E+02 0.  0.
         12    1    1    2    0    0  0.18144608168E+01  0.16770749980E+02 -0.39988441435E+02  0.43400757728E+02  0.00000000000E+00 0. -1.
         11    1    3    3    0    0  0.51494082640E+01 -0.58805259430E+01  0.94754453143E+01  0.12283364971E+02  0.51100000000E-03 0. -1.
        -11    1    3    3    0    0  0.24194611416E+01 -0.76999769463E+01  0.16133747414E+02  0.18039990108E+02  0.51100000000E-03 0.  1.
         12    1    3    3    0    0 -0.93833302223E+01 -0.31902470906E+01  0.14379248706E+02  0.17463887194E+02  0.00000000000E+00 0. -1.
</event>
<event>
 7    1  0.2318319E-009  0.4778728E+02  0.7816164E-02  0.1312668E+00
        -11   -1    0    0    0    0  0.00000000000E+00  0.00000000000E+00  0.45593999997E+02  0.45594000000E+02  0.51100000000E-03 0.  1.
         11   -1    0    0    0    0 -0.00000000000E+00 -0.00000000000E+00 -0.45593999997E+02  0.45594000000E+02  0.51100000000E-03 0. -1.
    9900012    2    1    2    0    0  0.41374034882E+02  0.60394032582E+01  0.11633452454E+02  0.47787281456E+02  0.20000047469E+02 0.  0.
         12    1    1    2    0    0 -0.41374034882E+02 -0.60394032582E+01 -0.11633452454E+02  0.43400718544E+02  0.00000000000E+00 0. -1.
         11    1    3    3    0    0  0.28764109544E+02  0.69438532641E+01  0.13860209894E+02  0.32675625695E+02  0.51100000000E-03 0. -1.
        -11    1    3    3    0    0  0.10655537840E+02 -0.93106628200E+00  0.15995057568E+01  0.10815072353E+02  0.51100000000E-03 0.  1.
         12    1    3    3    0    0  0.19543874987E+01  0.26616276047E-01 -0.38262631972E+01  0.42965834073E+01  0.00000000000E+00 0. -1.
</event>
<event>
 7    1  0.2318319E-009  0.4778727E+02  0.7816164E-02  0.1312668E+00
        -11   -1    0    0    0    0  0.00000000000E+00  0.00000000000E+00  0.45593999997E+02  0.45594000000E+02  0.51100000000E-03 0. -1.
         11   -1    0    0    0    0 -0.00000000000E+00 -0.00000000000E+00 -0.45593999997E+02  0.45594000000E+02  0.51100000000E-03 0.  1.
    9900012    2    1    2    0    0 -0.36978053029E+02  0.14259018051E+02 -0.17689752024E+02  0.47787270417E+02  0.19999997141E+02 0.  0.
         12    1    1    2    0    0  0.36978053029E+02 -0.14259018051E+02  0.17689752024E+02  0.43400729583E+02  0.00000000000E+00 0. -1.
         11    1    3    3    0    0  0.69566118007E+00  0.44622018144E+01  0.88819359332E+00  0.46026163896E+01  0.51100000000E-03 0. -1.
        -11    1    3    3    0    0 -0.97311810709E+01  0.33061136311E+01 -0.55195182074E+01  0.11665819897E+02  0.51100000000E-03 0.  1.
         12    1    3    3    0    0 -0.27942533139E+02  0.64907026056E+01 -0.13058427410E+02  0.31518834130E+02  0.00000000000E+00 0. -1.
</event>
<event>
 7    1  0.2318319E-009  0.4778727E+02  0.7816164E-02  0.1312668E+00
        -11   -1    0    0    0    0  0.00000000000E+00  0.00000000000E+00  0.45593999997E+02  0.45594000000E+02  0.51100000000E-03 0. -1.
         11   -1    0    0    0    0 -0.00000000000E+00 -0.00000000000E+00 -0.45593999997E+02  0.45594000000E+02  0.51100000000E-03 0.  1.
    9900012    2    1    2    0    0  0.16267414532E+02 -0.26820657266E+02 -0.29994115309E+02  0.47787269766E+02  0.19999994170E+02 0.  0.
         12    1    1    2    0    0 -0.16267414532E+02  0.26820657266E+02  0.29994115309E+02  0.43400730234E+02  0.00000000000E+00 0. -1.
         11    1    3    3    0    0  0.39529946264E+01 -0.14833078425E+02 -0.31393015365E+01  0.15668490562E+02  0.51100000000E-03 0. -1.
        -11    1    3    3    0    0  0.56516024585E+01 -0.52705980184E+01 -0.86285012464E+01  0.11583214055E+02  0.51100000000E-03 0.  1.
         12    1    3    3    0    0  0.66628174467E+01 -0.67169808217E+01 -0.18226312526E+02  0.20535565149E+02  0.00000000000E+00 0. -1.
</event>
<event>
 7    1  0.2318319E-009  0.4778726E+02  0.7816164E-02  0.1312668E+00
        -11   -1    0    0    0    0  0.00000000000E+00  0.00000000000E+00  0.45593999997E+02  0.45594000000E+02  0.51100000000E-03 0.  1.
         11   -1    0    0    0    0 -0.00000000000E+00 -0.00000000000E+00 -0.45593999997E+02  0.45594000000E+02  0.51100000000E-03 0. -1.
    9900012    2    1    2    0    0  0.39884317505E+01 -0.25763622485E+02  0.34698015779E+02  0.47787261177E+02  0.19999955010E+02 0.  0.
         12    1    1    2    0    0 -0.39884317505E+01  0.25763622485E+02 -0.34698015779E+02  0.43400738823E+02  0.00000000000E+00 0. -1.
         11    1    3    3    0    0 -0.26415089199E+01 -0.83090770968E+01  0.55925543422E+01  0.10358329784E+02  0.51100000000E-03 0. -1.
        -11    1    3    3    0    0 -0.20773821150E+01 -0.74169650112E+01  0.32524694792E+01  0.83609475781E+01  0.51100000000E-03 0.  1.
        -12    1    3    3    0    0  0.87073227853E+01 -0.10037580377E+02  0.25852991958E+02  0.29067983815E+02  0.00000000000E+00 0.  1.
</event>
<event>
 7    1  0.2318319E-009  0.4778728E+02  0.7816164E-02  0.1312668E+00
        -11   -1    0    0    0    0  0.00000000000E+00  0.00000000000E+00  0.45593999997E+02  0.45594000000E+02  0.51100000000E-03 0.  1.
         11   -1    0    0    0    0 -0.00000000000E+00 -0.00000000000E+00 -0.45593999997E+02  0.45594000000E+02  0.51100000000E-03 0. -1.
    9900012    2    1    2    0    0  0.58183022056E+01  0.42655687422E+02  0.55011069517E+01  0.47787280102E+02  0.20000041296E+02 0.  0.
         12    1    1    2    0    0 -0.58183022056E+01 -0.42655687422E+02 -0.55011069517E+01  0.43400719898E+02  0.00000000000E+00 0. -1.
         11    1    3    3    0    0  0.24094193380E+01  0.30758032350E+02  0.60321683034E+01  0.31436426487E+02  0.51100000000E-03 0. -1.
        -11    1    3    3    0    0  0.19965395592E+01  0.43610661658E+01  0.49753147879E+01  0.69107760645E+01  0.51100000000E-03 0.  1.
         12    1    3    3    0    0  0.14123433084E+01  0.75365889066E+01 -0.55063761396E+01  0.94400775504E+01  0.00000000000E+00 0. -1.
</event>
<event>
 7    1  0.2318319E-009  0.4778727E+02  0.7816164E-02  0.1312668E+00
        -11   -1    0    0    0    0  0.00000000000E+00  0.00000000000E+00  0.45593999997E+02  0.45594000000E+02  0.51100000000E-03 0. -1.
         11   -1    0    0    0    0 -0.00000000000E+00 -0.00000000000E+00 -0.45593999997E+02  0.45594000000E+02  0.51100000000E-03 0.  1.
    9900012    2    1    2    0    0 -0.31373399878E+02  0.22377221697E+02 -0.19964800403E+02  0.47787268141E+02  0.19999986760E+02 0.  0.
         12    1    1    2    0    0  0.31373399878E+02 -0.22377221697E+02  0.19964800403E+02  0.43400731859E+02  0.00000000000E+00 0. -1.
         11    1    3    3    0    0 -0.22191144957E+02  0.18566937820E+02 -0.69631779654E+01  0.29760106555E+02  0.51100000000E-03 0. -1.
        -11    1    3    3    0    0 -0.81068089778E+01  0.56639216238E+01 -0.84955027440E+01  0.13037404922E+02  0.51100000000E-03 0.  1.
         12    1    3    3    0    0 -0.10754459433E+01 -0.18536377465E+01 -0.45061196934E+01  0.49897566638E+01  0.00000000000E+00 0. -1.
</event>
<event>
 7    1  0.2318319E-009  0.4778727E+02  0.7816164E-02  0.1312668E+00
        -11   -1    0    0    0    0  0.00000000000E+00  0.00000000000E+00  0.45593999997E+02  0.45594000000E+02  0.51100000000E-03 0. -1.
         11   -1    0    0    0    0 -0.00000000000E+00 -0.00000000000E+00 -0.45593999997E+02  0.45594000000E+02  0.51100000000E-03 0.  1.
    9900012    2    1    2    0    0 -0.42980132764E+02 -0.45735369909E+01  0.39261010020E+01  0.47787270489E+02  0.19999997467E+02 0.  0.
         12    1    1    2    0    0  0.42980132764E+02  0.45735369909E+01 -0.39261010020E+01  0.43400729511E+02  0.00000000000E+00 0. -1.
         11    1    3    3    0    0 -0.19488510829E+01  0.36941002797E+01 -0.13258837244E+01  0.43820503571E+01  0.51100000000E-03 0. -1.
        -11    1    3    3    0    0 -0.64673218427E+01 -0.43731739593E+01 -0.15608851526E+01  0.79616119609E+01  0.51100000000E-03 0.  1.
        -12    1    3    3    0    0 -0.34563959838E+02 -0.38944633113E+01  0.68128698790E+01  0.35443608171E+02  0.00000000000E+00 0.  1.
</event>
<event>
 7    1  0.2318319E-009  0.4778727E+02  0.7816164E-02  0.1312668E+00
        -11   -1    0    0    0    0  0.00000000000E+00  0.00000000000E+00  0.45593999997E+02  0.45594000000E+02  0.51100000000E-03 0. -1.
         11   -1    0    0    0    0 -0.00000000000E+00 -0.00000000000E+00 -0.45593999997E+02  0.45594000000E+02  0.51100000000E-03 0.  1.
    9900012    2    1    2    0    0  0.13598496327E+01 -0.25090062060E+02 -0.35387327407E+02  0.47787270211E+02  0.19999996201E+02 0.  0.
         12    1    1    2    0    0 -0.13598496327E+01  0.25090062060E+02  0.35387327407E+02  0.43400729789E+02  0.00000000000E+00 0. -1.
         11    1    3    3    0    0 -0.17119735462E+01  0.18876054208E+01 -0.31395293562E+01  0.40435816409E+01  0.51100000000E-03 0. -1.
        -11    1    3    3    0    0  0.29322183278E+01 -0.73322395228E+01 -0.28698483307E+01  0.84021229724E+01  0.51100000000E-03 0.  1.
         12    1    3    3    0    0  0.13960485116E+00 -0.19645427958E+02 -0.29377949720E+02  0.35341565598E+02  0.00000000000E+00 0. -1.
</event>
<event>
 7    1  0.2318319E-009  0.4778730E+02  0.7816164E-02  0.1312668E+00
        -11   -1    0    0    0    0  0.00000000000E+00  0.00000000000E+00  0.45593999997E+02  0.45594000000E+02  0.51100000000E-03 0.  1.
         11   -1    0    0    0    0 -0.00000000000E+00 -0.00000000000E+00 -0.45593999997E+02  0.45594000000E+02  0.51100000000E-03 0. -1.
    9900012    2    1    2    0    0 -0.15302948880E+02  0.33173734763E+02  0.23429552395E+02  0.47787298992E+02  0.20000127424E+02 0.  0.
         12    1    1    2    0    0  0.15302948880E+02 -0.33173734763E+02 -0.23429552395E+02  0.43400701008E+02  0.00000000000E+00 0. -1.
         11    1    3    3    0    0 -0.10216806136E+02  0.13443064138E+02  0.61992269551E+01  0.17986926256E+02  0.51100000000E-03 0. -1.
        -11    1    3    3    0    0 -0.63149399234E+01  0.14828771801E+02  0.55037287074E+01  0.17031205750E+02  0.51100000000E-03 0.  1.
         12    1    3    3    0    0  0.12287971796E+01  0.49018988246E+01  0.11726596732E+02  0.12769166986E+02  0.00000000000E+00 0. -1.
</event>
<event>
 7    1  0.2318319E-009  0.4778727E+02  0.7816164E-02  0.1312668E+00
        -11   -1    0    0    0    0  0.00000000000E+00  0.00000000000E+00  0.45593999997E+02  0.45594000000E+02  0.51100000000E-03 0.  1.
         11   -1    0    0    0    0 -0.00000000000E+00 -0.00000000000E+00 -0.45593999997E+02  0.45594000000E+02  0.51100000000E-03 0. -1.
    9900012    2    1    2    0    0 -0.14998228324E+02  0.14133906306E+02  0.38195673958E+02  0.47787266487E+02  0.19999979220E+02 0.  0.
         12    1    1    2    0    0  0.14998228324E+02 -0.14133906306E+02 -0.38195673958E+02  0.43400733513E+02  0.00000000000E+00 0. -1.
         11    1    3    3    0    0 -0.82968216445E+01  0.43525956021E+01  0.71742794310E+01  0.11800534882E+02  0.51100000000E-03 0. -1.
        -11    1    3    3    0    0 -0.61444072121E+01  0.13006664990E+02  0.21080569698E+02  0.25520922656E+02  0.51100000000E-03 0.  1.
         12    1    3    3    0    0 -0.55699946793E+00 -0.32253542858E+01  0.99408248295E+01  0.10465808949E+02  0.00000000000E+00 0. -1.
</event>
<event>
 7    1  0.2318319E-009  0.4778727E+02  0.7816164E-02  0.1312668E+00
        -11   -1    0    0    0    0  0.00000000000E+00  0.00000000000E+00  0.45593999997E+02  0.45594000000E+02  0.51100000000E-03 0. -1.
         11   -1    0    0    0    0 -0.00000000000E+00 -0.00000000000E+00 -0.45593999997E+02  0.45594000000E+02  0.51100000000E-03 0.  1.
    9900012    2    1    2    0    0  0.27555697222E+02  0.23254779687E+02  0.24156204249E+02  0.47787269230E+02  0.19999991727E+02 0.  0.
         12    1    1    2    0    0 -0.27555697222E+02 -0.23254779687E+02 -0.24156204249E+02  0.43400730770E+02  0.00000000000E+00 0. -1.
         11    1    3    3    0    0  0.75496037541E+01  0.11858075397E+02  0.11257454958E+02  0.18009463106E+02  0.51100000000E-03 0. -1.
        -11    1    3    3    0    0  0.10823280928E+02  0.10346495013E+02  0.13963875831E+02  0.20473963895E+02  0.51100000000E-03 0.  1.
        -12    1    3    3    0    0  0.91828125405E+01  0.10502092765E+01 -0.10651265404E+01  0.93038422292E+01  0.00000000000E+00 0.  1.
</event>
<event>
 7    1  0.2318319E-009  0.4778727E+02  0.7816164E-02  0.1312668E+00
        -11   -1    0    0    0    0  0.00000000000E+00  0.00000000000E+00  0.45593999997E+02  0.45594000000E+02  0.51100000000E-03 0.  1.
         11   -1    0    0    0    0 -0.00000000000E+00 -0.00000000000E+00 -0.45593999997E+02  0.45594000000E+02  0.51100000000E-03 0. -1.
    9900012    2    1    2    0    0  0.23181872785E+02 -0.29247153467E+02  0.22154642703E+02  0.47787269533E+02  0.19999993111E+02 0.  0.
         12    1    1    2    0    0 -0.23181872785E+02  0.29247153467E+02 -0.22154642703E+02  0.43400730467E+02  0.00000000000E+00 0. -1.
         11    1    3    3    0    0  0.37009071275E+01 -0.17519227556E+00  0.22143727646E+01  0.43163471711E+01  0.51100000000E-03 0. -1.
        -11    1    3    3    0    0  0.30532419867E+01 -0.11308412417E+02  0.14556130249E+02  0.18683773873E+02  0.51100000000E-03 0.  1.
        -12    1    3    3    0    0  0.16427723671E+02 -0.17763548774E+02  0.53841396888E+01  0.24787148490E+02  0.00000000000E+00 0.  1.
</event>
<event>
 7    1  0.2318319E-009  0.4778727E+02  0.7816164E-02  0.1312668E+00
        -11   -1    0    0    0    0  0.00000000000E+00  0.00000000000E+00  0.45593999997E+02  0.45594000000E+02  0.51100000000E-03 0.  1.
         11   -1    0    0    0    0 -0.00000000000E+00 -0.00000000000E+00 -0.45593999997E+02  0.45594000000E+02  0.51100000000E-03 0. -1.
    9900012    2    1    2    0    0  0.18273001659E+02 -0.38893732381E+02  0.60826281026E+01  0.47787269904E+02  0.19999994802E+02 0.  0.
         12    1    1    2    0    0 -0.18273001659E+02  0.38893732381E+02 -0.60826281026E+01  0.43400730096E+02  0.00000000000E+00 0. -1.
         11    1    3    3    0    0  0.16511730658E+01  0.73429616563E+00 -0.13504700987E+01  0.22559550307E+01  0.51100000000E-03 0. -1.
        -11    1    3    3    0    0  0.19572217888E+01 -0.28723766164E+01  0.47249230654E+01  0.58656766696E+01  0.51100000000E-03 0.  1.
        -12    1    3    3    0    0  0.14664606805E+02 -0.36755651931E+02  0.27081751358E+01  0.39665638204E+02  0.00000000000E+00 0.  1.
</event>
<event>
 7    1  0.2318319E-009  0.4778727E+02  0.7816164E-02  0.1312668E+00
        -11   -1    0    0    0    0  0.00000000000E+00  0.00000000000E+00  0.45593999997E+02  0.45594000000E+02  0.51100000000E-03 0.  1.
         11   -1    0    0    0    0 -0.00000000000E+00 -0.00000000000E+00 -0.45593999997E+02  0.45594000000E+02  0.51100000000E-03 0. -1.
    9900012    2    1    2    0    0 -0.36369042036E+01 -0.34971839819E+02  0.25443394175E+02  0.47787274664E+02  0.20000016504E+02 0.  0.
         12    1    1    2    0    0  0.36369042036E+01  0.34971839819E+02 -0.25443394175E+02  0.43400725336E+02  0.00000000000E+00 0. -1.
         11    1    3    3    0    0  0.11475410242E+01 -0.11106047261E+02  0.67841985659E+01  0.13064703847E+02  0.51100000000E-03 0. -1.
        -11    1    3    3    0    0 -0.66582890850E+00  0.56818925194E+00 -0.21778673412E+01  0.23471841807E+01  0.51100000000E-03 0.  1.
        -12    1    3    3    0    0 -0.41186163193E+01 -0.24433981810E+02  0.20837062950E+02  0.32375386637E+02  0.00000000000E+00 0.  1.
</event>
<event>
 7    1  0.2318319E-009  0.4778727E+02  0.7816164E-02  0.1312668E+00
        -11   -1    0    0    0    0  0.00000000000E+00  0.00000000000E+00  0.45593999997E+02  0.45594000000E+02  0.51100000000E-03 0.  1.
         11   -1    0    0    0    0 -0.00000000000E+00 -0.00000000000E+00 -0.45593999997E+02  0.45594000000E+02  0.51100000000E-03 0. -1.
    9900012    2    1    2    0    0  0.31252409785E+02 -0.13256505160E+02  0.27040257161E+02  0.47787267820E+02  0.19999985298E+02 0.  0.
         12    1    1    2    0    0 -0.31252409785E+02  0.13256505160E+02 -0.27040257161E+02  0.43400732180E+02  0.00000000000E+00 0. -1.
         11    1    3    3    0    0  0.11878829654E+02 -0.11238341149E+02  0.36601970443E+01  0.16757205865E+02  0.51100000000E-03 0. -1.
        -11    1    3    3    0    0  0.47667922794E+01  0.68475718658E+00  0.97281353519E+01  0.10854852312E+02  0.51100000000E-03 0.  1.
        -12    1    3    3    0    0  0.14606787852E+02 -0.27029211976E+01  0.13651924764E+02  0.20175209642E+02  0.00000000000E+00 0.  1.
</event>
<event>
 7    1  0.2318319E-009  0.4778727E+02  0.7816164E-02  0.1312668E+00
        -11   -1    0    0    0    0  0.00000000000E+00  0.00000000000E+00  0.45593999997E+02  0.45594000000E+02  0.51100000000E-03 0.  1.
         11   -1    0    0    0    0 -0.00000000000E+00 -0.00000000000E+00 -0.45593999997E+02  0.45594000000E+02  0.51100000000E-03 0. -1.
    9900012    2    1    2    0    0  0.53778164959E+01  0.12100492756E+02  0.41331348541E+02  0.47787271810E+02  0.20000003492E+02 0.  0.
         12    1    1    2    0    0 -0.53778164959E+01 -0.12100492756E+02 -0.41331348541E+02  0.43400728190E+02  0.00000000000E+00 0. -1.
         11    1    3    3    0    0  0.55618875776E+01  0.30593709048E+01  0.22448676994E+02  0.23328897162E+02  0.51100000000E-03 0. -1.
        -11    1    3    3    0    0 -0.31188204678E+01 -0.96007024184E+00  0.10760737337E+02  0.11244654031E+02  0.51100000000E-03 0.  1.
        -12    1    3    3    0    0  0.29347493861E+01  0.10001192093E+02  0.81219342100E+01  0.13213720617E+02  0.00000000000E+00 0.  1.
</event>
<event>
 7    1  0.2318319E-009  0.4778727E+02  0.7816164E-02  0.1312668E+00
        -11   -1    0    0    0    0  0.00000000000E+00  0.00000000000E+00  0.45593999997E+02  0.45594000000E+02  0.51100000000E-03 0.  1.
         11   -1    0    0    0    0 -0.00000000000E+00 -0.00000000000E+00 -0.45593999997E+02  0.45594000000E+02  0.51100000000E-03 0. -1.
    9900012    2    1    2    0    0  0.70957347548E+01 -0.92332320414E+01  0.41809343616E+02  0.47787271444E+02  0.20000001820E+02 0.  0.
         12    1    1    2    0    0 -0.70957347548E+01  0.92332320414E+01 -0.41809343616E+02  0.43400728556E+02  0.00000000000E+00 0. -1.
         11    1    3    3    0    0 -0.35119721630E+01 -0.35150072920E+01  0.12901359449E+02  0.13825132934E+02  0.51100000000E-03 0. -1.
        -11    1    3    3    0    0  0.41532188839E+01 -0.63725349513E+00  0.24059303119E+02  0.24423459746E+02  0.51100000000E-03 0.  1.
        -12    1    3    3    0    0  0.64544880339E+01 -0.50809712543E+01  0.48486810473E+01  0.95386787641E+01  0.00000000000E+00 0.  1.
</event>
<event>
 7    1  0.2318319E-009  0.4778728E+02  0.7816164E-02  0.1312668E+00
        -11   -1    0    0    0    0  0.00000000000E+00  0.00000000000E+00  0.45593999997E+02  0.45594000000E+02  0.51100000000E-03 0. -1.
         11   -1    0    0    0    0 -0.00000000000E+00 -0.00000000000E+00 -0.45593999997E+02  0.45594000000E+02  0.51100000000E-03 0.  1.
    9900012    2    1    2    0    0 -0.17264442074E+02  0.13445346616E+02 -0.37480447335E+02  0.47787282976E+02  0.20000054401E+02 0.  0.
         12    1    1    2    0    0  0.17264442074E+02 -0.13445346616E+02  0.37480447335E+02  0.43400717024E+02  0.00000000000E+00 0. -1.
         11    1    3    3    0    0 -0.84968412557E+01  0.69478549828E+01 -0.36564776394E+01  0.11568873289E+02  0.51100000000E-03 0. -1.
        -11    1    3    3    0    0 -0.59444348068E+01  0.54360525146E+01 -0.13883458442E+02  0.16051086900E+02  0.51100000000E-03 0.  1.
         12    1    3    3    0    0 -0.28231660117E+01  0.10614391187E+01 -0.19940511254E+02  0.20167322787E+02  0.00000000000E+00 0. -1.
</event>
<event>
 7    1  0.2318319E-009  0.4778729E+02  0.7816164E-02  0.1312668E+00
        -11   -1    0    0    0    0  0.00000000000E+00  0.00000000000E+00  0.45593999997E+02  0.45594000000E+02  0.51100000000E-03 0. -1.
         11   -1    0    0    0    0 -0.00000000000E+00 -0.00000000000E+00 -0.45593999997E+02  0.45594000000E+02  0.51100000000E-03 0.  1.
    9900012    2    1    2    0    0  0.33211415349E+02  0.27825234562E+02 -0.25258479520E+01  0.47787289225E+02  0.20000082892E+02 0.  0.
         12    1    1    2    0    0 -0.33211415349E+02 -0.27825234562E+02  0.25258479520E+01  0.43400710775E+02  0.00000000000E+00 0. -1.
         11    1    3    3    0    0  0.12537856129E+02  0.13060602174E+02 -0.16515627112E+01  0.18179791669E+02  0.51100000000E-03 0. -1.
        -11    1    3    3    0    0  0.22359066612E+02  0.13562639864E+02  0.18147763841E+01  0.26213860330E+02  0.51100000000E-03 0.  1.
         12    1    3    3    0    0 -0.16855073926E+01  0.12019925243E+01 -0.26890616249E+01  0.33936372260E+01  0.00000000000E+00 0. -1.
</event>
<event>
 7    1  0.2318319E-009  0.4778727E+02  0.7816164E-02  0.1312668E+00
        -11   -1    0    0    0    0  0.00000000000E+00  0.00000000000E+00  0.45593999997E+02  0.45594000000E+02  0.51100000000E-03 0.  1.
         11   -1    0    0    0    0 -0.00000000000E+00 -0.00000000000E+00 -0.45593999997E+02  0.45594000000E+02  0.51100000000E-03 0. -1.
    9900012    2    1    2    0    0  0.27169562326E+02  0.23448873020E+02  0.24404680707E+02  0.47787271858E+02  0.20000003708E+02 0.  0.
         12    1    1    2    0    0 -0.27169562326E+02 -0.23448873020E+02 -0.24404680707E+02  0.43400728142E+02  0.00000000000E+00 0. -1.
         11    1    3    3    0    0  0.17293861518E+02  0.12975341027E+02  0.82250479699E+01  0.23131980792E+02  0.51100000000E-03 0. -1.
        -11    1    3    3    0    0  0.11381304866E+02  0.11930819620E+02  0.14701800915E+02  0.22091208832E+02  0.51100000000E-03 0.  1.
         12    1    3    3    0    0 -0.15056040580E+01 -0.14572876273E+01  0.14778318216E+01  0.25640822337E+01  0.00000000000E+00 0. -1.
</event>
<event>
 7    1  0.2318319E-009  0.4778729E+02  0.7816164E-02  0.1312668E+00
        -11   -1    0    0    0    0  0.00000000000E+00  0.00000000000E+00  0.45593999997E+02  0.45594000000E+02  0.51100000000E-03 0. -1.
         11   -1    0    0    0    0 -0.00000000000E+00 -0.00000000000E+00 -0.45593999997E+02  0.45594000000E+02  0.51100000000E-03 0.  1.
    9900012    2    1    2    0    0  0.31518029140E+02 -0.26464073944E+02  0.13779982607E+02  0.47787293885E+02  0.20000104139E+02 0.  0.
         12    1    1    2    0    0 -0.31518029140E+02  0.26464073944E+02 -0.13779982607E+02  0.43400706115E+02  0.00000000000E+00 0. -1.
         11    1    3    3    0    0  0.14363767766E+02 -0.46389559183E+01  0.14031736960E+01  0.15159374431E+02  0.51100000000E-03 0. -1.
        -11    1    3    3    0    0  0.16200772511E+02 -0.11614744170E+02  0.80872321666E+01  0.21512104417E+02  0.51100000000E-03 0.  1.
        -12    1    3    3    0    0  0.95348886382E+00 -0.10210373857E+02  0.42895767441E+01  0.11115815038E+02  0.00000000000E+00 0.  1.
</event>
<event>
 7    1  0.2318319E-009  0.4778729E+02  0.7816164E-02  0.1312668E+00
        -11   -1    0    0    0    0  0.00000000000E+00  0.00000000000E+00  0.45593999997E+02  0.45594000000E+02  0.51100000000E-03 0.  1.
         11   -1    0    0    0    0 -0.00000000000E+00 -0.00000000000E+00 -0.45593999997E+02  0.45594000000E+02  0.51100000000E-03 0. -1.
    9900012    2    1    2    0    0 -0.20304871075E+02 -0.16598465787E+02  0.34580701991E+02  0.47787287955E+02  0.20000077101E+02 0.  0.
         12    1    1    2    0    0  0.20304871075E+02  0.16598465787E+02 -0.34580701991E+02  0.43400712045E+02  0.00000000000E+00 0. -1.
         11    1    3    3    0    0  0.15185818910E+01  0.19677136633E+01  0.42367357216E+00  0.25214058732E+01  0.51100000000E-03 0. -1.
        -11    1    3    3    0    0 -0.82124369456E+00  0.76727816290E+00  0.17429587832E+01  0.20739003270E+01  0.51100000000E-03 0.  1.
        -12    1    3    3    0    0 -0.21002209272E+02 -0.19333457613E+02  0.32414069635E+02  0.43191981755E+02  0.00000000000E+00 0.  1.
</event>
<event>
 7    1  0.2318319E-009  0.4778727E+02  0.7816164E-02  0.1312668E+00
        -11   -1    0    0    0    0  0.00000000000E+00  0.00000000000E+00  0.45593999997E+02  0.45594000000E+02  0.51100000000E-03 0.  1.
         11   -1    0    0    0    0 -0.00000000000E+00 -0.00000000000E+00 -0.45593999997E+02  0.45594000000E+02  0.51100000000E-03 0. -1.
    9900012    2    1    2    0    0  0.13235523555E+02 -0.19446924273E+02  0.36472748487E+02  0.47787270402E+02  0.19999997072E+02 0.  0.
         12    1    1    2    0    0 -0.13235523555E+02  0.19446924273E+02 -0.36472748487E+02  0.43400729598E+02  0.00000000000E+00 0. -1.
         11    1    3    3    0    0  0.51922425516E+00 -0.10306980036E+02  0.18470905778E+02  0.21158397666E+02  0.51100000000E-03 0.  1.
        -11    1    3    3    0    0 -0.47892861914E+00  0.21321741876E+01  0.28456549004E+01  0.35879369368E+01  0.51100000000E-03 0. -1.
         12    1    3    3    0    0  0.13195227919E+02 -0.11272118424E+02  0.15156187808E+02  0.23040935799E+02  0.00000000000E+00 0. -1.
</event>
<event>
 7    1  0.2318319E-009  0.4778728E+02  0.7816164E-02  0.1312668E+00
        -11   -1    0    0    0    0  0.00000000000E+00  0.00000000000E+00  0.45593999997E+02  0.45594000000E+02  0.51100000000E-03 0. -1.
         11   -1    0    0    0    0 -0.00000000000E+00 -0.00000000000E+00 -0.45593999997E+02  0.45594000000E+02  0.51100000000E-03 0.  1.
    9900012    2    1    2    0    0 -0.37024267037E+02 -0.16119894010E+02  0.15905186492E+02  0.47787282381E+02  0.20000051688E+02 0.  0.
         12    1    1    2    0    0  0.37024267037E+02  0.16119894010E+02 -0.15905186492E+02  0.43400717619E+02  0.00000000000E+00 0. -1.
         11    1    3    3    0    0  0.13636917523E+00 -0.15210343399E+01 -0.21445661575E+01  0.26327374120E+01  0.51100000000E-03 0.  1.
        -11    1    3    3    0    0 -0.64606640695E+01  0.14325206449E+01  0.15766764080E+01  0.68028085651E+01  0.51100000000E-03 0. -1.
        -12    1    3    3    0    0 -0.30699972142E+02 -0.16031380315E+02  0.16473076241E+02  0.38351736404E+02  0.00000000000E+00 0.  1.
</event>
<event>
 7    1  0.2318319E-009  0.4778728E+02  0.7816164E-02  0.1312668E+00
        -11   -1    0    0    0    0  0.00000000000E+00  0.00000000000E+00  0.45593999997E+02  0.45594000000E+02  0.51100000000E-03 0. -1.
         11   -1    0    0    0    0 -0.00000000000E+00 -0.00000000000E+00 -0.45593999997E+02  0.45594000000E+02  0.51100000000E-03 0.  1.
    9900012    2    1    2    0    0  0.38146585814E+01 -0.39256298370E+02 -0.18111160245E+02  0.47787277572E+02  0.20000029763E+02 0.  0.
         12    1    1    2    0    0 -0.38146585814E+01  0.39256298370E+02  0.18111160245E+02  0.43400722428E+02  0.00000000000E+00 0. -1.
         11    1    3    3    0    0  0.25192836390E+01 -0.35954668820E+02 -0.11541003173E+02  0.37845472048E+02  0.51100000000E-03 0. -1.
        -11    1    3    3    0    0  0.27039393014E+01 -0.46664073061E+01 -0.40299186621E+01  0.67325247550E+01  0.51100000000E-03 0.  1.
         12    1    3    3    0    0 -0.14085643589E+01  0.13647777563E+01 -0.25402384101E+01  0.32092807695E+01  0.00000000000E+00 0. -1.
</event>
<event>
 7    1  0.2318319E-009  0.4778726E+02  0.7816164E-02  0.1312668E+00
        -11   -1    0    0    0    0  0.00000000000E+00  0.00000000000E+00  0.45593999997E+02  0.45594000000E+02  0.51100000000E-03 0.  1.
         11   -1    0    0    0    0 -0.00000000000E+00 -0.00000000000E+00 -0.45593999997E+02  0.45594000000E+02  0.51100000000E-03 0. -1.
    9900012    2    1    2    0    0  0.26943128531E+02 -0.76900705763E+00  0.34016184668E+02  0.47787258460E+02  0.19999942620E+02 0.  0.
         12    1    1    2    0    0 -0.26943128531E+02  0.76900705763E+00 -0.34016184668E+02  0.43400741540E+02  0.00000000000E+00 0. -1.
         11    1    3    3    0    0  0.11677226796E+01  0.58638420509E+01  0.67594632780E+01  0.90243317715E+01  0.51100000000E-03 0. -1.
        -11    1    3    3    0    0  0.14598754479E+01  0.12373865356E+00  0.46709542655E+01  0.48953408042E+01  0.51100000000E-03 0.  1.
        -12    1    3    3    0    0  0.24315530404E+02 -0.67565877621E+01  0.22585767124E+02  0.33867585884E+02  0.00000000000E+00 0.  1.
</event>
<event>
 7    1  0.2318319E-009  0.4778727E+02  0.7816164E-02  0.1312668E+00
        -11   -1    0    0    0    0  0.00000000000E+00  0.00000000000E+00  0.45593999997E+02  0.45594000000E+02  0.51100000000E-03 0. -1.
         11   -1    0    0    0    0 -0.00000000000E+00 -0.00000000000E+00 -0.45593999997E+02  0.45594000000E+02  0.51100000000E-03 0.  1.
    9900012    2    1    2    0    0  0.20952030809E+02  0.33150827185E+02 -0.18591883374E+02  0.47787273445E+02  0.20000010946E+02 0.  0.
         12    1    1    2    0    0 -0.20952030809E+02 -0.33150827185E+02  0.18591883374E+02  0.43400726555E+02  0.00000000000E+00 0. -1.
         11    1    3    3    0    0  0.22908139845E+01  0.29930432115E-01 -0.46840059334E+01  0.52142723737E+01  0.51100000000E-03 0. -1.
        -11    1    3    3    0    0 -0.19931287883E+01  0.17170082758E+01 -0.12407318080E+01  0.29086243254E+01  0.51100000000E-03 0.  1.
        -12    1    3    3    0    0  0.20654345613E+02  0.31403888477E+02 -0.12667145633E+02  0.39664376746E+02  0.00000000000E+00 0.  1.
</event>
<event>
 7    1  0.2318319E-009  0.4778727E+02  0.7816164E-02  0.1312668E+00
        -11   -1    0    0    0    0  0.00000000000E+00  0.00000000000E+00  0.45593999997E+02  0.45594000000E+02  0.51100000000E-03 0. -1.
         11   -1    0    0    0    0 -0.00000000000E+00 -0.00000000000E+00 -0.45593999997E+02  0.45594000000E+02  0.51100000000E-03 0.  1.
    9900012    2    1    2    0    0  0.97590347475E+01 -0.14813651542E+02 -0.39609850242E+02  0.47787271119E+02  0.20000000338E+02 0.  0.
         12    1    1    2    0    0 -0.97590347475E+01  0.14813651542E+02  0.39609850242E+02  0.43400728881E+02  0.00000000000E+00 0. -1.
         11    1    3    3    0    0 -0.19826170756E+01  0.80245871261E+00  0.25404977601E+00  0.21538922916E+01  0.51100000000E-03 0. -1.
        -11    1    3    3    0    0  0.90236126074E+00 -0.32849995376E+01 -0.17845903347E+02  0.18168151924E+02  0.51100000000E-03 0.  1.
        -12    1    3    3    0    0  0.10839290562E+02 -0.12331110717E+02 -0.22017996671E+02  0.27465226903E+02  0.00000000000E+00 0.  1.
</event>
<event>
 7    1  0.2318319E-009  0.4778727E+02  0.7816164E-02  0.1312668E+00
        -11   -1    0    0    0    0  0.00000000000E+00  0.00000000000E+00  0.45593999997E+02  0.45594000000E+02  0.51100000000E-03 0.  1.
         11   -1    0    0    0    0 -0.00000000000E+00 -0.00000000000E+00 -0.45593999997E+02  0.45594000000E+02  0.51100000000E-03 0. -1.
    9900012    2    1    2    0    0 -0.27760864210E+02 -0.51270759680E+01  0.32964691568E+02  0.47787269824E+02  0.19999994434E+02 0.  0.
         12    1    1    2    0    0  0.27760864210E+02  0.51270759680E+01 -0.32964691568E+02  0.43400730176E+02  0.00000000000E+00 0. -1.
         11    1    3    3    0    0  0.90582914172E+00 -0.19352030633E+01 -0.34073427302E+00  0.21637091847E+01  0.51100000000E-03 0. -1.
        -11    1    3    3    0    0 -0.53563682052E+01 -0.31474483020E+01  0.18691646994E+01  0.64877490779E+01  0.51100000000E-03 0.  1.
        -12    1    3    3    0    0 -0.23310325146E+02 -0.44424602753E-01  0.31436261142E+02  0.39135811561E+02  0.00000000000E+00 0.  1.
</event>
<event>
 7    1  0.2318319E-009  0.4778728E+02  0.7816164E-02  0.1312668E+00
        -11   -1    0    0    0    0  0.00000000000E+00  0.00000000000E+00  0.45593999997E+02  0.45594000000E+02  0.51100000000E-03 0.  1.
         11   -1    0    0    0    0 -0.00000000000E+00 -0.00000000000E+00 -0.45593999997E+02  0.45594000000E+02  0.51100000000E-03 0. -1.
    9900012    2    1    2    0    0  0.84311943727E+01 -0.11720104444E+02  0.40928920007E+02  0.47787281347E+02  0.20000046972E+02 0.  0.
         12    1    1    2    0    0 -0.84311943727E+01  0.11720104444E+02 -0.40928920007E+02  0.43400718653E+02  0.00000000000E+00 0. -1.
         11    1    3    3    0    0 -0.32152244182E+01 -0.85111792011E+00 -0.33791265482E+00  0.33430906355E+01  0.51100000000E-03 0. -1.
        -11    1    3    3    0    0  0.38621001223E+01 -0.16312468636E+01  0.76619167242E+01  0.87339425139E+01  0.51100000000E-03 0.  1.
        -12    1    3    3    0    0  0.77843186686E+01 -0.92377396598E+01  0.33604915937E+02  0.35710248197E+02  0.00000000000E+00 0.  1.
</event>
<event>
 7    1  0.2318319E-009  0.4778721E+02  0.7816164E-02  0.1312668E+00
        -11   -1    0    0    0    0  0.00000000000E+00  0.00000000000E+00  0.45593999997E+02  0.45594000000E+02  0.51100000000E-03 0.  1.
         11   -1    0    0    0    0 -0.00000000000E+00 -0.00000000000E+00 -0.45593999997E+02  0.45594000000E+02  0.51100000000E-03 0. -1.
    9900012    2    1    2    0    0 -0.17389607783E+02 -0.14949774413E+02  0.36847452026E+02  0.47787205829E+02  0.19999702655E+02 0.  0.
         12    1    1    2    0    0  0.17389607783E+02  0.14949774413E+02 -0.36847452026E+02  0.43400794171E+02  0.00000000000E+00 0. -1.
         11    1    3    3    0    0  0.16008153252E+01 -0.30623868357E+01  0.18108358003E+01  0.39012753547E+01  0.51100000000E-03 0. -1.
        -11    1    3    3    0    0 -0.63498742207E+01 -0.85140835250E+01  0.63952126246E+01  0.12397954092E+02  0.51100000000E-03 0.  1.
         12    1    3    3    0    0 -0.12640548888E+02 -0.33733040523E+01  0.28641403601E+02  0.31487976382E+02  0.00000000000E+00 0. -1.
</event>
<event>
 7    1  0.2318319E-009  0.4778727E+02  0.7816164E-02  0.1312668E+00
        -11   -1    0    0    0    0  0.00000000000E+00  0.00000000000E+00  0.45593999997E+02  0.45594000000E+02  0.51100000000E-03 0.  1.
         11   -1    0    0    0    0 -0.00000000000E+00 -0.00000000000E+00 -0.45593999997E+02  0.45594000000E+02  0.51100000000E-03 0. -1.
    9900012    2    1    2    0    0  0.92773805466E+01 -0.62005177060E+01  0.41941709285E+02  0.47787272041E+02  0.20000004544E+02 0.  0.
         12    1    1    2    0    0 -0.92773805466E+01  0.62005177060E+01 -0.41941709285E+02  0.43400727959E+02  0.00000000000E+00 0. -1.
         11    1    3    3    0    0  0.44360911152E+01  0.55725598217E+01  0.12340127233E+02  0.14248195245E+02  0.51100000000E-03 0. -1.
        -11    1    3    3    0    0  0.52229629644E+01 -0.25050011675E+01  0.16491766179E+02  0.17479494413E+02  0.51100000000E-03 0.  1.
        -12    1    3    3    0    0 -0.38167353295E+00 -0.92680763602E+01  0.13109815873E+02  0.16059582383E+02  0.00000000000E+00 0.  1.
</event>
<event>
 7    1  0.2318319E-009  0.4778727E+02  0.7816164E-02  0.1312668E+00
        -11   -1    0    0    0    0  0.00000000000E+00  0.00000000000E+00  0.45593999997E+02  0.45594000000E+02  0.51100000000E-03 0.  1.
         11   -1    0    0    0    0 -0.00000000000E+00 -0.00000000000E+00 -0.45593999997E+02  0.45594000000E+02  0.51100000000E-03 0. -1.
    9900012    2    1    2    0    0  0.58016983245E+01  0.10251366915E+01  0.42998985995E+02  0.47787269531E+02  0.19999993098E+02 0.  0.
         12    1    1    2    0    0 -0.58016983245E+01 -0.10251366915E+01 -0.42998985995E+02  0.43400730469E+02  0.00000000000E+00 0. -1.
         11    1    3    3    0    0  0.28342047962E+01  0.50688825807E+01  0.52508495797E+01  0.78292853449E+01  0.51100000000E-03 0. -1.
        -11    1    3    3    0    0  0.43876887914E+01 -0.25961294349E+01  0.49790053413E+01  0.71261627418E+01  0.51100000000E-03 0.  1.
        -12    1    3    3    0    0 -0.14201952631E+01 -0.14476164543E+01  0.32769131074E+02  0.32831821444E+02  0.00000000000E+00 0.  1.
</event>
<event>
 7    1  0.2318319E-009  0.4778727E+02  0.7816164E-02  0.1312668E+00
        -11   -1    0    0    0    0  0.00000000000E+00  0.00000000000E+00  0.45593999997E+02  0.45594000000E+02  0.51100000000E-03 0.  1.
         11   -1    0    0    0    0 -0.00000000000E+00 -0.00000000000E+00 -0.45593999997E+02  0.45594000000E+02  0.51100000000E-03 0. -1.
    9900012    2    1    2    0    0 -0.19824284170E+02 -0.38186374425E+02 -0.56940261181E+01  0.47787269960E+02  0.19999995055E+02 0.  0.
         12    1    1    2    0    0  0.19824284170E+02  0.38186374425E+02  0.56940261181E+01  0.43400730040E+02  0.00000000000E+00 0. -1.
         11    1    3    3    0    0 -0.10005854398E+01 -0.57262103321E+01 -0.75317737070E+00  0.58615639895E+01  0.51100000000E-03 0. -1.
        -11    1    3    3    0    0 -0.17976491811E+02 -0.31606361989E+02 -0.91943873382E+01  0.37505374745E+02  0.51100000000E-03 0.  1.
         12    1    3    3    0    0 -0.84720691911E+00 -0.85380210429E+00  0.42535385908E+01  0.44203312252E+01  0.00000000000E+00 0. -1.
</event>
<event>
 7    1  0.2318319E-009  0.4778727E+02  0.7816164E-02  0.1312668E+00
        -11   -1    0    0    0    0  0.00000000000E+00  0.00000000000E+00  0.45593999997E+02  0.45594000000E+02  0.51100000000E-03 0.  1.
         11   -1    0    0    0    0 -0.00000000000E+00 -0.00000000000E+00 -0.45593999997E+02  0.45594000000E+02  0.51100000000E-03 0. -1.
    9900012    2    1    2    0    0  0.24021406037E+02  0.16874775576E+02  0.31966192111E+02  0.47787269167E+02  0.19999991441E+02 0.  0.
         12    1    1    2    0    0 -0.24021406037E+02 -0.16874775576E+02 -0.31966192111E+02  0.43400730833E+02  0.00000000000E+00 0. -1.
         11    1    3    3    0    0  0.41759023910E+01  0.26442382896E+01  0.17039840593E+01  0.52281659161E+01  0.51100000000E-03 0. -1.
        -11    1    3    3    0    0  0.14471214037E+02  0.18160281793E+02  0.22513155866E+02  0.32342758970E+02  0.51100000000E-03 0.  1.
         12    1    3    3    0    0  0.53742896092E+01 -0.39297445065E+01  0.77490521857E+01  0.10216344281E+02  0.00000000000E+00 0. -1.
</event>
<event>
 7    1  0.2318319E-009  0.4778727E+02  0.7816164E-02  0.1312668E+00
        -11   -1    0    0    0    0  0.00000000000E+00  0.00000000000E+00  0.45593999997E+02  0.45594000000E+02  0.51100000000E-03 0.  1.
         11   -1    0    0    0    0 -0.00000000000E+00 -0.00000000000E+00 -0.45593999997E+02  0.45594000000E+02  0.51100000000E-03 0. -1.
    9900012    2    1    2    0    0  0.35965706992E+02 -0.83829308784E+00  0.24277321659E+02  0.47787272337E+02  0.20000005892E+02 0.  0.
         12    1    1    2    0    0 -0.35965706992E+02  0.83829308784E+00 -0.24277321659E+02  0.43400727663E+02  0.00000000000E+00 0. -1.
         11    1    3    3    0    0  0.53543591829E+01 -0.50254496639E+01  0.33808462595E+01  0.80842085744E+01  0.51100000000E-03 0. -1.
        -11    1    3    3    0    0  0.84946053765E+00  0.14336200184E+01  0.61547415096E+01  0.63763385162E+01  0.51100000000E-03 0.  1.
         12    1    3    3    0    0  0.29761887272E+02  0.27535365577E+01  0.14741733890E+02  0.33326725246E+02  0.00000000000E+00 0. -1.
</event>
<event>
 7    1  0.2318319E-009  0.4778726E+02  0.7816164E-02  0.1312668E+00
        -11   -1    0    0    0    0  0.00000000000E+00  0.00000000000E+00  0.45593999997E+02  0.45594000000E+02  0.51100000000E-03 0.  1.
         11   -1    0    0    0    0 -0.00000000000E+00 -0.00000000000E+00 -0.45593999997E+02  0.45594000000E+02  0.51100000000E-03 0. -1.
    9900012    2    1    2    0    0 -0.15763020496E+02  0.31639196118E+02  0.25181595397E+02  0.47787259305E+02  0.19999946473E+02 0.  0.
         12    1    1    2    0    0  0.15763020496E+02 -0.31639196118E+02 -0.25181595397E+02  0.43400740695E+02  0.00000000000E+00 0. -1.
         11    1    3    3    0    0 -0.40981449755E+01  0.28426810064E+01  0.32584114705E+01  0.59575895391E+01  0.51100000000E-03 0. -1.
        -11    1    3    3    0    0 -0.69417704125E+01  0.17846527064E+02  0.22915662051E+02  0.29863259571E+02  0.51100000000E-03 0.  1.
         12    1    3    3    0    0 -0.47231051080E+01  0.10949988048E+02 -0.99247812486E+00  0.11966410194E+02  0.00000000000E+00 0. -1.
</event>
<event>
 7    1  0.2318319E-009  0.4778727E+02  0.7816164E-02  0.1312668E+00
        -11   -1    0    0    0    0  0.00000000000E+00  0.00000000000E+00  0.45593999997E+02  0.45594000000E+02  0.51100000000E-03 0.  1.
         11   -1    0    0    0    0 -0.00000000000E+00 -0.00000000000E+00 -0.45593999997E+02  0.45594000000E+02  0.51100000000E-03 0. -1.
    9900012    2    1    2    0    0 -0.11754754725E+02 -0.40646207320E+02 -0.96609845741E+01  0.47787273611E+02  0.20000011702E+02 0.  0.
         12    1    1    2    0    0  0.11754754725E+02  0.40646207320E+02  0.96609845741E+01  0.43400726389E+02  0.00000000000E+00 0. -1.
         11    1    3    3    0    0  0.22317671834E+01 -0.12296513811E+02 -0.19852572721E+01  0.12654101444E+02  0.51100000000E-03 0. -1.
        -11    1    3    3    0    0 -0.16666985064E+01 -0.14255953732E+02 -0.79583681365E+01  0.16411755676E+02  0.51100000000E-03 0.  1.
        -12    1    3    3    0    0 -0.12319823402E+02 -0.14093739777E+02  0.28264083451E+00  0.18721416490E+02  0.00000000000E+00 0.  1.
</event>
<event>
 7    1  0.2318319E-009  0.4778726E+02  0.7816164E-02  0.1312668E+00
        -11   -1    0    0    0    0  0.00000000000E+00  0.00000000000E+00  0.45593999997E+02  0.45594000000E+02  0.51100000000E-03 0. -1.
         11   -1    0    0    0    0 -0.00000000000E+00 -0.00000000000E+00 -0.45593999997E+02  0.45594000000E+02  0.51100000000E-03 0.  1.
    9900012    2    1    2    0    0 -0.14401381971E+02  0.67514208126E+01 -0.40381213363E+02  0.47787264081E+02  0.19999968252E+02 0.  0.
         12    1    1    2    0    0  0.14401381971E+02 -0.67514208126E+01  0.40381213363E+02  0.43400735919E+02  0.00000000000E+00 0. -1.
         11    1    3    3    0    0 -0.51574792608E+01 -0.12848762389E+01 -0.20009744769E+01  0.56792955895E+01  0.51100000000E-03 0. -1.
        -11    1    3    3    0    0 -0.11668756763E+02  0.57201214510E+01 -0.35051686242E+02  0.37383156401E+02  0.51100000000E-03 0.  1.
         12    1    3    3    0    0  0.24248540536E+01  0.23161756005E+01 -0.33285526440E+01  0.47248120913E+01  0.00000000000E+00 0. -1.
</event>
<event>
 7    1  0.2318319E-009  0.4778727E+02  0.7816164E-02  0.1312668E+00
        -11   -1    0    0    0    0  0.00000000000E+00  0.00000000000E+00  0.45593999997E+02  0.45594000000E+02  0.51100000000E-03 0.  1.
         11   -1    0    0    0    0 -0.00000000000E+00 -0.00000000000E+00 -0.45593999997E+02  0.45594000000E+02  0.51100000000E-03 0. -1.
    9900012    2    1    2    0    0  0.29366436372E+02  0.16069775499E+02  0.27622419011E+02  0.47787270723E+02  0.19999998533E+02 0.  0.
         12    1    1    2    0    0 -0.29366436372E+02 -0.16069775499E+02 -0.27622419011E+02  0.43400729277E+02  0.00000000000E+00 0. -1.
         11    1    3    3    0    0  0.73015435498E+01  0.10533815196E+02  0.11807992855E+02  0.17427062183E+02  0.51100000000E-03 0. -1.
        -11    1    3    3    0    0  0.76032229957E+01  0.73849436367E+01  0.31747244844E+01  0.11064595259E+02  0.51100000000E-03 0.  1.
        -12    1    3    3    0    0  0.14461669826E+02 -0.18489833335E+01  0.12639701671E+02  0.19295613281E+02  0.00000000000E+00 0.  1.
</event>
<event>
 7    1  0.2318319E-009  0.4778727E+02  0.7816164E-02  0.1312668E+00
        -11   -1    0    0    0    0  0.00000000000E+00  0.00000000000E+00  0.45593999997E+02  0.45594000000E+02  0.51100000000E-03 0.  1.
         11   -1    0    0    0    0 -0.00000000000E+00 -0.00000000000E+00 -0.45593999997E+02  0.45594000000E+02  0.51100000000E-03 0. -1.
    9900012    2    1    2    0    0 -0.33187714688E+02 -0.19595889302E+02  0.19954950269E+02  0.47787270467E+02  0.19999997366E+02 0.  0.
         12    1    1    2    0    0  0.33187714688E+02  0.19595889302E+02 -0.19954950269E+02  0.43400729533E+02  0.00000000000E+00 0. -1.
         11    1    3    3    0    0 -0.44846844269E+01 -0.59232250396E+01  0.68628358415E+01  0.10114124051E+02  0.51100000000E-03 0. -1.
        -11    1    3    3    0    0  0.11872234452E+01 -0.31758156027E+01  0.26941169065E+01  0.43305392756E+01  0.51100000000E-03 0.  1.
        -12    1    3    3    0    0 -0.29890253707E+02 -0.10496848660E+02  0.10397997521E+02  0.33342607140E+02  0.00000000000E+00 0.  1.
</event>
<event>
 7    1  0.2318319E-009  0.4778728E+02  0.7816164E-02  0.1312668E+00
        -11   -1    0    0    0    0  0.00000000000E+00  0.00000000000E+00  0.45593999997E+02  0.45594000000E+02  0.51100000000E-03 0.  1.
         11   -1    0    0    0    0 -0.00000000000E+00 -0.00000000000E+00 -0.45593999997E+02  0.45594000000E+02  0.51100000000E-03 0. -1.
    9900012    2    1    2    0    0 -0.43226544865E+02  0.38695251525E+01  0.33968862916E+00  0.47787276570E+02  0.20000025193E+02 0.  0.
         12    1    1    2    0    0  0.43226544865E+02 -0.38695251525E+01 -0.33968862916E+00  0.43400723430E+02  0.00000000000E+00 0. -1.
         11    1    3    3    0    0 -0.77300461517E+01  0.30638364450E+00 -0.31852891797E+01  0.83662149066E+01  0.51100000000E-03 0. -1.
        -11    1    3    3    0    0 -0.27251893414E+02  0.48934259242E+01 -0.42485563079E+01  0.28011810775E+02  0.51100000000E-03 0.  1.
         12    1    3    3    0    0 -0.82446052993E+01 -0.13302844162E+01  0.77735341168E+01  0.11409250888E+02  0.00000000000E+00 0. -1.
</event>
<event>
 7    1  0.2318319E-009  0.4778727E+02  0.7816164E-02  0.1312668E+00
        -11   -1    0    0    0    0  0.00000000000E+00  0.00000000000E+00  0.45593999997E+02  0.45594000000E+02  0.51100000000E-03 0.  1.
         11   -1    0    0    0    0 -0.00000000000E+00 -0.00000000000E+00 -0.45593999997E+02  0.45594000000E+02  0.51100000000E-03 0. -1.
    9900012    2    1    2    0    0  0.40201566544E+02  0.57754535261E+01  0.15300386210E+02  0.47787266894E+02  0.19999981075E+02 0.  0.
         12    1    1    2    0    0 -0.40201566544E+02 -0.57754535261E+01 -0.15300386210E+02  0.43400733106E+02  0.00000000000E+00 0. -1.
         11    1    3    3    0    0  0.18492668249E+02  0.21943605982E+01  0.40674074243E+01  0.19061421794E+02  0.51100000000E-03 0. -1.
        -11    1    3    3    0    0  0.19483456761E+02  0.95526402202E+00  0.14243053212E+02  0.24153305815E+02  0.51100000000E-03 0.  1.
        -12    1    3    3    0    0  0.22254415338E+01  0.26258289058E+01 -0.30100744262E+01  0.45725392851E+01  0.00000000000E+00 0.  1.
</event>
<event>
 7    1  0.2318319E-009  0.4778727E+02  0.7816164E-02  0.1312668E+00
        -11   -1    0    0    0    0  0.00000000000E+00  0.00000000000E+00  0.45593999997E+02  0.45594000000E+02  0.51100000000E-03 0.  1.
         11   -1    0    0    0    0 -0.00000000000E+00 -0.00000000000E+00 -0.45593999997E+02  0.45594000000E+02  0.51100000000E-03 0. -1.
    9900012    2    1    2    0    0 -0.30203290614E+02 -0.11989987258E+02  0.28768463724E+02  0.47787273469E+02  0.20000011055E+02 0.  0.
         12    1    1    2    0    0  0.30203290614E+02  0.11989987258E+02 -0.28768463724E+02  0.43400726531E+02  0.00000000000E+00 0. -1.
         11    1    3    3    0    0 -0.82757428892E+01 -0.91814575844E+01  0.12663774130E+02  0.17696278117E+02  0.51100000000E-03 0. -1.
        -11    1    3    3    0    0 -0.14184298909E+02 -0.76396221410E+01  0.11972788792E+02  0.20072514385E+02  0.51100000000E-03 0.  1.
        -12    1    3    3    0    0 -0.77432488151E+01  0.48310924672E+01  0.41319008025E+01  0.10018480967E+02  0.00000000000E+00 0.  1.
</event>
<event>
 7    1  0.2318319E-009  0.4778727E+02  0.7816164E-02  0.1312668E+00
        -11   -1    0    0    0    0  0.00000000000E+00  0.00000000000E+00  0.45593999997E+02  0.45594000000E+02  0.51100000000E-03 0. -1.
         11   -1    0    0    0    0 -0.00000000000E+00 -0.00000000000E+00 -0.45593999997E+02  0.45594000000E+02  0.51100000000E-03 0.  1.
    9900012    2    1    2    0    0  0.88431751337E+01 -0.16866630794E+02 -0.38999205381E+02  0.47787274187E+02  0.20000014329E+02 0.  0.
         12    1    1    2    0    0 -0.88431751337E+01  0.16866630794E+02  0.38999205381E+02  0.43400725813E+02  0.00000000000E+00 0. -1.
         11    1    3    3    0    0 -0.20078588463E+01 -0.41863988171E+01 -0.65246294862E+00  0.46886181720E+01  0.51100000000E-03 0. -1.
        -11    1    3    3    0    0  0.18434949147E+01 -0.84985764296E+01 -0.11115284761E+02  0.14112895890E+02  0.51100000000E-03 0.  1.
        -12    1    3    3    0    0  0.90075390653E+01 -0.41816555469E+01 -0.27231457671E+02  0.28985760125E+02  0.00000000000E+00 0.  1.
</event>
<event>
 7    1  0.2318319E-009  0.4778727E+02  0.7816164E-02  0.1312668E+00
        -11   -1    0    0    0    0  0.00000000000E+00  0.00000000000E+00  0.45593999997E+02  0.45594000000E+02  0.51100000000E-03 0. -1.
         11   -1    0    0    0    0 -0.00000000000E+00 -0.00000000000E+00 -0.45593999997E+02  0.45594000000E+02  0.51100000000E-03 0.  1.
    9900012    2    1    2    0    0  0.71683508328E+01 -0.29296693902E+02 -0.31208042689E+02  0.47787268950E+02  0.19999990448E+02 0.  0.
         12    1    1    2    0    0 -0.71683508328E+01  0.29296693902E+02  0.31208042689E+02  0.43400731050E+02  0.00000000000E+00 0. -1.
         11    1    3    3    0    0  0.29611378802E+01 -0.11110759987E+02 -0.10089278748E+02  0.15297413865E+02  0.51100000000E-03 0. -1.
        -11    1    3    3    0    0  0.52755041510E+01 -0.17205030295E+02 -0.87029681755E+01  0.19989638987E+02  0.51100000000E-03 0.  1.
         12    1    3    3    0    0 -0.10682911984E+01 -0.98090361960E+00 -0.12415795766E+02  0.12500216098E+02  0.00000000000E+00 0. -1.
</event>
<event>
 7    1  0.2318319E-009  0.4778727E+02  0.7816164E-02  0.1312668E+00
        -11   -1    0    0    0    0  0.00000000000E+00  0.00000000000E+00  0.45593999997E+02  0.45594000000E+02  0.51100000000E-03 0. -1.
         11   -1    0    0    0    0 -0.00000000000E+00 -0.00000000000E+00 -0.45593999997E+02  0.45594000000E+02  0.51100000000E-03 0.  1.
    9900012    2    1    2    0    0 -0.29928295777E+02 -0.29004760281E+02  0.12109693731E+02  0.47787266258E+02  0.19999978177E+02 0.  0.
         12    1    1    2    0    0  0.29928295777E+02  0.29004760281E+02 -0.12109693731E+02  0.43400733742E+02  0.00000000000E+00 0. -1.
         11    1    3    3    0    0 -0.18712144106E+02 -0.14782459817E+02  0.95612611343E+01  0.25692083800E+02  0.51100000000E-03 0. -1.
        -11    1    3    3    0    0 -0.13560206105E+02 -0.14152433993E+02  0.21758048515E+01  0.19720666940E+02  0.51100000000E-03 0.  1.
         12    1    3    3    0    0  0.23440544333E+01 -0.69866471519E-01  0.37262774548E+00  0.23745155184E+01  0.00000000000E+00 0. -1.
</event>
<event>
 7    1  0.2318319E-009  0.4778727E+02  0.7816164E-02  0.1312668E+00
        -11   -1    0    0    0    0  0.00000000000E+00  0.00000000000E+00  0.45593999997E+02  0.45594000000E+02  0.51100000000E-03 0.  1.
         11   -1    0    0    0    0 -0.00000000000E+00 -0.00000000000E+00 -0.45593999997E+02  0.45594000000E+02  0.51100000000E-03 0. -1.
    9900012    2    1    2    0    0  0.18000378634E+02 -0.53188660319E+01  0.39132077718E+02  0.47787268746E+02  0.19999989522E+02 0.  0.
         12    1    1    2    0    0 -0.18000378634E+02  0.53188660319E+01 -0.39132077718E+02  0.43400731254E+02  0.00000000000E+00 0. -1.
         11    1    3    3    0    0  0.43656221840E+01  0.15934844139E+01  0.26424620876E+01  0.53460691893E+01  0.51100000000E-03 0. -1.
        -11    1    3    3    0    0  0.37447076623E+00  0.36016520124E+01  0.22919223444E+01  0.42854444189E+01  0.51100000000E-03 0.  1.
        -12    1    3    3    0    0  0.13260285684E+02 -0.10514002458E+02  0.34197693286E+02  0.38155755138E+02  0.00000000000E+00 0.  1.
</event>
<event>
 7    1  0.2318319E-009  0.4778727E+02  0.7816164E-02  0.1312668E+00
        -11   -1    0    0    0    0  0.00000000000E+00  0.00000000000E+00  0.45593999997E+02  0.45594000000E+02  0.51100000000E-03 0.  1.
         11   -1    0    0    0    0 -0.00000000000E+00 -0.00000000000E+00 -0.45593999997E+02  0.45594000000E+02  0.51100000000E-03 0. -1.
    9900012    2    1    2    0    0 -0.14494398054E+02  0.34811695134E+02  0.21486779602E+02  0.47787269699E+02  0.19999993864E+02 0.  0.
         12    1    1    2    0    0  0.14494398054E+02 -0.34811695134E+02 -0.21486779602E+02  0.43400730301E+02  0.00000000000E+00 0. -1.
         11    1    3    3    0    0 -0.12988835747E+01 -0.45716726876E+00 -0.89527274150E+00  0.16424414738E+01  0.51100000000E-03 0. -1.
        -11    1    3    3    0    0  0.19533944633E-01  0.23436214253E+01 -0.20123544742E+01  0.30890959440E+01  0.51100000000E-03 0.  1.
        -12    1    3    3    0    0 -0.13215048424E+02  0.32925240977E+02  0.24394406817E+02  0.43055732281E+02  0.00000000000E+00 0.  1.
</event>
<event>
 7    1  0.2318319E-009  0.4778727E+02  0.7816164E-02  0.1312668E+00
        -11   -1    0    0    0    0  0.00000000000E+00  0.00000000000E+00  0.45593999997E+02  0.45594000000E+02  0.51100000000E-03 0.  1.
         11   -1    0    0    0    0 -0.00000000000E+00 -0.00000000000E+00 -0.45593999997E+02  0.45594000000E+02  0.51100000000E-03 0. -1.
    9900012    2    1    2    0    0 -0.39181300248E+02 -0.44875626925E+01  0.18119348047E+02  0.47787270954E+02  0.19999999590E+02 0.  0.
         12    1    1    2    0    0  0.39181300248E+02  0.44875626925E+01 -0.18119348047E+02  0.43400729046E+02  0.00000000000E+00 0. -1.
         11    1    3    3    0    0 -0.98134399492E+00 -0.11914662764E+01 -0.15846355662E+01  0.22121704417E+01  0.51100000000E-03 0. -1.
        -11    1    3    3    0    0 -0.43144887770E+01 -0.21104179474E+01 -0.21225224535E+01  0.52510740945E+01  0.51100000000E-03 0.  1.
        -12    1    3    3    0    0 -0.33885467476E+02 -0.11856784687E+01  0.21826506067E+02  0.40324026418E+02  0.00000000000E+00 0.  1.
</event>
<event>
 7    1  0.2318319E-009  0.4778727E+02  0.7816164E-02  0.1312668E+00
        -11   -1    0    0    0    0  0.00000000000E+00  0.00000000000E+00  0.45593999997E+02  0.45594000000E+02  0.51100000000E-03 0.  1.
         11   -1    0    0    0    0 -0.00000000000E+00 -0.00000000000E+00 -0.45593999997E+02  0.45594000000E+02  0.51100000000E-03 0. -1.
    9900012    2    1    2    0    0 -0.25470224477E+02 -0.88130679311E+01  0.34017947413E+02  0.47787271349E+02  0.20000001388E+02 0.  0.
         12    1    1    2    0    0  0.25470224477E+02  0.88130679311E+01 -0.34017947413E+02  0.43400728651E+02  0.00000000000E+00 0. -1.
         11    1    3    3    0    0 -0.15077007116E+01 -0.50777564793E+01  0.42271771227E+01  0.67768576042E+01  0.51100000000E-03 0. -1.
        -11    1    3    3    0    0 -0.19433491334E+02 -0.81164601725E+01  0.26657966317E+02  0.33973293623E+02  0.51100000000E-03 0.  1.
        -12    1    3    3    0    0 -0.45290324310E+01  0.43811487207E+01  0.31328039736E+01  0.70371201220E+01  0.00000000000E+00 0.  1.
</event>
<event>
 7    1  0.2318319E-009  0.4778727E+02  0.7816164E-02  0.1312668E+00
        -11   -1    0    0    0    0  0.00000000000E+00  0.00000000000E+00  0.45593999997E+02  0.45594000000E+02  0.51100000000E-03 0.  1.
         11   -1    0    0    0    0 -0.00000000000E+00 -0.00000000000E+00 -0.45593999997E+02  0.45594000000E+02  0.51100000000E-03 0. -1.
    9900012    2    1    2    0    0 -0.19565551865E+02  0.35588788930E+02  0.15305243183E+02  0.47787272055E+02  0.20000004607E+02 0.  0.
         12    1    1    2    0    0  0.19565551865E+02 -0.35588788930E+02 -0.15305243183E+02  0.43400727945E+02  0.00000000000E+00 0. -1.
         11    1    3    3    0    0 -0.85365001042E+01  0.36829718712E+01  0.80360563327E+01  0.12288788284E+02  0.51100000000E-03 0. -1.
        -11    1    3    3    0    0 -0.18879214335E+00 -0.38698401762E+00 -0.39377056978E+00  0.58348489786E+00  0.51100000000E-03 0.  1.
        -12    1    3    3    0    0 -0.10840259618E+02  0.32292801076E+02  0.76629574196E+01  0.34914998874E+02  0.00000000000E+00 0.  1.
</event>
<event>
 7    1  0.2318319E-009  0.4778727E+02  0.7816164E-02  0.1312668E+00
        -11   -1    0    0    0    0  0.00000000000E+00  0.00000000000E+00  0.45593999997E+02  0.45594000000E+02  0.51100000000E-03 0.  1.
         11   -1    0    0    0    0 -0.00000000000E+00 -0.00000000000E+00 -0.45593999997E+02  0.45594000000E+02  0.51100000000E-03 0. -1.
    9900012    2    1    2    0    0 -0.25206342926E+02 -0.87763534949E+01  0.34223368144E+02  0.47787273837E+02  0.20000012733E+02 0.  0.
         12    1    1    2    0    0  0.25206342926E+02  0.87763534949E+01 -0.34223368144E+02  0.43400726163E+02  0.00000000000E+00 0. -1.
         11    1    3    3    0    0 -0.59619770603E+01  0.17569963678E+01  0.13062214240E+02  0.14465602228E+02  0.51100000000E-03 0. -1.
        -11    1    3    3    0    0 -0.24630268841E+00  0.23921556907E+01  0.57944442696E+00  0.24736268854E+01  0.51100000000E-03 0.  1.
         12    1    3    3    0    0 -0.18998063177E+02 -0.12925505553E+02  0.20581709477E+02  0.30848044724E+02  0.00000000000E+00 0. -1.
</event>
<event>
 7    1  0.2318319E-009  0.4778727E+02  0.7816164E-02  0.1312668E+00
        -11   -1    0    0    0    0  0.00000000000E+00  0.00000000000E+00  0.45593999997E+02  0.45594000000E+02  0.51100000000E-03 0.  1.
         11   -1    0    0    0    0 -0.00000000000E+00 -0.00000000000E+00 -0.45593999997E+02  0.45594000000E+02  0.51100000000E-03 0. -1.
    9900012    2    1    2    0    0 -0.36708998414E+02  0.16428821904E+02  0.16314603546E+02  0.47787273709E+02  0.20000012149E+02 0.  0.
         12    1    1    2    0    0  0.36708998414E+02 -0.16428821904E+02 -0.16314603546E+02  0.43400726291E+02  0.00000000000E+00 0. -1.
         11    1    3    3    0    0  0.50179005076E+00  0.38619558617E+01 -0.27488563382E+00  0.39041079270E+01  0.51100000000E-03 0. -1.
        -11    1    3    3    0    0 -0.62135048894E+01 -0.10815085854E+01  0.51241897368E+01  0.81261691191E+01  0.51100000000E-03 0.  1.
        -12    1    3    3    0    0 -0.30997283575E+02  0.13648374628E+02  0.11465299443E+02  0.35756996663E+02  0.00000000000E+00 0.  1.
</event>
<event>
 7    1  0.2318319E-009  0.4778727E+02  0.7816164E-02  0.1312668E+00
        -11   -1    0    0    0    0  0.00000000000E+00  0.00000000000E+00  0.45593999997E+02  0.45594000000E+02  0.51100000000E-03 0. -1.
         11   -1    0    0    0    0 -0.00000000000E+00 -0.00000000000E+00 -0.45593999997E+02  0.45594000000E+02  0.51100000000E-03 0.  1.
    9900012    2    1    2    0    0  0.35251742988E+02 -0.11111483934E+02 -0.22748029885E+02  0.47787270484E+02  0.19999997443E+02 0.  0.
         12    1    1    2    0    0 -0.35251742988E+02  0.11111483934E+02  0.22748029885E+02  0.43400729516E+02  0.00000000000E+00 0. -1.
         11    1    3    3    0    0  0.81142224449E+01  0.12325790280E+01 -0.60148016118E+01  0.10175347445E+02  0.51100000000E-03 0. -1.
        -11    1    3    3    0    0  0.58009460255E+01 -0.65692595331E+01 -0.12242591556E+02  0.15056134758E+02  0.51100000000E-03 0.  1.
        -12    1    3    3    0    0  0.21336574518E+02 -0.57748034284E+01 -0.44906367173E+01  0.22555788280E+02  0.00000000000E+00 0.  1.
</event>
<event>
 7    1  0.2318319E-009  0.4778727E+02  0.7816164E-02  0.1312668E+00
        -11   -1    0    0    0    0  0.00000000000E+00  0.00000000000E+00  0.45593999997E+02  0.45594000000E+02  0.51100000000E-03 0.  1.
         11   -1    0    0    0    0 -0.00000000000E+00 -0.00000000000E+00 -0.45593999997E+02  0.45594000000E+02  0.51100000000E-03 0. -1.
    9900012    2    1    2    0    0  0.17544358294E+01 -0.34903218883E+02  0.25735402474E+02  0.47787266435E+02  0.19999978984E+02 0.  0.
         12    1    1    2    0    0 -0.17544358294E+01  0.34903218883E+02 -0.25735402474E+02  0.43400733565E+02  0.00000000000E+00 0. -1.
         11    1    3    3    0    0 -0.33670768905E+01 -0.11052605821E+01  0.68952935674E+00  0.36102989815E+01  0.51100000000E-03 0. -1.
        -11    1    3    3    0    0  0.27605023879E+01 -0.10285882183E+01  0.46562155845E+01  0.55098739538E+01  0.51100000000E-03 0.  1.
        -12    1    3    3    0    0  0.23610103320E+01 -0.32769370083E+02  0.20389657533E+02  0.38667093500E+02  0.00000000000E+00 0.  1.
</event>
<event>
 7    1  0.2318319E-009  0.4778727E+02  0.7816164E-02  0.1312668E+00
        -11   -1    0    0    0    0  0.00000000000E+00  0.00000000000E+00  0.45593999997E+02  0.45594000000E+02  0.51100000000E-03 0.  1.
         11   -1    0    0    0    0 -0.00000000000E+00 -0.00000000000E+00 -0.45593999997E+02  0.45594000000E+02  0.51100000000E-03 0. -1.
    9900012    2    1    2    0    0  0.89772106048E+01  0.14937633385E+02  0.39747955092E+02  0.47787272640E+02  0.20000007274E+02 0.  0.
         12    1    1    2    0    0 -0.89772106048E+01 -0.14937633385E+02 -0.39747955092E+02  0.43400727360E+02  0.00000000000E+00 0. -1.
         11    1    3    3    0    0  0.45941832341E+01  0.55757059842E+01  0.15068197381E+02  0.16710642998E+02  0.51100000000E-03 0. -1.
        -11    1    3    3    0    0  0.75895198600E+01  0.28731852619E+00  0.17475313972E+02  0.19054394829E+02  0.51100000000E-03 0.  1.
         12    1    3    3    0    0 -0.32064924893E+01  0.90746088746E+01  0.72044437390E+01  0.12022234813E+02  0.00000000000E+00 0. -1.
</event>
<event>
 7    1  0.2318319E-009  0.4778728E+02  0.7816164E-02  0.1312668E+00
        -11   -1    0    0    0    0  0.00000000000E+00  0.00000000000E+00  0.45593999997E+02  0.45594000000E+02  0.51100000000E-03 0.  1.
         11   -1    0    0    0    0 -0.00000000000E+00 -0.00000000000E+00 -0.45593999997E+02  0.45594000000E+02  0.51100000000E-03 0. -1.
    9900012    2    1    2    0    0  0.24835467152E+02 -0.46975223702E+01  0.35281088046E+02  0.47787282048E+02  0.20000050168E+02 0.  0.
         12    1    1    2    0    0 -0.24835467152E+02  0.46975223702E+01 -0.35281088046E+02  0.43400717952E+02  0.00000000000E+00 0. -1.
         11    1    3    3    0    0  0.30842176199E+01  0.60436150993E+00  0.36427472897E+01  0.48111598642E+01  0.51100000000E-03 0.  1.
        -11    1    3    3    0    0 -0.24325176793E+01  0.10370877555E+01 -0.99066934215E-02  0.26443887151E+01  0.51100000000E-03 0. -1.
         12    1    3    3    0    0  0.24183767211E+02 -0.63389716357E+01  0.31648247450E+02  0.40331733468E+02  0.00000000000E+00 0. -1.
</event>
<event>
 7    1  0.2318319E-009  0.4778726E+02  0.7816164E-02  0.1312668E+00
        -11   -1    0    0    0    0  0.00000000000E+00  0.00000000000E+00  0.45593999997E+02  0.45594000000E+02  0.51100000000E-03 0. -1.
         11   -1    0    0    0    0 -0.00000000000E+00 -0.00000000000E+00 -0.45593999997E+02  0.45594000000E+02  0.51100000000E-03 0.  1.
    9900012    2    1    2    0    0  0.13605513243E+02 -0.37770135265E+02 -0.16490336518E+02  0.47787259142E+02  0.19999945731E+02 0.  0.
         12    1    1    2    0    0 -0.13605513243E+02  0.37770135265E+02  0.16490336518E+02  0.43400740858E+02  0.00000000000E+00 0. -1.
         11    1    3    3    0    0  0.44882835753E+01 -0.18552554156E+02 -0.94351151480E+01  0.21292330856E+02  0.51100000000E-03 0. -1.
        -11    1    3    3    0    0  0.29991443233E+01 -0.17319008688E+02 -0.90708987254E+01  0.19779386556E+02  0.51100000000E-03 0.  1.
         12    1    3    3    0    0  0.61180853445E+01 -0.18985724219E+01  0.20156773553E+01  0.67155417298E+01  0.00000000000E+00 0. -1.
</event>
<event>
 7    1  0.2318319E-009  0.4778728E+02  0.7816164E-02  0.1312668E+00
        -11   -1    0    0    0    0  0.00000000000E+00  0.00000000000E+00  0.45593999997E+02  0.45594000000E+02  0.51100000000E-03 0. -1.
         11   -1    0    0    0    0 -0.00000000000E+00 -0.00000000000E+00 -0.45593999997E+02  0.45594000000E+02  0.51100000000E-03 0.  1.
    9900012    2    1    2    0    0 -0.17221812404E+02  0.54235373293E+01 -0.39466659231E+02  0.47787276843E+02  0.20000026440E+02 0.  0.
         12    1    1    2    0    0  0.17221812404E+02 -0.54235373293E+01  0.39466659231E+02  0.43400723157E+02  0.00000000000E+00 0. -1.
         11    1    3    3    0    0 -0.10701101117E+02 -0.30085354143E+01 -0.24065576634E+02  0.26508806639E+02  0.51100000000E-03 0.  1.
        -11    1    3    3    0    0 -0.91477085401E+01  0.76958069056E+01 -0.12567852215E+02  0.17345227731E+02  0.51100000000E-03 0. -1.
        -12    1    3    3    0    0  0.26269972537E+01  0.73626583799E+00 -0.28332303825E+01  0.39332424735E+01  0.00000000000E+00 0.  1.
</event>
<event>
 7    1  0.2318319E-009  0.4778727E+02  0.7816164E-02  0.1312668E+00
        -11   -1    0    0    0    0  0.00000000000E+00  0.00000000000E+00  0.45593999997E+02  0.45594000000E+02  0.51100000000E-03 0.  1.
         11   -1    0    0    0    0 -0.00000000000E+00 -0.00000000000E+00 -0.45593999997E+02  0.45594000000E+02  0.51100000000E-03 0. -1.
    9900012    2    1    2    0    0 -0.21011890196E+02  0.16429377935E+02  0.34237402938E+02  0.47787265572E+02  0.19999975051E+02 0.  0.
         12    1    1    2    0    0  0.21011890196E+02 -0.16429377935E+02 -0.34237402938E+02  0.43400734428E+02  0.00000000000E+00 0. -1.
         11    1    3    3    0    0 -0.10902617826E+01 -0.12116567966E+00 -0.13199103089E+01  0.17162503783E+01  0.51100000000E-03 0. -1.
        -11    1    3    3    0    0  0.18314854808E+01 -0.35977737139E-01  0.33172600888E+01  0.37894390379E+01  0.51100000000E-03 0.  1.
         12    1    3    3    0    0 -0.21753113894E+02  0.16586521352E+02  0.32240053158E+02  0.42281576156E+02  0.00000000000E+00 0. -1.
</event>
<event>
 7    1  0.2318319E-009  0.4778727E+02  0.7816164E-02  0.1312668E+00
        -11   -1    0    0    0    0  0.00000000000E+00  0.00000000000E+00  0.45593999997E+02  0.45594000000E+02  0.51100000000E-03 0.  1.
         11   -1    0    0    0    0 -0.00000000000E+00 -0.00000000000E+00 -0.45593999997E+02  0.45594000000E+02  0.51100000000E-03 0. -1.
    9900012    2    1    2    0    0 -0.22265060762E+02  0.19815890243E+01  0.37201661944E+02  0.47787271006E+02  0.19999999826E+02 0.  0.
         12    1    1    2    0    0  0.22265060762E+02 -0.19815890243E+01 -0.37201661944E+02  0.43400728994E+02  0.00000000000E+00 0. -1.
         11    1    3    3    0    0 -0.90768776952E+01 -0.36930365202E+00  0.28655257874E+02  0.30060770083E+02  0.51100000000E-03 0. -1.
        -11    1    3    3    0    0 -0.50701009495E+01  0.92797504016E+00  0.79348891742E+01  0.94620044273E+01  0.51100000000E-03 0.  1.
         12    1    3    3    0    0 -0.81180821174E+01  0.14229176361E+01  0.61151489517E+00  0.82644964959E+01  0.00000000000E+00 0. -1.
</event>
<event>
 7    1  0.2318319E-009  0.4778727E+02  0.7816164E-02  0.1312668E+00
        -11   -1    0    0    0    0  0.00000000000E+00  0.00000000000E+00  0.45593999997E+02  0.45594000000E+02  0.51100000000E-03 0.  1.
         11   -1    0    0    0    0 -0.00000000000E+00 -0.00000000000E+00 -0.45593999997E+02  0.45594000000E+02  0.51100000000E-03 0. -1.
    9900012    2    1    2    0    0 -0.15332553622E+02 -0.26315494484E+02  0.30919750101E+02  0.47787269628E+02  0.19999993543E+02 0.  0.
         12    1    1    2    0    0  0.15332553622E+02  0.26315494484E+02 -0.30919750101E+02  0.43400730372E+02  0.00000000000E+00 0. -1.
         11    1    3    3    0    0 -0.26576407002E+01 -0.58494421514E+00  0.39316935928E+01  0.47815717704E+01  0.51100000000E-03 0. -1.
        -11    1    3    3    0    0 -0.57309673066E+01 -0.18072125318E+02  0.64737814414E+01  0.20033859992E+02  0.51100000000E-03 0.  1.
        -12    1    3    3    0    0 -0.69439456154E+01 -0.76584249515E+01  0.20514275066E+02  0.22971837866E+02  0.00000000000E+00 0.  1.
</event>
<event>
 7    1  0.2318319E-009  0.4778725E+02  0.7816164E-02  0.1312668E+00
        -11   -1    0    0    0    0  0.00000000000E+00  0.00000000000E+00  0.45593999997E+02  0.45594000000E+02  0.51100000000E-03 0.  1.
         11   -1    0    0    0    0 -0.00000000000E+00 -0.00000000000E+00 -0.45593999997E+02  0.45594000000E+02  0.51100000000E-03 0. -1.
    9900012    2    1    2    0    0  0.18946357242E+02 -0.20049407231E+02  0.33506445017E+02  0.47787250689E+02  0.19999907191E+02 0.  0.
         12    1    1    2    0    0 -0.18946357242E+02  0.20049407231E+02 -0.33506445017E+02  0.43400749311E+02  0.00000000000E+00 0. -1.
         11    1    3    3    0    0 -0.59804381838E+00  0.23476692184E+00  0.56101340195E+01  0.56468022715E+01  0.51100000000E-03 0. -1.
        -11    1    3    3    0    0 -0.15792025186E+01 -0.13141820484E+01  0.58326576994E+01  0.61839187535E+01  0.51100000000E-03 0.  1.
        -12    1    3    3    0    0  0.21123603579E+02 -0.18969992104E+02  0.22063653298E+02  0.35956529664E+02  0.00000000000E+00 0.  1.
</event>
<event>
 7    1  0.2318319E-009  0.4778727E+02  0.7816164E-02  0.1312668E+00
        -11   -1    0    0    0    0  0.00000000000E+00  0.00000000000E+00  0.45593999997E+02  0.45594000000E+02  0.51100000000E-03 0. -1.
         11   -1    0    0    0    0 -0.00000000000E+00 -0.00000000000E+00 -0.45593999997E+02  0.45594000000E+02  0.51100000000E-03 0.  1.
    9900012    2    1    2    0    0 -0.88984703205E+01  0.21081389481E+02 -0.36878389300E+02  0.47787270123E+02  0.19999995798E+02 0.  0.
         12    1    1    2    0    0  0.88984703205E+01 -0.21081389481E+02  0.36878389300E+02  0.43400729877E+02  0.00000000000E+00 0. -1.
         11    1    3    3    0    0 -0.71825989524E+01  0.12616127023E+02 -0.15044283713E+02  0.20906622431E+02  0.51100000000E-03 0.  1.
        -11    1    3    3    0    0 -0.11176481556E+01 -0.14074324142E+01  0.95681515039E+00  0.20360498259E+01  0.51100000000E-03 0. -1.
         12    1    3    3    0    0 -0.59822321246E+00  0.98726948727E+01 -0.22790920738E+02  0.24844597866E+02  0.00000000000E+00 0. -1.
</event>
<event>
 7    1  0.2318319E-009  0.4778724E+02  0.7816164E-02  0.1312668E+00
        -11   -1    0    0    0    0  0.00000000000E+00  0.00000000000E+00  0.45593999997E+02  0.45594000000E+02  0.51100000000E-03 0.  1.
         11   -1    0    0    0    0 -0.00000000000E+00 -0.00000000000E+00 -0.45593999997E+02  0.45594000000E+02  0.51100000000E-03 0. -1.
    9900012    2    1    2    0    0  0.40831018569E+00  0.27380863019E+02  0.33671164965E+02  0.47787242784E+02  0.19999871148E+02 0.  0.
         12    1    1    2    0    0 -0.40831018569E+00 -0.27380863019E+02 -0.33671164965E+02  0.43400757216E+02  0.00000000000E+00 0. -1.
         11    1    3    3    0    0  0.69461861496E+01  0.24869398982E+01  0.72528631086E+01  0.10345936188E+02  0.51100000000E-03 0. -1.
        -11    1    3    3    0    0 -0.34076607629E+01  0.37643393243E+01  0.38897920879E+01  0.63963180949E+01  0.51100000000E-03 0.  1.
         12    1    3    3    0    0 -0.31302152010E+01  0.21129583796E+02  0.22528509768E+02  0.31044988500E+02  0.00000000000E+00 0. -1.
</event>
<event>
 7    1  0.2318319E-009  0.4778729E+02  0.7816164E-02  0.1312668E+00
        -11   -1    0    0    0    0  0.00000000000E+00  0.00000000000E+00  0.45593999997E+02  0.45594000000E+02  0.51100000000E-03 0.  1.
         11   -1    0    0    0    0 -0.00000000000E+00 -0.00000000000E+00 -0.45593999997E+02  0.45594000000E+02  0.51100000000E-03 0. -1.
    9900012    2    1    2    0    0  0.72066795973E+01 -0.21996338245E+02  0.36713026368E+02  0.47787292263E+02  0.20000096742E+02 0.  0.
         12    1    1    2    0    0 -0.72066795973E+01  0.21996338245E+02 -0.36713026368E+02  0.43400707737E+02  0.00000000000E+00 0. -1.
         11    1    3    3    0    0  0.10628793496E+02 -0.29165905937E+01  0.13162120619E+02  0.17167386852E+02  0.51100000000E-03 0. -1.
        -11    1    3    3    0    0 -0.23021509767E+01 -0.57818791813E+01  0.75804467552E+01  0.98078131740E+01  0.51100000000E-03 0.  1.
         12    1    3    3    0    0 -0.11199629222E+01 -0.13297868470E+02  0.15970458994E+02  0.20812092236E+02  0.00000000000E+00 0. -1.
</event>
<event>
 7    1  0.2318319E-009  0.4778727E+02  0.7816164E-02  0.1312668E+00
        -11   -1    0    0    0    0  0.00000000000E+00  0.00000000000E+00  0.45593999997E+02  0.45594000000E+02  0.51100000000E-03 0.  1.
         11   -1    0    0    0    0 -0.00000000000E+00 -0.00000000000E+00 -0.45593999997E+02  0.45594000000E+02  0.51100000000E-03 0. -1.
    9900012    2    1    2    0    0  0.15681149992E+01 -0.36390685266E+02  0.23598351545E+02  0.47787272420E+02  0.20000006273E+02 0.  0.
         12    1    1    2    0    0 -0.15681149992E+01  0.36390685266E+02 -0.23598351545E+02  0.43400727580E+02  0.00000000000E+00 0. -1.
         11    1    3    3    0    0 -0.95363720179E+00 -0.87889266140E+01  0.13297081137E+02  0.15967686807E+02  0.51100000000E-03 0. -1.
        -11    1    3    3    0    0 -0.43372328570E+01 -0.58273493771E+01  0.20956904045E+01  0.75605230078E+01  0.51100000000E-03 0.  1.
        -12    1    3    3    0    0  0.68589850580E+01 -0.21774409275E+02  0.82055800034E+01  0.24259062605E+02  0.00000000000E+00 0.  1.
</event>
<event>
 7    1  0.2318319E-009  0.4778726E+02  0.7816164E-02  0.1312668E+00
        -11   -1    0    0    0    0  0.00000000000E+00  0.00000000000E+00  0.45593999997E+02  0.45594000000E+02  0.51100000000E-03 0. -1.
         11   -1    0    0    0    0 -0.00000000000E+00 -0.00000000000E+00 -0.45593999997E+02  0.45594000000E+02  0.51100000000E-03 0.  1.
    9900012    2    1    2    0    0  0.41980505467E+02  0.34958999416E+01  0.10442209362E+02  0.47787263923E+02  0.19999967528E+02 0.  0.
         12    1    1    2    0    0 -0.41980505467E+02 -0.34958999416E+01 -0.10442209362E+02  0.43400736077E+02  0.00000000000E+00 0. -1.
         11    1    3    3    0    0  0.34346550349E+01  0.41054711411E+01  0.44557705220E+01  0.69645990341E+01  0.51100000000E-03 0. -1.
        -11    1    3    3    0    0  0.11857140260E+02  0.35107490012E+01  0.61642107311E+01  0.13817185961E+02  0.51100000000E-03 0.  1.
        -12    1    3    3    0    0  0.26688710173E+02 -0.41203202006E+01 -0.17777189132E+00  0.27005478928E+02  0.00000000000E+00 0.  1.
</event>
<event>
 7    1  0.2318319E-009  0.4778726E+02  0.7816164E-02  0.1312668E+00
        -11   -1    0    0    0    0  0.00000000000E+00  0.00000000000E+00  0.45593999997E+02  0.45594000000E+02  0.51100000000E-03 0.  1.
         11   -1    0    0    0    0 -0.00000000000E+00 -0.00000000000E+00 -0.45593999997E+02  0.45594000000E+02  0.51100000000E-03 0. -1.
    9900012    2    1    2    0    0  0.24664669383E+02  0.59821112387E+01  0.35206433658E+02  0.47787256440E+02  0.19999933412E+02 0.  0.
         12    1    1    2    0    0 -0.24664669383E+02 -0.59821112387E+01 -0.35206433658E+02  0.43400743560E+02  0.00000000000E+00 0. -1.
         11    1    3    3    0    0  0.30073289206E+01 -0.20622165823E+00 -0.15157182684E+01  0.33740119649E+01  0.51100000000E-03 0. -1.
        -11    1    3    3    0    0  0.38828759222E+01  0.58185494305E+01  0.79280118093E+01  0.10572871626E+02  0.51100000000E-03 0.  1.
         12    1    3    3    0    0  0.17774464540E+02  0.36978346648E+00  0.28794140117E+02  0.33840372849E+02  0.00000000000E+00 0. -1.
</event>
<event>
 7    1  0.2318319E-009  0.4778727E+02  0.7816164E-02  0.1312668E+00
        -11   -1    0    0    0    0  0.00000000000E+00  0.00000000000E+00  0.45593999997E+02  0.45594000000E+02  0.51100000000E-03 0. -1.
         11   -1    0    0    0    0 -0.00000000000E+00 -0.00000000000E+00 -0.45593999997E+02  0.45594000000E+02  0.51100000000E-03 0.  1.
    9900012    2    1    2    0    0  0.95047692852E+01  0.40719807387E+02  0.11626707552E+02  0.47787266350E+02  0.19999978598E+02 0.  0.
         12    1    1    2    0    0 -0.95047692852E+01 -0.40719807387E+02 -0.11626707552E+02  0.43400733650E+02  0.00000000000E+00 0. -1.
         11    1    3    3    0    0  0.37911609868E+01  0.46320078812E+01  0.28817083292E+01  0.66432403084E+01  0.51100000000E-03 0. -1.
        -11    1    3    3    0    0  0.11464391066E+02  0.21037764024E+02  0.68683537519E+01  0.24923764988E+02  0.51100000000E-03 0.  1.
         12    1    3    3    0    0 -0.57507827675E+01  0.15050035482E+02  0.18766454711E+01  0.16220261054E+02  0.00000000000E+00 0. -1.
</event>
<event>
 7    1  0.2318319E-009  0.4778726E+02  0.7816164E-02  0.1312668E+00
        -11   -1    0    0    0    0  0.00000000000E+00  0.00000000000E+00  0.45593999997E+02  0.45594000000E+02  0.51100000000E-03 0.  1.
         11   -1    0    0    0    0 -0.00000000000E+00 -0.00000000000E+00 -0.45593999997E+02  0.45594000000E+02  0.51100000000E-03 0. -1.
    9900012    2    1    2    0    0 -0.33798294770E+02  0.27151845276E+02  0.20190307828E+01  0.47787263641E+02  0.19999966243E+02 0.  0.
         12    1    1    2    0    0  0.33798294770E+02 -0.27151845276E+02 -0.20190307828E+01  0.43400736359E+02  0.00000000000E+00 0. -1.
         11    1    3    3    0    0 -0.16990995987E+02  0.51621719038E+01  0.15765978145E+01  0.17827720671E+02  0.51100000000E-03 0. -1.
        -11    1    3    3    0    0 -0.16701360909E+02  0.16512220708E+02  0.34047814414E+01  0.23731443822E+02  0.51100000000E-03 0.  1.
        -12    1    3    3    0    0 -0.10593787331E+00  0.54774526640E+01 -0.29623484731E+01  0.62280991479E+01  0.00000000000E+00 0.  1.
</event>
<event>
 7    1  0.2318319E-009  0.4778727E+02  0.7816164E-02  0.1312668E+00
        -11   -1    0    0    0    0  0.00000000000E+00  0.00000000000E+00  0.45593999997E+02  0.45594000000E+02  0.51100000000E-03 0. -1.
         11   -1    0    0    0    0 -0.00000000000E+00 -0.00000000000E+00 -0.45593999997E+02  0.45594000000E+02  0.51100000000E-03 0.  1.
    9900012    2    1    2    0    0 -0.37172468400E+02  0.16203550252E+02 -0.15468543116E+02  0.47787271044E+02  0.19999999999E+02 0.  0.
         12    1    1    2    0    0  0.37172468400E+02 -0.16203550252E+02  0.15468543116E+02  0.43400728956E+02  0.00000000000E+00 0. -1.
         11    1    3    3    0    0 -0.11596819433E+01 -0.64345044275E+00 -0.17139216316E+01  0.21671221245E+01  0.51100000000E-03 0. -1.
        -11    1    3    3    0    0 -0.15138912768E+02 -0.21278735981E+01 -0.49004440885E+01  0.16053936538E+02  0.51100000000E-03 0.  1.
         12    1    3    3    0    0 -0.20873873689E+02  0.18974874293E+02 -0.88541773958E+01  0.29566212381E+02  0.00000000000E+00 0. -1.
</event>
<event>
 7    1  0.2318319E-009  0.4778727E+02  0.7816164E-02  0.1312668E+00
        -11   -1    0    0    0    0  0.00000000000E+00  0.00000000000E+00  0.45593999997E+02  0.45594000000E+02  0.51100000000E-03 0.  1.
         11   -1    0    0    0    0 -0.00000000000E+00 -0.00000000000E+00 -0.45593999997E+02  0.45594000000E+02  0.51100000000E-03 0. -1.
    9900012    2    1    2    0    0  0.38712398768E+02 -0.13081334629E+02  0.14623684289E+02  0.47787271017E+02  0.19999999877E+02 0.  0.
         12    1    1    2    0    0 -0.38712398768E+02  0.13081334629E+02 -0.14623684289E+02  0.43400728983E+02  0.00000000000E+00 0. -1.
         11    1    3    3    0    0  0.16502018221E+01  0.11550890006E+01  0.39955896650E+01  0.44746098919E+01  0.51100000000E-03 0. -1.
        -11    1    3    3    0    0  0.16364604923E+02 -0.22083147003E+01  0.10122399930E+02  0.19368529338E+02  0.51100000000E-03 0.  1.
        -12    1    3    3    0    0  0.20697592022E+02 -0.12028108929E+02  0.50569469439E+00  0.23944131788E+02  0.00000000000E+00 0.  1.
</event>
<event>
 7    1  0.2318319E-009  0.4778728E+02  0.7816164E-02  0.1312668E+00
        -11   -1    0    0    0    0  0.00000000000E+00  0.00000000000E+00  0.45593999997E+02  0.45594000000E+02  0.51100000000E-03 0.  1.
         11   -1    0    0    0    0 -0.00000000000E+00 -0.00000000000E+00 -0.45593999997E+02  0.45594000000E+02  0.51100000000E-03 0. -1.
    9900012    2    1    2    0    0 -0.16617005869E+02  0.40036835338E+02  0.21330115636E+01  0.47787276432E+02  0.20000024562E+02 0.  0.
         12    1    1    2    0    0  0.16617005869E+02 -0.40036835338E+02 -0.21330115636E+01  0.43400723568E+02  0.00000000000E+00 0. -1.
         11    1    3    3    0    0 -0.20355332154E+01  0.27563012398E+01 -0.30342163811E+01  0.45767959648E+01  0.51100000000E-03 0. -1.
        -11    1    3    3    0    0 -0.23042106423E+01  0.17911621174E+02 -0.40287654205E+01  0.18503148674E+02  0.51100000000E-03 0.  1.
        -12    1    3    3    0    0 -0.12277262012E+02  0.19368912924E+02  0.91959933652E+01  0.24707331793E+02  0.00000000000E+00 0.  1.
</event>
<event>
 7    1  0.2318319E-009  0.4778727E+02  0.7816164E-02  0.1312668E+00
        -11   -1    0    0    0    0  0.00000000000E+00  0.00000000000E+00  0.45593999997E+02  0.45594000000E+02  0.51100000000E-03 0.  1.
         11   -1    0    0    0    0 -0.00000000000E+00 -0.00000000000E+00 -0.45593999997E+02  0.45594000000E+02  0.51100000000E-03 0. -1.
    9900012    2    1    2    0    0 -0.80868158985E+00 -0.39921234293E+02  0.17007781635E+02  0.47787267868E+02  0.19999985519E+02 0.  0.
         12    1    1    2    0    0  0.80868158985E+00  0.39921234293E+02 -0.17007781635E+02  0.43400732132E+02  0.00000000000E+00 0. -1.
         11    1    3    3    0    0  0.21793649013E+01 -0.20416246058E+01  0.50986175332E+01  0.59087869664E+01  0.51100000000E-03 0. -1.
        -11    1    3    3    0    0 -0.23379085606E+01 -0.12892281061E+02  0.10591404349E+02  0.16847984264E+02  0.51100000000E-03 0.  1.
         12    1    3    3    0    0 -0.65013793052E+00 -0.24987328626E+02  0.13177597532E+01  0.25030496638E+02  0.00000000000E+00 0. -1.
</event>
<event>
 7    1  0.2318319E-009  0.4778726E+02  0.7816164E-02  0.1312668E+00
        -11   -1    0    0    0    0  0.00000000000E+00  0.00000000000E+00  0.45593999997E+02  0.45594000000E+02  0.51100000000E-03 0.  1.
         11   -1    0    0    0    0 -0.00000000000E+00 -0.00000000000E+00 -0.45593999997E+02  0.45594000000E+02  0.51100000000E-03 0. -1.
    9900012    2    1    2    0    0 -0.22753260158E+02 -0.24236504586E+02  0.27901705405E+02  0.47787260756E+02  0.19999953092E+02 0.  0.
         12    1    1    2    0    0  0.22753260158E+02  0.24236504586E+02 -0.27901705405E+02  0.43400739244E+02  0.00000000000E+00 0. -1.
         11    1    3    3    0    0 -0.15169635999E+02 -0.15326161199E+02  0.18304297316E+02  0.28285267790E+02  0.51100000000E-03 0. -1.
        -11    1    3    3    0    0 -0.88486674274E+00 -0.91112530120E+01  0.88942301951E+01  0.12763434163E+02  0.51100000000E-03 0.  1.
         12    1    3    3    0    0 -0.66987574162E+01  0.20090962495E+00  0.70317789428E+00  0.67385588036E+01  0.00000000000E+00 0. -1.
</event>
<event>
 7    1  0.2318319E-009  0.4778727E+02  0.7816164E-02  0.1312668E+00
        -11   -1    0    0    0    0  0.00000000000E+00  0.00000000000E+00  0.45593999997E+02  0.45594000000E+02  0.51100000000E-03 0.  1.
         11   -1    0    0    0    0 -0.00000000000E+00 -0.00000000000E+00 -0.45593999997E+02  0.45594000000E+02  0.51100000000E-03 0. -1.
    9900012    2    1    2    0    0 -0.41621492878E+02 -0.12124001434E+02  0.20696418616E+01  0.47787268467E+02  0.19999988249E+02 0.  0.
         12    1    1    2    0    0  0.41621492878E+02  0.12124001434E+02 -0.20696418616E+01  0.43400731533E+02  0.00000000000E+00 0. -1.
         11    1    3    3    0    0  0.46589886296E+00  0.13381773010E+01  0.20589429246E+00  0.14318425054E+01  0.51100000000E-03 0. -1.
        -11    1    3    3    0    0 -0.12026313541E+02 -0.36190509471E+00  0.57486589394E+01  0.13334551832E+02  0.51100000000E-03 0.  1.
         12    1    3    3    0    0 -0.30061078200E+02 -0.13100273640E+02 -0.38849113702E+01  0.33020874130E+02  0.00000000000E+00 0. -1.
</event>
<event>
 7    1  0.2318319E-009  0.4778727E+02  0.7816164E-02  0.1312668E+00
        -11   -1    0    0    0    0  0.00000000000E+00  0.00000000000E+00  0.45593999997E+02  0.45594000000E+02  0.51100000000E-03 0. -1.
         11   -1    0    0    0    0 -0.00000000000E+00 -0.00000000000E+00 -0.45593999997E+02  0.45594000000E+02  0.51100000000E-03 0.  1.
    9900012    2    1    2    0    0  0.75084020791E+01  0.42745178830E+02  0.31129739453E+00  0.47787270501E+02  0.19999997520E+02 0.  0.
         12    1    1    2    0    0 -0.75084020791E+01 -0.42745178830E+02 -0.31129739453E+00  0.43400729499E+02  0.00000000000E+00 0. -1.
         11    1    3    3    0    0  0.78801301040E+01  0.17308447395E+02  0.74095466811E+01  0.20410296028E+02  0.51100000000E-03 0. -1.
        -11    1    3    3    0    0  0.15865018616E+01  0.15092504041E+02 -0.99588197571E+00  0.15208301929E+02  0.51100000000E-03 0.  1.
        -12    1    3    3    0    0 -0.19582298865E+01  0.10344227394E+02 -0.61023673109E+01  0.12168672543E+02  0.00000000000E+00 0.  1.
</event>
<event>
 7    1  0.2318319E-009  0.4778729E+02  0.7816164E-02  0.1312668E+00
        -11   -1    0    0    0    0  0.00000000000E+00  0.00000000000E+00  0.45593999997E+02  0.45594000000E+02  0.51100000000E-03 0.  1.
         11   -1    0    0    0    0 -0.00000000000E+00 -0.00000000000E+00 -0.45593999997E+02  0.45594000000E+02  0.51100000000E-03 0. -1.
    9900012    2    1    2    0    0 -0.50658013876E+01 -0.22536993997E+02  0.36742938479E+02  0.47787286064E+02  0.20000068478E+02 0.  0.
         12    1    1    2    0    0  0.50658013876E+01  0.22536993997E+02 -0.36742938479E+02  0.43400713936E+02  0.00000000000E+00 0. -1.
         11    1    3    3    0    0  0.40037000369E+01 -0.26841093563E+01  0.61308239538E+01  0.77987857796E+01  0.51100000000E-03 0. -1.
        -11    1    3    3    0    0 -0.28983643963E+01  0.26070693812E+00  0.10452541278E+02  0.10850073904E+02  0.51100000000E-03 0.  1.
         12    1    3    3    0    0 -0.61711370282E+01 -0.20113591579E+02  0.20159573247E+02  0.29138426380E+02  0.00000000000E+00 0. -1.
</event>
<event>
 7    1  0.2318319E-009  0.4778730E+02  0.7816164E-02  0.1312668E+00
        -11   -1    0    0    0    0  0.00000000000E+00  0.00000000000E+00  0.45593999997E+02  0.45594000000E+02  0.51100000000E-03 0.  1.
         11   -1    0    0    0    0 -0.00000000000E+00 -0.00000000000E+00 -0.45593999997E+02  0.45594000000E+02  0.51100000000E-03 0. -1.
    9900012    2    1    2    0    0  0.27986049715E+01  0.38394617063E+02  0.20040997207E+02  0.47787304403E+02  0.20000152095E+02 0.  0.
         12    1    1    2    0    0 -0.27986049715E+01 -0.38394617063E+02 -0.20040997207E+02  0.43400695597E+02  0.00000000000E+00 0. -1.
         11    1    3    3    0    0  0.73345268801E+00  0.83119453655E+01 -0.13637451131E+01  0.84549505971E+01  0.51100000000E-03 0. -1.
        -11    1    3    3    0    0  0.68743108388E+01  0.20894501485E+02  0.10818398252E+02  0.24512733075E+02  0.51100000000E-03 0.  1.
         12    1    3    3    0    0 -0.48091585553E+01  0.91881702128E+01  0.10586344068E+02  0.14819620731E+02  0.00000000000E+00 0. -1.
</event>
<event>
 7    1  0.2318319E-009  0.4778727E+02  0.7816164E-02  0.1312668E+00
        -11   -1    0    0    0    0  0.00000000000E+00  0.00000000000E+00  0.45593999997E+02  0.45594000000E+02  0.51100000000E-03 0.  1.
         11   -1    0    0    0    0 -0.00000000000E+00 -0.00000000000E+00 -0.45593999997E+02  0.45594000000E+02  0.51100000000E-03 0. -1.
    9900012    2    1    2    0    0  0.13764327365E+02 -0.37159929648E+02  0.17700460107E+02  0.47787269969E+02  0.19999995095E+02 0.  0.
         12    1    1    2    0    0 -0.13764327365E+02  0.37159929648E+02 -0.17700460107E+02  0.43400730031E+02  0.00000000000E+00 0. -1.
         11    1    3    3    0    0  0.82850339628E+01 -0.22189185420E+02  0.91816569208E+01  0.25402845538E+02  0.51100000000E-03 0. -1.
        -11    1    3    3    0    0 -0.20424999391E+01 -0.12514352336E+02  0.63432504072E+01  0.14178069205E+02  0.51100000000E-03 0.  1.
         12    1    3    3    0    0  0.75217933413E+01 -0.24563918926E+01  0.21755527788E+01  0.82063552258E+01  0.00000000000E+00 0. -1.
</event>
<event>
 7    1  0.2318319E-009  0.4778727E+02  0.7816164E-02  0.1312668E+00
        -11   -1    0    0    0    0  0.00000000000E+00  0.00000000000E+00  0.45593999997E+02  0.45594000000E+02  0.51100000000E-03 0.  1.
         11   -1    0    0    0    0 -0.00000000000E+00 -0.00000000000E+00 -0.45593999997E+02  0.45594000000E+02  0.51100000000E-03 0. -1.
    9900012    2    1    2    0    0 -0.16666602936E+02  0.40070065381E+02  0.48748334026E+00  0.47787269210E+02  0.19999991638E+02 0.  0.
         12    1    1    2    0    0  0.16666602936E+02 -0.40070065381E+02 -0.48748334026E+00  0.43400730790E+02  0.00000000000E+00 0. -1.
         11    1    3    3    0    0 -0.29209198009E+00  0.30105396593E+01  0.31085726231E+01  0.43372676629E+01  0.51100000000E-03 0. -1.
        -11    1    3    3    0    0 -0.13740908084E+02  0.28080105927E+02  0.46416865278E+01  0.31604590773E+02  0.51100000000E-03 0.  1.
        -12    1    3    3    0    0 -0.26336028716E+01  0.89794197945E+01 -0.72627758106E+01  0.11845410774E+02  0.00000000000E+00 0.  1.
</event>
<event>
 7    1  0.2318319E-009  0.4778727E+02  0.7816164E-02  0.1312668E+00
        -11   -1    0    0    0    0  0.00000000000E+00  0.00000000000E+00  0.45593999997E+02  0.45594000000E+02  0.51100000000E-03 0.  1.
         11   -1    0    0    0    0 -0.00000000000E+00 -0.00000000000E+00 -0.45593999997E+02  0.45594000000E+02  0.51100000000E-03 0. -1.
    9900012    2    1    2    0    0  0.41037175916E+01 -0.36973428116E+01  0.43047794394E+02  0.47787269083E+02  0.19999991056E+02 0.  0.
         12    1    1    2    0    0 -0.41037175916E+01  0.36973428116E+01 -0.43047794394E+02  0.43400730917E+02  0.00000000000E+00 0. -1.
         11    1    3    3    0    0  0.81532750687E+01  0.52823504801E+00  0.95327714799E+01  0.12555025247E+02  0.51100000000E-03 0. -1.
        -11    1    3    3    0    0  0.22158161682E+01 -0.31340199664E+01  0.19019942823E+02  0.19403354032E+02  0.51100000000E-03 0.  1.
         12    1    3    3    0    0 -0.62653736453E+01 -0.10915578931E+01  0.14495080092E+02  0.15828889804E+02  0.00000000000E+00 0. -1.
</event>
<event>
 7    1  0.2318319E-009  0.4778727E+02  0.7816164E-02  0.1312668E+00
        -11   -1    0    0    0    0  0.00000000000E+00  0.00000000000E+00  0.45593999997E+02  0.45594000000E+02  0.51100000000E-03 0.  1.
         11   -1    0    0    0    0 -0.00000000000E+00 -0.00000000000E+00 -0.45593999997E+02  0.45594000000E+02  0.51100000000E-03 0. -1.
    9900012    2    1    2    0    0 -0.31130968560E+02 -0.22611611026E+02  0.20079870295E+02  0.47787270194E+02  0.19999996123E+02 0.  0.
         12    1    1    2    0    0  0.31130968560E+02  0.22611611026E+02 -0.20079870295E+02  0.43400729806E+02  0.00000000000E+00 0. -1.
         11    1    3    3    0    0 -0.62900563580E+01 -0.74919501187E+01  0.16648678241E+01  0.99229990780E+01  0.51100000000E-03 0. -1.
        -11    1    3    3    0    0 -0.71670620303E+01 -0.10703133463E+02  0.14187830580E+02  0.19162942908E+02  0.51100000000E-03 0.  1.
         12    1    3    3    0    0 -0.17673850171E+02 -0.44165274444E+01  0.42271718900E+01  0.18701328208E+02  0.00000000000E+00 0. -1.
</event>
<event>
 7    1  0.2318319E-009  0.4778727E+02  0.7816164E-02  0.1312668E+00
        -11   -1    0    0    0    0  0.00000000000E+00  0.00000000000E+00  0.45593999997E+02  0.45594000000E+02  0.51100000000E-03 0.  1.
         11   -1    0    0    0    0 -0.00000000000E+00 -0.00000000000E+00 -0.45593999997E+02  0.45594000000E+02  0.51100000000E-03 0. -1.
    9900012    2    1    2    0    0  0.77853965666E+00  0.41658033918E+02  0.12150132556E+02  0.47787266883E+02  0.19999981028E+02 0.  0.
         12    1    1    2    0    0 -0.77853965666E+00 -0.41658033918E+02 -0.12150132556E+02  0.43400733117E+02  0.00000000000E+00 0. -1.
         11    1    3    3    0    0 -0.16838091657E+01  0.68608742678E-01  0.19698769993E+01  0.25923611090E+01  0.51100000000E-03 0. -1.
        -11    1    3    3    0    0  0.61227520930E+00  0.33357860570E+02  0.19685864389E+01  0.33421506183E+02  0.51100000000E-03 0.  1.
         12    1    3    3    0    0  0.18500736131E+01  0.82315646057E+01  0.82116691180E+01  0.11773399591E+02  0.00000000000E+00 0. -1.
</event>
<event>
 7    1  0.2318319E-009  0.4778726E+02  0.7816164E-02  0.1312668E+00
        -11   -1    0    0    0    0  0.00000000000E+00  0.00000000000E+00  0.45593999997E+02  0.45594000000E+02  0.51100000000E-03 0. -1.
         11   -1    0    0    0    0 -0.00000000000E+00 -0.00000000000E+00 -0.45593999997E+02  0.45594000000E+02  0.51100000000E-03 0.  1.
    9900012    2    1    2    0    0  0.35591747731E+02 -0.13683878314E+02  0.20726863723E+02  0.47787263692E+02  0.19999966477E+02 0.  0.
         12    1    1    2    0    0 -0.35591747731E+02  0.13683878314E+02 -0.20726863723E+02  0.43400736308E+02  0.00000000000E+00 0. -1.
         11    1    3    3    0    0  0.78816875180E+01 -0.55914967307E+01 -0.29617907232E+01  0.10107325975E+02  0.51100000000E-03 0. -1.
        -11    1    3    3    0    0  0.10457240792E+02 -0.37203733694E+01  0.61357740030E+01  0.12682380922E+02  0.51100000000E-03 0.  1.
         12    1    3    3    0    0  0.17252819422E+02 -0.43720082140E+01  0.17552880443E+02  0.24997556794E+02  0.00000000000E+00 0. -1.
</event>
<event>
 7    1  0.2318319E-009  0.4778727E+02  0.7816164E-02  0.1312668E+00
        -11   -1    0    0    0    0  0.00000000000E+00  0.00000000000E+00  0.45593999997E+02  0.45594000000E+02  0.51100000000E-03 0. -1.
         11   -1    0    0    0    0 -0.00000000000E+00 -0.00000000000E+00 -0.45593999997E+02  0.45594000000E+02  0.51100000000E-03 0.  1.
    9900012    2    1    2    0    0  0.13594966178E+02  0.36753954616E+02  0.18653341902E+02  0.47787269023E+02  0.19999990782E+02 0.  0.
         12    1    1    2    0    0 -0.13594966178E+02 -0.36753954616E+02 -0.18653341902E+02  0.43400730977E+02  0.00000000000E+00 0. -1.
         11    1    3    3    0    0  0.13684258844E+00  0.36403453053E+01  0.45736199302E+01  0.58471223147E+01  0.51100000000E-03 0. -1.
        -11    1    3    3    0    0 -0.17542599103E+01  0.17523641343E+02  0.78730653250E+01  0.19290945845E+02  0.51100000000E-03 0.  1.
         12    1    3    3    0    0  0.15212383500E+02  0.15589967968E+02  0.62066566463E+01  0.22649200863E+02  0.00000000000E+00 0. -1.
</event>
<event>
 7    1  0.2318319E-009  0.4778727E+02  0.7816164E-02  0.1312668E+00
        -11   -1    0    0    0    0  0.00000000000E+00  0.00000000000E+00  0.45593999997E+02  0.45594000000E+02  0.51100000000E-03 0.  1.
         11   -1    0    0    0    0 -0.00000000000E+00 -0.00000000000E+00 -0.45593999997E+02  0.45594000000E+02  0.51100000000E-03 0. -1.
    9900012    2    1    2    0    0 -0.41256820799E+02  0.12341716308E+02  0.54018402947E+01  0.47787273019E+02  0.20000009005E+02 0.  0.
         12    1    1    2    0    0  0.41256820799E+02 -0.12341716308E+02 -0.54018402947E+01  0.43400726981E+02  0.00000000000E+00 0. -1.
         11    1    3    3    0    0 -0.94981343768E+01  0.58649480101E+01  0.39164768363E+01  0.11830087188E+02  0.51100000000E-03 0. -1.
        -11    1    3    3    0    0 -0.19475828803E+02  0.11530230684E+02  0.49358092508E+00  0.22638413141E+02  0.51100000000E-03 0.  1.
        -12    1    3    3    0    0 -0.12282857620E+02 -0.50534623854E+01  0.99178253337E+00  0.13318772690E+02  0.00000000000E+00 0.  1.
</event>
<event>
 7    1  0.2318319E-009  0.4778722E+02  0.7816164E-02  0.1312668E+00
        -11   -1    0    0    0    0  0.00000000000E+00  0.00000000000E+00  0.45593999997E+02  0.45594000000E+02  0.51100000000E-03 0.  1.
         11   -1    0    0    0    0 -0.00000000000E+00 -0.00000000000E+00 -0.45593999997E+02  0.45594000000E+02  0.51100000000E-03 0. -1.
    9900012    2    1    2    0    0  0.12574949904E+02  0.41409322816E+02 -0.32812154693E+01  0.47787219406E+02  0.19999764560E+02 0.  0.
         12    1    1    2    0    0 -0.12574949904E+02 -0.41409322816E+02  0.32812154693E+01  0.43400780594E+02  0.00000000000E+00 0. -1.
         11    1    3    3    0    0  0.69472342610E+01  0.23076113182E+02  0.43569305442E+01  0.24489873570E+02  0.51100000000E-03 0. -1.
        -11    1    3    3    0    0  0.18355218255E+01  0.57048714112E+01  0.26699913240E+01  0.65607585020E+01  0.51100000000E-03 0.  1.
         12    1    3    3    0    0  0.37921938170E+01  0.12628338223E+02 -0.10308137337E+02  0.16736587334E+02  0.00000000000E+00 0. -1.
</event>
<event>
 7    1  0.2318319E-009  0.4778728E+02  0.7816164E-02  0.1312668E+00
        -11   -1    0    0    0    0  0.00000000000E+00  0.00000000000E+00  0.45593999997E+02  0.45594000000E+02  0.51100000000E-03 0. -1.
         11   -1    0    0    0    0 -0.00000000000E+00 -0.00000000000E+00 -0.45593999997E+02  0.45594000000E+02  0.51100000000E-03 0.  1.
    9900012    2    1    2    0    0  0.29618715545E+02  0.22004208953E+02  0.22851017744E+02  0.47787279567E+02  0.20000038857E+02 0.  0.
         12    1    1    2    0    0 -0.29618715545E+02 -0.22004208953E+02 -0.22851017744E+02  0.43400720433E+02  0.00000000000E+00 0. -1.
         11    1    3    3    0    0  0.63845621839E+00 -0.30653028577E+01  0.34910133948E+01  0.46894437555E+01  0.51100000000E-03 0. -1.
        -11    1    3    3    0    0  0.73755731206E+01  0.69548676954E+01  0.33579433851E+01  0.10679187589E+02  0.51100000000E-03 0.  1.
         12    1    3    3    0    0  0.21604686206E+02  0.18114644115E+02  0.16002060964E+02  0.32418648223E+02  0.00000000000E+00 0. -1.
</event>
<event>
 7    1  0.2320355E-009  0.4778727E+02  0.7816164E-02  0.1312668E+00
        -11   -1    0    0    0    0  0.00000000000E+00  0.00000000000E+00  0.45593999997E+02  0.45594000000E+02  0.51100000000E-03 0.  1.
         11   -1    0    0    0    0 -0.00000000000E+00 -0.00000000000E+00 -0.45593999997E+02  0.45594000000E+02  0.51100000000E-03 0. -1.
    9900012    2    1    2    0    0 -0.20004096897E+02 -0.33305197958E+02 -0.19344849119E+02  0.47787270846E+02  0.19999999094E+02 0.  0.
         12    1    1    2    0    0  0.20004096897E+02  0.33305197958E+02  0.19344849119E+02  0.43400729154E+02  0.00000000000E+00 0. -1.
         11    1    3    3    0    0  0.21552750650E+00 -0.50118424852E+01  0.23058773002E+01  0.55210585567E+01  0.51100000000E-03 0. -1.
        -11    1    3    3    0    0 -0.23494150442E+01 -0.52159120783E+01 -0.85169582868E+01  0.10259827902E+02  0.51100000000E-03 0.  1.
        -12    1    3    3    0    0 -0.17870209359E+02 -0.23077443395E+02 -0.13133768133E+02  0.32006384387E+02  0.00000000000E+00 0.  1.
</event>
<event>
 7    1  0.2318319E-009  0.4778727E+02  0.7816164E-02  0.1312668E+00
        -11   -1    0    0    0    0  0.00000000000E+00  0.00000000000E+00  0.45593999997E+02  0.45594000000E+02  0.51100000000E-03 0.  1.
         11   -1    0    0    0    0 -0.00000000000E+00 -0.00000000000E+00 -0.45593999997E+02  0.45594000000E+02  0.51100000000E-03 0. -1.
    9900012    2    1    2    0    0  0.16597765157E+02 -0.81811957465E+01  0.39258189389E+02  0.47787271825E+02  0.20000003559E+02 0.  0.
         12    1    1    2    0    0 -0.16597765157E+02  0.81811957465E+01 -0.39258189389E+02  0.43400728175E+02  0.00000000000E+00 0. -1.
         11    1    3    3    0    0 -0.12294428124E+01 -0.24369255545E+01  0.81539393312E+01  0.85986547009E+01  0.51100000000E-03 0. -1.
        -11    1    3    3    0    0  0.11848524517E+02 -0.10551910190E+02  0.17917777045E+02  0.23932761570E+02  0.51100000000E-03 0.  1.
        -12    1    3    3    0    0  0.59786834529E+01  0.48076399978E+01  0.13186473012E+02  0.15255855554E+02  0.00000000000E+00 0.  1.
</event>
<event>
 7    1  0.2318319E-009  0.4778727E+02  0.7816164E-02  0.1312668E+00
        -11   -1    0    0    0    0  0.00000000000E+00  0.00000000000E+00  0.45593999997E+02  0.45594000000E+02  0.51100000000E-03 0. -1.
         11   -1    0    0    0    0 -0.00000000000E+00 -0.00000000000E+00 -0.45593999997E+02  0.45594000000E+02  0.51100000000E-03 0.  1.
    9900012    2    1    2    0    0  0.39607912346E+02  0.17052006693E+02 -0.49056586547E+01  0.47787272592E+02  0.20000007056E+02 0.  0.
         12    1    1    2    0    0 -0.39607912346E+02 -0.17052006693E+02  0.49056586547E+01  0.43400727408E+02  0.00000000000E+00 0. -1.
         11    1    3    3    0    0  0.23439747749E+01 -0.21035036870E+01  0.61356990623E+00  0.32086467237E+01  0.51100000000E-03 0. -1.
        -11    1    3    3    0    0  0.25365039350E+02  0.12307535878E+02  0.31082065015E+01  0.28364090123E+02  0.51100000000E-03 0.  1.
         12    1    3    3    0    0  0.11898898222E+02  0.68479745017E+01 -0.86274350624E+01  0.16214535745E+02  0.00000000000E+00 0. -1.
</event>
<event>
 7    1  0.2318319E-009  0.4778727E+02  0.7816164E-02  0.1312668E+00
        -11   -1    0    0    0    0  0.00000000000E+00  0.00000000000E+00  0.45593999997E+02  0.45594000000E+02  0.51100000000E-03 0.  1.
         11   -1    0    0    0    0 -0.00000000000E+00 -0.00000000000E+00 -0.45593999997E+02  0.45594000000E+02  0.51100000000E-03 0. -1.
    9900012    2    1    2    0    0  0.18489867165E+02 -0.16137783896E+02  0.35795525965E+02  0.47787274938E+02  0.20000017750E+02 0.  0.
         12    1    1    2    0    0 -0.18489867165E+02  0.16137783896E+02 -0.35795525965E+02  0.43400725062E+02  0.00000000000E+00 0. -1.
         11    1    3    3    0    0 -0.81129862804E-01 -0.68023586191E+01  0.51098548102E+01  0.85081890717E+01  0.51100000000E-03 0. -1.
        -11    1    3    3    0    0  0.14504070105E+02 -0.10980601996E+02  0.16967343221E+02  0.24876342297E+02  0.51100000000E-03 0.  1.
        -12    1    3    3    0    0  0.40669269234E+01  0.16451767198E+01  0.13718327933E+02  0.14402743569E+02  0.00000000000E+00 0.  1.
</event>
<event>
 7    1  0.2318319E-009  0.4778727E+02  0.7816164E-02  0.1312668E+00
        -11   -1    0    0    0    0  0.00000000000E+00  0.00000000000E+00  0.45593999997E+02  0.45594000000E+02  0.51100000000E-03 0.  1.
         11   -1    0    0    0    0 -0.00000000000E+00 -0.00000000000E+00 -0.45593999997E+02  0.45594000000E+02  0.51100000000E-03 0. -1.
    9900012    2    1    2    0    0  0.93434843582E+01 -0.31799344752E+02  0.28020073181E+02  0.47787268120E+02  0.19999986668E+02 0.  0.
         12    1    1    2    0    0 -0.93434843582E+01  0.31799344752E+02 -0.28020073181E+02  0.43400731880E+02  0.00000000000E+00 0. -1.
         11    1    3    3    0    0  0.51921549140E+01 -0.48828959221E+01 -0.15293069473E+01  0.72897136595E+01  0.51100000000E-03 0. -1.
        -11    1    3    3    0    0 -0.10953162760E+01 -0.39770024693E+01  0.36995744193E+01  0.55410393908E+01  0.51100000000E-03 0.  1.
        -12    1    3    3    0    0  0.52466457202E+01 -0.22939446360E+02  0.25849805709E+02  0.34956515070E+02  0.00000000000E+00 0.  1.
</event>
<event>
 7    1  0.2318319E-009  0.4778727E+02  0.7816164E-02  0.1312668E+00
        -11   -1    0    0    0    0  0.00000000000E+00  0.00000000000E+00  0.45593999997E+02  0.45594000000E+02  0.51100000000E-03 0.  1.
         11   -1    0    0    0    0 -0.00000000000E+00 -0.00000000000E+00 -0.45593999997E+02  0.45594000000E+02  0.51100000000E-03 0. -1.
    9900012    2    1    2    0    0 -0.43217438659E+02 -0.13687795503E+01 -0.37420351695E+01  0.47787269719E+02  0.19999993956E+02 0.  0.
         12    1    1    2    0    0  0.43217438659E+02  0.13687795503E+01  0.37420351695E+01  0.43400730281E+02  0.00000000000E+00 0. -1.
         11    1    3    3    0    0 -0.16271331849E+02 -0.59195243602E+01 -0.51657646559E+01  0.18068816606E+02  0.51100000000E-03 0. -1.
        -11    1    3    3    0    0 -0.20192061409E+02 -0.19239117865E+01  0.17308298611E+01  0.20357223602E+02  0.51100000000E-03 0.  1.
         12    1    3    3    0    0 -0.67540454012E+01  0.64746565964E+01 -0.30710037471E+00  0.93612295113E+01  0.00000000000E+00 0. -1.
</event>
<event>
 7    1  0.2318319E-009  0.4778725E+02  0.7816164E-02  0.1312668E+00
        -11   -1    0    0    0    0  0.00000000000E+00  0.00000000000E+00  0.45593999997E+02  0.45594000000E+02  0.51100000000E-03 0.  1.
         11   -1    0    0    0    0 -0.00000000000E+00 -0.00000000000E+00 -0.45593999997E+02  0.45594000000E+02  0.51100000000E-03 0. -1.
    9900012    2    1    2    0    0  0.16980802858E+02 -0.36227701747E+02  0.16817588096E+02  0.47787247600E+02  0.19999893106E+02 0.  0.
         12    1    1    2    0    0 -0.16980802858E+02  0.36227701747E+02 -0.16817588096E+02  0.43400752400E+02  0.00000000000E+00 0. -1.
         11    1    3    3    0    0 -0.34181232927E+01 -0.52269676038E+01 -0.41500786054E+00  0.62591524155E+01  0.51100000000E-03 0. -1.
        -11    1    3    3    0    0  0.48751569373E+01 -0.48039591424E+01  0.59014636940E+01  0.90372812614E+01  0.51100000000E-03 0.  1.
        -12    1    3    3    0    0  0.15523769214E+02 -0.26196775001E+02  0.11331132262E+02  0.32490813923E+02  0.00000000000E+00 0.  1.
</event>
<event>
 7    1  0.2318319E-009  0.4778727E+02  0.7816164E-02  0.1312668E+00
        -11   -1    0    0    0    0  0.00000000000E+00  0.00000000000E+00  0.45593999997E+02  0.45594000000E+02  0.51100000000E-03 0. -1.
         11   -1    0    0    0    0 -0.00000000000E+00 -0.00000000000E+00 -0.45593999997E+02  0.45594000000E+02  0.51100000000E-03 0.  1.
    9900012    2    1    2    0    0 -0.18182282847E+02 -0.39094120686E+02  0.49676478802E+01  0.47787271813E+02  0.20000003503E+02 0.  0.
         12    1    1    2    0    0  0.18182282847E+02  0.39094120686E+02 -0.49676478802E+01  0.43400728187E+02  0.00000000000E+00 0. -1.
         11    1    3    3    0    0 -0.66849823488E+01 -0.18219642365E+02 -0.10319161608E+01  0.19434742297E+02  0.51100000000E-03 0. -1.
        -11    1    3    3    0    0  0.98655585421E+00 -0.11351313012E+02 -0.38986097294E+00  0.11400771526E+02  0.51100000000E-03 0.  1.
        -12    1    3    3    0    0 -0.12483856353E+02 -0.95231653082E+01  0.63894250140E+01  0.16951757989E+02  0.00000000000E+00 0.  1.
</event>
<event>
 7    1  0.2318319E-009  0.4778727E+02  0.7816164E-02  0.1312668E+00
        -11   -1    0    0    0    0  0.00000000000E+00  0.00000000000E+00  0.45593999997E+02  0.45594000000E+02  0.51100000000E-03 0.  1.
         11   -1    0    0    0    0 -0.00000000000E+00 -0.00000000000E+00 -0.45593999997E+02  0.45594000000E+02  0.51100000000E-03 0. -1.
    9900012    2    1    2    0    0  0.29610496005E+02  0.87498211156E+01  0.30500526672E+02  0.47787274539E+02  0.20000015934E+02 0.  0.
         12    1    1    2    0    0 -0.29610496005E+02 -0.87498211156E+01 -0.30500526672E+02  0.43400725461E+02  0.00000000000E+00 0. -1.
         11    1    3    3    0    0  0.29043450624E+01 -0.15926358110E+01  0.10606132067E+02  0.11111334157E+02  0.51100000000E-03 0. -1.
        -11    1    3    3    0    0  0.79768947954E+01  0.53236089094E+01  0.12875549892E+02  0.16054639444E+02  0.51100000000E-03 0.  1.
        -12    1    3    3    0    0  0.18729256148E+02  0.50188480172E+01  0.70188447126E+01  0.20621300938E+02  0.00000000000E+00 0.  1.
</event>
<event>
 7    1  0.2318319E-009  0.4778727E+02  0.7816164E-02  0.1312668E+00
        -11   -1    0    0    0    0  0.00000000000E+00  0.00000000000E+00  0.45593999997E+02  0.45594000000E+02  0.51100000000E-03 0.  1.
         11   -1    0    0    0    0 -0.00000000000E+00 -0.00000000000E+00 -0.45593999997E+02  0.45594000000E+02  0.51100000000E-03 0. -1.
    9900012    2    1    2    0    0 -0.56019049948E+01 -0.17261975357E+02  0.39424183000E+02  0.47787270306E+02  0.19999996632E+02 0.  0.
         12    1    1    2    0    0  0.56019049948E+01  0.17261975357E+02 -0.39424183000E+02  0.43400729694E+02  0.00000000000E+00 0. -1.
         11    1    3    3    0    0 -0.30890825680E+01 -0.12805734114E+02  0.15982819235E+02  0.20711826773E+02  0.51100000000E-03 0.  1.
        -11    1    3    3    0    0 -0.36900268912E+01 -0.73775949646E+01  0.22212237417E+02  0.23694486643E+02  0.51100000000E-03 0. -1.
         12    1    3    3    0    0  0.11772044644E+01  0.29213537212E+01  0.12291263471E+01  0.33809568901E+01  0.00000000000E+00 0. -1.
</event>
<event>
 7    1  0.2318319E-009  0.4778727E+02  0.7816164E-02  0.1312668E+00
        -11   -1    0    0    0    0  0.00000000000E+00  0.00000000000E+00  0.45593999997E+02  0.45594000000E+02  0.51100000000E-03 0.  1.
         11   -1    0    0    0    0 -0.00000000000E+00 -0.00000000000E+00 -0.45593999997E+02  0.45594000000E+02  0.51100000000E-03 0. -1.
    9900012    2    1    2    0    0 -0.69585677118E+01 -0.21330903808E+02  0.37150964286E+02  0.47787271098E+02  0.20000000243E+02 0.  0.
         12    1    1    2    0    0  0.69585677118E+01  0.21330903808E+02 -0.37150964286E+02  0.43400728902E+02  0.00000000000E+00 0. -1.
         11    1    3    3    0    0  0.34707200493E+01 -0.10259057300E+02  0.22439993593E+02  0.24916810933E+02  0.51100000000E-03 0. -1.
        -11    1    3    3    0    0 -0.67250315221E+00 -0.60986364854E+01  0.77880104926E+01  0.99145718599E+01  0.51100000000E-03 0.  1.
        -12    1    3    3    0    0 -0.97567846089E+01 -0.49732100225E+01  0.69229602004E+01  0.12955888305E+02  0.00000000000E+00 0.  1.
</event>
<event>
 7    1  0.2318319E-009  0.4778727E+02  0.7816164E-02  0.1312668E+00
        -11   -1    0    0    0    0  0.00000000000E+00  0.00000000000E+00  0.45593999997E+02  0.45594000000E+02  0.51100000000E-03 0.  1.
         11   -1    0    0    0    0 -0.00000000000E+00 -0.00000000000E+00 -0.45593999997E+02  0.45594000000E+02  0.51100000000E-03 0. -1.
    9900012    2    1    2    0    0 -0.21627529013E+02  0.35838195072E+02  0.11467211991E+02  0.47787272033E+02  0.20000004507E+02 0.  0.
         12    1    1    2    0    0  0.21627529013E+02 -0.35838195072E+02 -0.11467211991E+02  0.43400727967E+02  0.00000000000E+00 0. -1.
         11    1    3    3    0    0 -0.17852294014E+01  0.21504493747E+00  0.43386496400E+00  0.18497371189E+01  0.51100000000E-03 0. -1.
        -11    1    3    3    0    0 -0.18665622024E+02  0.31116884099E+02  0.26939551677E+01  0.36385757053E+02  0.51100000000E-03 0.  1.
         12    1    3    3    0    0 -0.11766775875E+01  0.45062660349E+01  0.83393918597E+01  0.95517778613E+01  0.00000000000E+00 0. -1.
</event>
<event>
 7    1  0.2318319E-009  0.4778728E+02  0.7816164E-02  0.1312668E+00
        -11   -1    0    0    0    0  0.00000000000E+00  0.00000000000E+00  0.45593999997E+02  0.45594000000E+02  0.51100000000E-03 0. -1.
         11   -1    0    0    0    0 -0.00000000000E+00 -0.00000000000E+00 -0.45593999997E+02  0.45594000000E+02  0.51100000000E-03 0.  1.
    9900012    2    1    2    0    0  0.12229386356E+02 -0.18234559371E+02 -0.37437484612E+02  0.47787282262E+02  0.20000051146E+02 0.  0.
         12    1    1    2    0    0 -0.12229386356E+02  0.18234559371E+02  0.37437484612E+02  0.43400717738E+02  0.00000000000E+00 0. -1.
         11    1    3    3    0    0  0.45759362126E+01 -0.63232192707E+01 -0.66082983232E+01  0.10227018195E+02  0.51100000000E-03 0. -1.
        -11    1    3    3    0    0  0.10183803522E+02 -0.80356760039E+01 -0.30226551667E+02  0.32892649163E+02  0.51100000000E-03 0.  1.
         12    1    3    3    0    0 -0.25303533791E+01 -0.38756640963E+01 -0.60263462199E+00  0.46676149046E+01  0.00000000000E+00 0. -1.
</event>
<event>
 7    1  0.2318319E-009  0.4778726E+02  0.7816164E-02  0.1312668E+00
        -11   -1    0    0    0    0  0.00000000000E+00  0.00000000000E+00  0.45593999997E+02  0.45594000000E+02  0.51100000000E-03 0.  1.
         11   -1    0    0    0    0 -0.00000000000E+00 -0.00000000000E+00 -0.45593999997E+02  0.45594000000E+02  0.51100000000E-03 0. -1.
    9900012    2    1    2    0    0 -0.34117945069E+02 -0.55457549687E+01  0.26245652463E+02  0.47787264441E+02  0.19999969890E+02 0.  0.
         12    1    1    2    0    0  0.34117945069E+02  0.55457549687E+01 -0.26245652463E+02  0.43400735559E+02  0.00000000000E+00 0. -1.
         11    1    3    3    0    0 -0.16796966234E+01 -0.26332822443E+01 -0.29622600630E+00  0.31374043783E+01  0.51100000000E-03 0. -1.
        -11    1    3    3    0    0 -0.14210321504E+01 -0.35201549965E+01 -0.39526414519E-01  0.37963648626E+01  0.51100000000E-03 0.  1.
        -12    1    3    3    0    0 -0.31017216295E+02  0.60768227212E+00  0.26581404884E+02  0.40853495200E+02  0.00000000000E+00 0.  1.
</event>
<event>
 7    1  0.2318319E-009  0.4778727E+02  0.7816164E-02  0.1312668E+00
        -11   -1    0    0    0    0  0.00000000000E+00  0.00000000000E+00  0.45593999997E+02  0.45594000000E+02  0.51100000000E-03 0.  1.
         11   -1    0    0    0    0 -0.00000000000E+00 -0.00000000000E+00 -0.45593999997E+02  0.45594000000E+02  0.51100000000E-03 0. -1.
    9900012    2    1    2    0    0 -0.29631411515E+01  0.16314360490E+02  0.40108412006E+02  0.47787271005E+02  0.19999999819E+02 0.  0.
         12    1    1    2    0    0  0.29631411515E+01 -0.16314360490E+02 -0.40108412006E+02  0.43400728995E+02  0.00000000000E+00 0. -1.
         11    1    3    3    0    0  0.21081297497E+01  0.95946107646E+01  0.17982046344E+02  0.20490357678E+02  0.51100000000E-03 0. -1.
        -11    1    3    3    0    0 -0.19228723526E+00  0.70793859567E+01  0.21155336415E+02  0.22309256800E+02  0.51100000000E-03 0.  1.
         12    1    3    3    0    0 -0.48789836660E+01 -0.35963623103E+00  0.97102924673E+00  0.49876565268E+01  0.00000000000E+00 0. -1.
</event>
<event>
 7    1  0.2318319E-009  0.4778727E+02  0.7816164E-02  0.1312668E+00
        -11   -1    0    0    0    0  0.00000000000E+00  0.00000000000E+00  0.45593999997E+02  0.45594000000E+02  0.51100000000E-03 0.  1.
         11   -1    0    0    0    0 -0.00000000000E+00 -0.00000000000E+00 -0.45593999997E+02  0.45594000000E+02  0.51100000000E-03 0. -1.
    9900012    2    1    2    0    0  0.26158353812E+02  0.12633542892E+02  0.32245274830E+02  0.47787266953E+02  0.19999981346E+02 0.  0.
         12    1    1    2    0    0 -0.26158353812E+02 -0.12633542892E+02 -0.32245274830E+02  0.43400733047E+02  0.00000000000E+00 0. -1.
         11    1    3    3    0    0  0.13540134294E+02  0.11668954740E+02  0.10914044200E+02  0.20943163622E+02  0.51100000000E-03 0. -1.
        -11    1    3    3    0    0  0.75572538319E+01  0.10765376795E+01  0.36666597818E+01  0.84684953251E+01  0.51100000000E-03 0.  1.
        -12    1    3    3    0    0  0.50609656860E+01 -0.11194952710E+00  0.17664570848E+02  0.18375608006E+02  0.00000000000E+00 0.  1.
</event>
<event>
 7    1  0.2318319E-009  0.4778727E+02  0.7816164E-02  0.1312668E+00
        -11   -1    0    0    0    0  0.00000000000E+00  0.00000000000E+00  0.45593999997E+02  0.45594000000E+02  0.51100000000E-03 0.  1.
         11   -1    0    0    0    0 -0.00000000000E+00 -0.00000000000E+00 -0.45593999997E+02  0.45594000000E+02  0.51100000000E-03 0. -1.
    9900012    2    1    2    0    0 -0.16411245107E+02  0.29416829571E+02  0.27366852619E+02  0.47787269013E+02  0.19999990736E+02 0.  0.
         12    1    1    2    0    0  0.16411245107E+02 -0.29416829571E+02 -0.27366852619E+02  0.43400730987E+02  0.00000000000E+00 0. -1.
         11    1    3    3    0    0 -0.51639318679E+01  0.18552684513E+02  0.18124324785E+02  0.26445404972E+02  0.51100000000E-03 0. -1.
        -11    1    3    3    0    0 -0.15577400408E+01  0.92105188338E+00  0.70594705864E+01  0.72877304991E+01  0.51100000000E-03 0.  1.
         12    1    3    3    0    0 -0.96895731977E+01  0.99430931755E+01  0.21830572472E+01  0.14054133541E+02  0.00000000000E+00 0. -1.
</event>
<event>
 7    1  0.2318319E-009  0.4778727E+02  0.7816164E-02  0.1312668E+00
        -11   -1    0    0    0    0  0.00000000000E+00  0.00000000000E+00  0.45593999997E+02  0.45594000000E+02  0.51100000000E-03 0.  1.
         11   -1    0    0    0    0 -0.00000000000E+00 -0.00000000000E+00 -0.45593999997E+02  0.45594000000E+02  0.51100000000E-03 0. -1.
    9900012    2    1    2    0    0 -0.42000181122E+01  0.11304607301E+02  0.41691595591E+02  0.47787269115E+02  0.19999991205E+02 0.  0.
         12    1    1    2    0    0  0.42000181122E+01 -0.11304607301E+02 -0.41691595591E+02  0.43400730885E+02  0.00000000000E+00 0. -1.
         11    1    3    3    0    0 -0.84119547985E+00 -0.26642006436E+01  0.11177416596E+02  0.11521294065E+02  0.51100000000E-03 0.  1.
        -11    1    3    3    0    0 -0.42949494228E+01 -0.82689971741E+00  0.10368086028E+02  0.11252891266E+02  0.51100000000E-03 0. -1.
        -12    1    3    3    0    0  0.93612679042E+00  0.14795707662E+02  0.20146092967E+02  0.25013083785E+02  0.00000000000E+00 0.  1.
</event>
<event>
 7    1  0.2318319E-009  0.4778727E+02  0.7816164E-02  0.1312668E+00
        -11   -1    0    0    0    0  0.00000000000E+00  0.00000000000E+00  0.45593999997E+02  0.45594000000E+02  0.51100000000E-03 0. -1.
         11   -1    0    0    0    0 -0.00000000000E+00 -0.00000000000E+00 -0.45593999997E+02  0.45594000000E+02  0.51100000000E-03 0.  1.
    9900012    2    1    2    0    0 -0.13511550169E+02 -0.36858774898E+02 -0.18506547423E+02  0.47787267604E+02  0.19999984315E+02 0.  0.
         12    1    1    2    0    0  0.13511550169E+02  0.36858774898E+02  0.18506547423E+02  0.43400732396E+02  0.00000000000E+00 0. -1.
         11    1    3    3    0    0 -0.93796498501E+01 -0.18488634015E+02 -0.24640968366E+01  0.20877720003E+02  0.51100000000E-03 0. -1.
        -11    1    3    3    0    0 -0.26158529586E+01  0.50369619913E+00 -0.17704343707E+01  0.31985675988E+01  0.51100000000E-03 0.  1.
        -12    1    3    3    0    0 -0.15160473600E+01 -0.18873837082E+02 -0.14272016216E+02  0.23710980003E+02  0.00000000000E+00 0.  1.
</event>
<event>
 7    1  0.2318319E-009  0.4778728E+02  0.7816164E-02  0.1312668E+00
        -11   -1    0    0    0    0  0.00000000000E+00  0.00000000000E+00  0.45593999997E+02  0.45594000000E+02  0.51100000000E-03 0.  1.
         11   -1    0    0    0    0 -0.00000000000E+00 -0.00000000000E+00 -0.45593999997E+02  0.45594000000E+02  0.51100000000E-03 0. -1.
    9900012    2    1    2    0    0  0.27608561723E+02  0.68650731401E+01 -0.32775910725E+02  0.47787283031E+02  0.20000054649E+02 0.  0.
         12    1    1    2    0    0 -0.27608561723E+02 -0.68650731401E+01  0.32775910725E+02  0.43400716969E+02  0.00000000000E+00 0. -1.
         11    1    3    3    0    0  0.70896050813E+01 -0.10728565773E+01 -0.70723958999E-01  0.71706710693E+01  0.51100000000E-03 0. -1.
        -11    1    3    3    0    0 -0.61491718248E+00  0.18879808173E+01 -0.39528227457E+01  0.44235056943E+01  0.51100000000E-03 0.  1.
        -12    1    3    3    0    0  0.21133873824E+02  0.60499489002E+01 -0.28752364020E+02  0.36193106267E+02  0.00000000000E+00 0.  1.
</event>
<event>
 7    1  0.2318319E-009  0.4778727E+02  0.7816164E-02  0.1312668E+00
        -11   -1    0    0    0    0  0.00000000000E+00  0.00000000000E+00  0.45593999997E+02  0.45594000000E+02  0.51100000000E-03 0.  1.
         11   -1    0    0    0    0 -0.00000000000E+00 -0.00000000000E+00 -0.45593999997E+02  0.45594000000E+02  0.51100000000E-03 0. -1.
    9900012    2    1    2    0    0  0.25918126725E+02 -0.25405166382E+02  0.23800239120E+02  0.47787272425E+02  0.20000006295E+02 0.  0.
         12    1    1    2    0    0 -0.25918126725E+02  0.25405166382E+02 -0.23800239120E+02  0.43400727575E+02  0.00000000000E+00 0. -1.
         11    1    3    3    0    0  0.18245965204E+01 -0.75408691692E+01  0.10101770857E+02  0.12737332334E+02  0.51100000000E-03 0.  1.
        -11    1    3    3    0    0 -0.13556808609E+01 -0.10070767690E+01  0.11626242305E+01  0.20503096297E+01  0.51100000000E-03 0. -1.
         12    1    3    3    0    0  0.25449211066E+02 -0.16857220444E+02  0.12535844033E+02  0.32999630461E+02  0.00000000000E+00 0. -1.
</event>
<event>
 7    1  0.2318319E-009  0.4778727E+02  0.7816164E-02  0.1312668E+00
        -11   -1    0    0    0    0  0.00000000000E+00  0.00000000000E+00  0.45593999997E+02  0.45594000000E+02  0.51100000000E-03 0.  1.
         11   -1    0    0    0    0 -0.00000000000E+00 -0.00000000000E+00 -0.45593999997E+02  0.45594000000E+02  0.51100000000E-03 0. -1.
    9900012    2    1    2    0    0  0.15585736761E+02 -0.23296502543E+02  0.33135794742E+02  0.47787272883E+02  0.20000008383E+02 0.  0.
         12    1    1    2    0    0 -0.15585736761E+02  0.23296502543E+02 -0.33135794742E+02  0.43400727117E+02  0.00000000000E+00 0. -1.
         11    1    3    3    0    0 -0.28799881008E+01 -0.42127109573E+01  0.20520624586E+01  0.55002023295E+01  0.51100000000E-03 0. -1.
        -11    1    3    3    0    0  0.19446132485E+01  0.85331841368E+00  0.54620574129E+01  0.58603536108E+01  0.51100000000E-03 0.  1.
        -12    1    3    3    0    0  0.16521111613E+02 -0.19937110000E+02  0.25621674870E+02  0.36426716943E+02  0.00000000000E+00 0.  1.
</event>
<event>
 7    1  0.2318319E-009  0.4778728E+02  0.7816164E-02  0.1312668E+00
        -11   -1    0    0    0    0  0.00000000000E+00  0.00000000000E+00  0.45593999997E+02  0.45594000000E+02  0.51100000000E-03 0. -1.
         11   -1    0    0    0    0 -0.00000000000E+00 -0.00000000000E+00 -0.45593999997E+02  0.45594000000E+02  0.51100000000E-03 0.  1.
    9900012    2    1    2    0    0 -0.38514644679E+02 -0.24400496343E+01 -0.19856756927E+02  0.47787280045E+02  0.20000041036E+02 0.  0.
         12    1    1    2    0    0  0.38514644679E+02  0.24400496343E+01  0.19856756927E+02  0.43400719955E+02  0.00000000000E+00 0. -1.
         11    1    3    3    0    0 -0.29301664816E+01 -0.56826888257E+01 -0.13540969060E+01  0.65354729432E+01  0.51100000000E-03 0. -1.
        -11    1    3    3    0    0 -0.60667681083E+01  0.23415662255E+01 -0.19496966443E+00  0.65058912610E+01  0.51100000000E-03 0.  1.
        -12    1    3    3    0    0 -0.29517710089E+02  0.90107296585E+00 -0.18307690357E+02  0.34745915841E+02  0.00000000000E+00 0.  1.
</event>
<event>
 7    1  0.2318319E-009  0.4778727E+02  0.7816164E-02  0.1312668E+00
        -11   -1    0    0    0    0  0.00000000000E+00  0.00000000000E+00  0.45593999997E+02  0.45594000000E+02  0.51100000000E-03 0.  1.
         11   -1    0    0    0    0 -0.00000000000E+00 -0.00000000000E+00 -0.45593999997E+02  0.45594000000E+02  0.51100000000E-03 0. -1.
    9900012    2    1    2    0    0 -0.39860366968E+02 -0.69940301660E+01  0.15679856806E+02  0.47787271639E+02  0.20000002711E+02 0.  0.
         12    1    1    2    0    0  0.39860366968E+02  0.69940301660E+01 -0.15679856806E+02  0.43400728361E+02  0.00000000000E+00 0. -1.
         11    1    3    3    0    0 -0.92996016708E+01  0.19177345848E+01  0.51491319702E+01  0.10801567362E+02  0.51100000000E-03 0. -1.
        -11    1    3    3    0    0 -0.27997725889E+02 -0.89064406135E+01  0.14102456139E+02  0.32589516854E+02  0.51100000000E-03 0.  1.
         12    1    3    3    0    0 -0.25630394088E+01 -0.53241373263E-02 -0.35717313031E+01  0.43961874231E+01  0.00000000000E+00 0. -1.
</event>
<event>
 7    1  0.2318319E-009  0.4778727E+02  0.7816164E-02  0.1312668E+00
        -11   -1    0    0    0    0  0.00000000000E+00  0.00000000000E+00  0.45593999997E+02  0.45594000000E+02  0.51100000000E-03 0.  1.
         11   -1    0    0    0    0 -0.00000000000E+00 -0.00000000000E+00 -0.45593999997E+02  0.45594000000E+02  0.51100000000E-03 0. -1.
    9900012    2    1    2    0    0 -0.21490179140E+02 -0.58399834110E+01  0.37251715594E+02  0.47787268204E+02  0.19999987048E+02 0.  0.
         12    1    1    2    0    0  0.21490179140E+02  0.58399834110E+01 -0.37251715594E+02  0.43400731796E+02  0.00000000000E+00 0. -1.
         11    1    3    3    0    0 -0.26921046028E+01 -0.88382104474E+00  0.31619863956E+00  0.28510609731E+01  0.51100000000E-03 0. -1.
        -11    1    3    3    0    0 -0.38968768498E+01  0.35149754054E+00 -0.82287451093E+00  0.39982899377E+01  0.51100000000E-03 0.  1.
         12    1    3    3    0    0 -0.14901197688E+02 -0.53076599068E+01  0.37758391466E+02  0.40937917293E+02  0.00000000000E+00 0. -1.
</event>
<event>
 7    1  0.2318319E-009  0.4778727E+02  0.7816164E-02  0.1312668E+00
        -11   -1    0    0    0    0  0.00000000000E+00  0.00000000000E+00  0.45593999997E+02  0.45594000000E+02  0.51100000000E-03 0. -1.
         11   -1    0    0    0    0 -0.00000000000E+00 -0.00000000000E+00 -0.45593999997E+02  0.45594000000E+02  0.51100000000E-03 0.  1.
    9900012    2    1    2    0    0 -0.10862022494E+02  0.38737314131E+02 -0.16280667751E+02  0.47787272113E+02  0.20000004870E+02 0.  0.
         12    1    1    2    0    0  0.10862022494E+02 -0.38737314131E+02  0.16280667751E+02  0.43400727887E+02  0.00000000000E+00 0. -1.
         11    1    3    3    0    0  0.10855813505E+01  0.93971593561E+01 -0.16245805549E+01  0.95981432097E+01  0.51100000000E-03 0.  1.
        -11    1    3    3    0    0 -0.48500527699E+01  0.59215123553E+01  0.27785166296E+01  0.81429402163E+01  0.51100000000E-03 0. -1.
         12    1    3    3    0    0 -0.70975510750E+01  0.23418642420E+02 -0.17434603825E+02  0.30046188687E+02  0.00000000000E+00 0. -1.
</event>
<event>
 7    1  0.2318319E-009  0.4778727E+02  0.7816164E-02  0.1312668E+00
        -11   -1    0    0    0    0  0.00000000000E+00  0.00000000000E+00  0.45593999997E+02  0.45594000000E+02  0.51100000000E-03 0.  1.
         11   -1    0    0    0    0 -0.00000000000E+00 -0.00000000000E+00 -0.45593999997E+02  0.45594000000E+02  0.51100000000E-03 0. -1.
    9900012    2    1    2    0    0  0.19536986930E+02  0.14330282108E+02  0.36007949594E+02  0.47787271002E+02  0.19999999808E+02 0.  0.
         12    1    1    2    0    0 -0.19536986930E+02 -0.14330282108E+02 -0.36007949594E+02  0.43400728998E+02  0.00000000000E+00 0. -1.
         11    1    3    3    0    0  0.12549463046E+02  0.13575227357E+02  0.21610873001E+02  0.28439508657E+02  0.51100000000E-03 0.  1.
        -11    1    3    3    0    0  0.57295838552E+01  0.28844721389E+01  0.20188657249E+01  0.67248888281E+01  0.51100000000E-03 0. -1.
        -12    1    3    3    0    0  0.12579400282E+01 -0.21294173880E+01  0.12378210868E+02  0.12622873517E+02  0.00000000000E+00 0.  1.
</event>
<event>
 7    1  0.2318319E-009  0.4778731E+02  0.7816164E-02  0.1312668E+00
        -11   -1    0    0    0    0  0.00000000000E+00  0.00000000000E+00  0.45593999997E+02  0.45594000000E+02  0.51100000000E-03 0. -1.
         11   -1    0    0    0    0 -0.00000000000E+00 -0.00000000000E+00 -0.45593999997E+02  0.45594000000E+02  0.51100000000E-03 0.  1.
    9900012    2    1    2    0    0  0.40981220436E+02  0.19443147466E+01  0.14155539900E+02  0.47787307631E+02  0.20000166811E+02 0.  0.
         12    1    1    2    0    0 -0.40981220436E+02 -0.19443147466E+01 -0.14155539900E+02  0.43400692369E+02  0.00000000000E+00 0. -1.
         11    1    3    3    0    0  0.21123368194E+02  0.22653710003E+01  0.44156285244E+01  0.21698533710E+02  0.51100000000E-03 0. -1.
        -11    1    3    3    0    0  0.16990968246E+02  0.17125127268E+01  0.15147847854E+01  0.17144103213E+02  0.51100000000E-03 0.  1.
         12    1    3    3    0    0  0.28668839962E+01 -0.20335689805E+01  0.82251265905E+01  0.89446707080E+01  0.00000000000E+00 0. -1.
</event>
<event>
 7    1  0.2318319E-009  0.4778728E+02  0.7816164E-02  0.1312668E+00
        -11   -1    0    0    0    0  0.00000000000E+00  0.00000000000E+00  0.45593999997E+02  0.45594000000E+02  0.51100000000E-03 0.  1.
         11   -1    0    0    0    0 -0.00000000000E+00 -0.00000000000E+00 -0.45593999997E+02  0.45594000000E+02  0.51100000000E-03 0. -1.
    9900012    2    1    2    0    0 -0.97756705605E+01 -0.39010518697E+02  0.16316817856E+02  0.47787275941E+02  0.20000022324E+02 0.  0.
         12    1    1    2    0    0  0.97756705605E+01  0.39010518697E+02 -0.16316817856E+02  0.43400724059E+02  0.00000000000E+00 0. -1.
         11    1    3    3    0    0 -0.21022933584E+01 -0.12142786603E+02  0.10951753728E+01  0.12371997139E+02  0.51100000000E-03 0. -1.
        -11    1    3    3    0    0 -0.56592173833E+01 -0.27649431171E+02  0.16703687040E+02  0.32795288480E+02  0.51100000000E-03 0.  1.
         12    1    3    3    0    0 -0.20141598188E+01  0.78169907668E+00 -0.14820445564E+01  0.26199903224E+01  0.00000000000E+00 0. -1.
</event>
<event>
 7    1  0.2318319E-009  0.4778727E+02  0.7816164E-02  0.1312668E+00
        -11   -1    0    0    0    0  0.00000000000E+00  0.00000000000E+00  0.45593999997E+02  0.45594000000E+02  0.51100000000E-03 0.  1.
         11   -1    0    0    0    0 -0.00000000000E+00 -0.00000000000E+00 -0.45593999997E+02  0.45594000000E+02  0.51100000000E-03 0. -1.
    9900012    2    1    2    0    0  0.32594419186E+02 -0.53248781732E+01  0.28157999858E+02  0.47787269066E+02  0.19999990978E+02 0.  0.
         12    1    1    2    0    0 -0.32594419186E+02  0.53248781732E+01 -0.28157999858E+02  0.43400730934E+02  0.00000000000E+00 0. -1.
         11    1    3    3    0    0  0.68328525220E+01 -0.39575893560E+01  0.34192501760E+01  0.86047463138E+01  0.51100000000E-03 0.  1.
        -11    1    3    3    0    0  0.11295601815E+02  0.53383204055E+01  0.41987646531E+01  0.13180209027E+02  0.51100000000E-03 0. -1.
         12    1    3    3    0    0  0.14465964848E+02 -0.67056092227E+01  0.20539985029E+02  0.26002313725E+02  0.00000000000E+00 0. -1.
</event>
<event>
 7    1  0.2318319E-009  0.4778727E+02  0.7816164E-02  0.1312668E+00
        -11   -1    0    0    0    0  0.00000000000E+00  0.00000000000E+00  0.45593999997E+02  0.45594000000E+02  0.51100000000E-03 0.  1.
         11   -1    0    0    0    0 -0.00000000000E+00 -0.00000000000E+00 -0.45593999997E+02  0.45594000000E+02  0.51100000000E-03 0. -1.
    9900012    2    1    2    0    0  0.33810416326E+00 -0.12382987017E+02  0.41595319149E+02  0.47787271239E+02  0.20000000885E+02 0.  0.
         12    1    1    2    0    0 -0.33810416326E+00  0.12382987017E+02 -0.41595319149E+02  0.43400728761E+02  0.00000000000E+00 0. -1.
         11    1    3    3    0    0  0.31832126840E+01 -0.38471853004E+01  0.98329598432E+01  0.11028181050E+02  0.51100000000E-03 0. -1.
        -11    1    3    3    0    0  0.71477984926E+00  0.22721331156E+01 -0.59844835823E+00  0.24559397033E+01  0.51100000000E-03 0.  1.
        -12    1    3    3    0    0 -0.35598883700E+01 -0.10807934833E+02  0.32360807664E+02  0.34303150486E+02  0.00000000000E+00 0.  1.
</event>
<event>
 7    1  0.2318319E-009  0.4778727E+02  0.7816164E-02  0.1312668E+00
        -11   -1    0    0    0    0  0.00000000000E+00  0.00000000000E+00  0.45593999997E+02  0.45594000000E+02  0.51100000000E-03 0.  1.
         11   -1    0    0    0    0 -0.00000000000E+00 -0.00000000000E+00 -0.45593999997E+02  0.45594000000E+02  0.51100000000E-03 0. -1.
    9900012    2    1    2    0    0 -0.40482263560E+02  0.12730250462E+02 -0.90967149566E+01  0.47787272324E+02  0.20000005836E+02 0.  0.
         12    1    1    2    0    0  0.40482263560E+02 -0.12730250462E+02  0.90967149566E+01  0.43400727676E+02  0.00000000000E+00 0. -1.
         11    1    3    3    0    0 -0.84342285358E+01  0.44656770379E+01 -0.80131186298E+01  0.12461482770E+02  0.51100000000E-03 0. -1.
        -11    1    3    3    0    0 -0.24361339964E+02  0.76209902931E+01 -0.59441407405E+01  0.26208532719E+02  0.51100000000E-03 0.  1.
         12    1    3    3    0    0 -0.76866950607E+01  0.64358313047E+00  0.48605444137E+01  0.91172568352E+01  0.00000000000E+00 0. -1.
</event>
<event>
 7    1  0.2318319E-009  0.4778727E+02  0.7816164E-02  0.1312668E+00
        -11   -1    0    0    0    0  0.00000000000E+00  0.00000000000E+00  0.45593999997E+02  0.45594000000E+02  0.51100000000E-03 0.  1.
         11   -1    0    0    0    0 -0.00000000000E+00 -0.00000000000E+00 -0.45593999997E+02  0.45594000000E+02  0.51100000000E-03 0. -1.
    9900012    2    1    2    0    0 -0.12771778397E+02  0.52478461000E+00  0.41475650416E+02  0.47787270747E+02  0.19999998642E+02 0.  0.
         12    1    1    2    0    0  0.12771778397E+02 -0.52478461000E+00 -0.41475650416E+02  0.43400729253E+02  0.00000000000E+00 0. -1.
         11    1    3    3    0    0  0.13722025619E+00 -0.13538803893E+01 -0.13182800401E+01  0.18946461497E+01  0.51100000000E-03 0. -1.
        -11    1    3    3    0    0 -0.75831408244E+01 -0.25101893023E+01  0.12588978280E+02  0.14909307478E+02  0.51100000000E-03 0.  1.
        -12    1    3    3    0    0 -0.53258578286E+01  0.43888543017E+01  0.30204952176E+02  0.30983317119E+02  0.00000000000E+00 0.  1.
</event>
<event>
 7    1  0.2318319E-009  0.4778727E+02  0.7816164E-02  0.1312668E+00
        -11   -1    0    0    0    0  0.00000000000E+00  0.00000000000E+00  0.45593999997E+02  0.45594000000E+02  0.51100000000E-03 0.  1.
         11   -1    0    0    0    0 -0.00000000000E+00 -0.00000000000E+00 -0.45593999997E+02  0.45594000000E+02  0.51100000000E-03 0. -1.
    9900012    2    1    2    0    0 -0.38963028863E+02  0.72199901016E+00  0.19104566911E+02  0.47787269849E+02  0.19999994551E+02 0.  0.
         12    1    1    2    0    0  0.38963028863E+02 -0.72199901016E+00 -0.19104566911E+02  0.43400730151E+02  0.00000000000E+00 0. -1.
         11    1    3    3    0    0 -0.14212672419E+02  0.66651660460E+01  0.13493327555E+02  0.20700105905E+02  0.51100000000E-03 0. -1.
        -11    1    3    3    0    0 -0.14755807958E+02 -0.45227372121E-01  0.45114658893E+01  0.15430140593E+02  0.51100000000E-03 0.  1.
         12    1    3    3    0    0 -0.99945484868E+01 -0.58979396637E+01  0.10997734666E+01  0.11657023351E+02  0.00000000000E+00 0. -1.
</event>
<event>
 7    1  0.2318319E-009  0.4778727E+02  0.7816164E-02  0.1312668E+00
        -11   -1    0    0    0    0  0.00000000000E+00  0.00000000000E+00  0.45593999997E+02  0.45594000000E+02  0.51100000000E-03 0.  1.
         11   -1    0    0    0    0 -0.00000000000E+00 -0.00000000000E+00 -0.45593999997E+02  0.45594000000E+02  0.51100000000E-03 0. -1.
    9900012    2    1    2    0    0 -0.14715358531E+02 -0.39873529638E+02  0.87854064414E+01  0.47787268337E+02  0.19999987657E+02 0.  0.
         12    1    1    2    0    0  0.14715358531E+02  0.39873529638E+02 -0.87854064414E+01  0.43400731663E+02  0.00000000000E+00 0. -1.
         11    1    3    3    0    0 -0.90011807838E+01 -0.12208661694E+02  0.11074863359E+02  0.18780981725E+02  0.51100000000E-03 0. -1.
        -11    1    3    3    0    0  0.78281328703E+00 -0.55941953626E+01  0.10882994539E+01  0.57525832771E+01  0.51100000000E-03 0.  1.
         12    1    3    3    0    0 -0.64969910344E+01 -0.22070672582E+02 -0.33777563714E+01  0.23253703335E+02  0.00000000000E+00 0. -1.
</event>
<event>
 7    1  0.2318319E-009  0.4778727E+02  0.7816164E-02  0.1312668E+00
        -11   -1    0    0    0    0  0.00000000000E+00  0.00000000000E+00  0.45593999997E+02  0.45594000000E+02  0.51100000000E-03 0.  1.
         11   -1    0    0    0    0 -0.00000000000E+00 -0.00000000000E+00 -0.45593999997E+02  0.45594000000E+02  0.51100000000E-03 0. -1.
    9900012    2    1    2    0    0  0.40319160971E+02  0.68653603499E+01  0.14520856966E+02  0.47787271882E+02  0.20000003818E+02 0.  0.
         12    1    1    2    0    0 -0.40319160971E+02 -0.68653603499E+01 -0.14520856966E+02  0.43400728118E+02  0.00000000000E+00 0. -1.
         11    1    3    3    0    0  0.14075452417E+02  0.10589671329E+02  0.57239677803E+01  0.18520888397E+02  0.51100000000E-03 0. -1.
        -11    1    3    3    0    0  0.12901120173E+02  0.38826763310E+00  0.27657297348E+00  0.12909924336E+02  0.51100000000E-03 0.  1.
        -12    1    3    3    0    0  0.13342588381E+02 -0.41125786125E+01  0.85203162118E+01  0.16356459149E+02  0.00000000000E+00 0.  1.
</event>
<event>
 7    1  0.2318319E-009  0.4778727E+02  0.7816164E-02  0.1312668E+00
        -11   -1    0    0    0    0  0.00000000000E+00  0.00000000000E+00  0.45593999997E+02  0.45594000000E+02  0.51100000000E-03 0.  1.
         11   -1    0    0    0    0 -0.00000000000E+00 -0.00000000000E+00 -0.45593999997E+02  0.45594000000E+02  0.51100000000E-03 0. -1.
    9900012    2    1    2    0    0  0.37835843975E+02  0.13095623420E+02  0.16750426837E+02  0.47787271420E+02  0.20000001714E+02 0.  0.
         12    1    1    2    0    0 -0.37835843975E+02 -0.13095623420E+02 -0.16750426837E+02  0.43400728580E+02  0.00000000000E+00 0. -1.
         11    1    3    3    0    0  0.39279594679E+01  0.63527242170E+01  0.46448019183E+01  0.87954622210E+01  0.51100000000E-03 0.  1.
        -11    1    3    3    0    0  0.17458503071E+01 -0.29879128059E+01  0.12645706183E+01  0.36843934834E+01  0.51100000000E-03 0. -1.
         12    1    3    3    0    0  0.32162034199E+02  0.97308120089E+01  0.10841054300E+02  0.35307415716E+02  0.00000000000E+00 0. -1.
</event>
<event>
 7    1  0.2318319E-009  0.4778727E+02  0.7816164E-02  0.1312668E+00
        -11   -1    0    0    0    0  0.00000000000E+00  0.00000000000E+00  0.45593999997E+02  0.45594000000E+02  0.51100000000E-03 0. -1.
         11   -1    0    0    0    0 -0.00000000000E+00 -0.00000000000E+00 -0.45593999997E+02  0.45594000000E+02  0.51100000000E-03 0.  1.
    9900012    2    1    2    0    0  0.12763929012E+02  0.13052523484E+02 -0.39374315821E+02  0.47787274206E+02  0.20000014415E+02 0.  0.
         12    1    1    2    0    0 -0.12763929012E+02 -0.13052523484E+02  0.39374315821E+02  0.43400725794E+02  0.00000000000E+00 0. -1.
         11    1    3    3    0    0 -0.62445827153E+00 -0.21584275872E+01 -0.96773813766E+01  0.99348109369E+01  0.51100000000E-03 0. -1.
        -11    1    3    3    0    0  0.84905510885E+01  0.82834066498E+01 -0.26038771299E+02  0.28613316734E+02  0.51100000000E-03 0.  1.
         12    1    3    3    0    0  0.48978361947E+01  0.69275444214E+01 -0.36581631454E+01  0.92391465352E+01  0.00000000000E+00 0. -1.
</event>
<event>
 7    1  0.2318319E-009  0.4778727E+02  0.7816164E-02  0.1312668E+00
        -11   -1    0    0    0    0  0.00000000000E+00  0.00000000000E+00  0.45593999997E+02  0.45594000000E+02  0.51100000000E-03 0. -1.
         11   -1    0    0    0    0 -0.00000000000E+00 -0.00000000000E+00 -0.45593999997E+02  0.45594000000E+02  0.51100000000E-03 0.  1.
    9900012    2    1    2    0    0  0.29308075511E+02 -0.30455096440E+02 -0.98563381226E+01  0.47787267397E+02  0.19999983369E+02 0.  0.
         12    1    1    2    0    0 -0.29308075511E+02  0.30455096440E+02  0.98563381226E+01  0.43400732603E+02  0.00000000000E+00 0. -1.
         11    1    3    3    0    0  0.97966664368E+01 -0.72147325635E+01 -0.80001662079E+01  0.14561239606E+02  0.51100000000E-03 0. -1.
        -11    1    3    3    0    0  0.20844499874E+02 -0.20833775604E+02 -0.39960120647E+01  0.29740670699E+02  0.51100000000E-03 0.  1.
        -12    1    3    3    0    0 -0.13330908002E+01 -0.24065882722E+01  0.21398401500E+01  0.34853570924E+01  0.00000000000E+00 0.  1.
</event>
<event>
 7    1  0.2318319E-009  0.4778727E+02  0.7816164E-02  0.1312668E+00
        -11   -1    0    0    0    0  0.00000000000E+00  0.00000000000E+00  0.45593999997E+02  0.45594000000E+02  0.51100000000E-03 0.  1.
         11   -1    0    0    0    0 -0.00000000000E+00 -0.00000000000E+00 -0.45593999997E+02  0.45594000000E+02  0.51100000000E-03 0. -1.
    9900012    2    1    2    0    0 -0.34477711888E+02  0.18564427005E+02  0.18715577787E+02  0.47787269373E+02  0.19999992381E+02 0.  0.
         12    1    1    2    0    0  0.34477711888E+02 -0.18564427005E+02 -0.18715577787E+02  0.43400730627E+02  0.00000000000E+00 0. -1.
         11    1    3    3    0    0 -0.10493600347E+02  0.13980808441E+02  0.12437428718E+02  0.21453864134E+02  0.51100000000E-03 0. -1.
        -11    1    3    3    0    0 -0.88430501134E+01  0.31772337255E+01  0.59533465716E+01  0.11123699255E+02  0.51100000000E-03 0.  1.
        -12    1    3    3    0    0 -0.15141061427E+02  0.14063848384E+01  0.32480249658E+00  0.15209705984E+02  0.00000000000E+00 0.  1.
</event>
<event>
 7    1  0.2318319E-009  0.4778727E+02  0.7816164E-02  0.1312668E+00
        -11   -1    0    0    0    0  0.00000000000E+00  0.00000000000E+00  0.45593999997E+02  0.45594000000E+02  0.51100000000E-03 0. -1.
         11   -1    0    0    0    0 -0.00000000000E+00 -0.00000000000E+00 -0.45593999997E+02  0.45594000000E+02  0.51100000000E-03 0.  1.
    9900012    2    1    2    0    0 -0.41333993150E+02 -0.89634083196E+01 -0.97355784737E+01  0.47787272280E+02  0.20000005631E+02 0.  0.
         12    1    1    2    0    0  0.41333993150E+02  0.89634083196E+01  0.97355784737E+01  0.43400727720E+02  0.00000000000E+00 0. -1.
         11    1    3    3    0    0 -0.25605125006E+01  0.44611560149E+00 -0.43198016193E+01  0.50414213955E+01  0.51100000000E-03 0. -1.
        -11    1    3    3    0    0 -0.14524373045E+02  0.32600525145E+01 -0.16231129527E+00  0.14886628227E+02  0.51100000000E-03 0.  1.
         12    1    3    3    0    0 -0.24249107605E+02 -0.12669576436E+02 -0.52534655591E+01  0.27859222657E+02  0.00000000000E+00 0. -1.
</event>
<event>
 7    1  0.2318319E-009  0.4778726E+02  0.7816164E-02  0.1312668E+00
        -11   -1    0    0    0    0  0.00000000000E+00  0.00000000000E+00  0.45593999997E+02  0.45594000000E+02  0.51100000000E-03 0.  1.
         11   -1    0    0    0    0 -0.00000000000E+00 -0.00000000000E+00 -0.45593999997E+02  0.45594000000E+02  0.51100000000E-03 0. -1.
    9900012    2    1    2    0    0  0.33708719540E+02  0.27088850725E+02 -0.36797125605E+01  0.47787263933E+02  0.19999967577E+02 0.  0.
         12    1    1    2    0    0 -0.33708719540E+02 -0.27088850725E+02  0.36797125605E+01  0.43400736067E+02  0.00000000000E+00 0. -1.
         11    1    3    3    0    0  0.22274945855E+01  0.17892494805E+01  0.10157258348E+01  0.30323002926E+01  0.51100000000E-03 0. -1.
        -11    1    3    3    0    0  0.78261943883E+01  0.14224681845E+02 -0.85559401132E+01  0.18351975471E+02  0.51100000000E-03 0.  1.
        -12    1    3    3    0    0  0.23655030566E+02  0.11074919399E+02  0.38605017179E+01  0.26402988170E+02  0.00000000000E+00 0.  1.
</event>
<event>
 7    1  0.2318319E-009  0.4778725E+02  0.7816164E-02  0.1312668E+00
        -11   -1    0    0    0    0  0.00000000000E+00  0.00000000000E+00  0.45593999997E+02  0.45594000000E+02  0.51100000000E-03 0. -1.
         11   -1    0    0    0    0 -0.00000000000E+00 -0.00000000000E+00 -0.45593999997E+02  0.45594000000E+02  0.51100000000E-03 0.  1.
    9900012    2    1    2    0    0  0.12612810858E+02  0.21480695435E+02 -0.35540422884E+02  0.47787251932E+02  0.19999912857E+02 0.  0.
         12    1    1    2    0    0 -0.12612810858E+02 -0.21480695435E+02  0.35540422884E+02  0.43400748068E+02  0.00000000000E+00 0. -1.
         11    1    3    3    0    0  0.10165481762E+01  0.78115303906E+01 -0.47520863686E+01  0.91997664293E+01  0.51100000000E-03 0.  1.
        -11    1    3    3    0    0  0.22497584137E+01 -0.42209558697E-01  0.12007960380E+01  0.25505109199E+01  0.51100000000E-03 0. -1.
        -12    1    3    3    0    0  0.93465042681E+01  0.13711374603E+02 -0.31989132553E+02  0.36036974583E+02  0.00000000000E+00 0.  1.
</event>
<event>
 7    1  0.2318319E-009  0.4778727E+02  0.7816164E-02  0.1312668E+00
        -11   -1    0    0    0    0  0.00000000000E+00  0.00000000000E+00  0.45593999997E+02  0.45594000000E+02  0.51100000000E-03 0.  1.
         11   -1    0    0    0    0 -0.00000000000E+00 -0.00000000000E+00 -0.45593999997E+02  0.45594000000E+02  0.51100000000E-03 0. -1.
    9900012    2    1    2    0    0  0.93219980567E+01  0.21919864076E+02  0.36280064232E+02  0.47787272477E+02  0.20000006530E+02 0.  0.
         12    1    1    2    0    0 -0.93219980567E+01 -0.21919864076E+02 -0.36280064232E+02  0.43400727523E+02  0.00000000000E+00 0. -1.
         11    1    3    3    0    0  0.20602904166E+01  0.44042121760E+01  0.12121171097E+02  0.13060040985E+02  0.51100000000E-03 0. -1.
        -11    1    3    3    0    0  0.39594777632E+01  0.17165781711E+02  0.25625762279E+02  0.31096964781E+02  0.51100000000E-03 0.  1.
         12    1    3    3    0    0  0.33022298769E+01  0.34987018923E+00 -0.14668691446E+01  0.36302667116E+01  0.00000000000E+00 0. -1.
</event>
<event>
 7    1  0.2318319E-009  0.4778727E+02  0.7816164E-02  0.1312668E+00
        -11   -1    0    0    0    0  0.00000000000E+00  0.00000000000E+00  0.45593999997E+02  0.45594000000E+02  0.51100000000E-03 0.  1.
         11   -1    0    0    0    0 -0.00000000000E+00 -0.00000000000E+00 -0.45593999997E+02  0.45594000000E+02  0.51100000000E-03 0. -1.
    9900012    2    1    2    0    0  0.30314999445E+02  0.28240441825E+02  0.12926768942E+02  0.47787273035E+02  0.20000009074E+02 0.  0.
         12    1    1    2    0    0 -0.30314999445E+02 -0.28240441825E+02 -0.12926768942E+02  0.43400726965E+02  0.00000000000E+00 0. -1.
         11    1    3    3    0    0  0.20761674721E+01  0.33947588793E+01 -0.41615069062E+01  0.57578641189E+01  0.51100000000E-03 0. -1.
        -11    1    3    3    0    0  0.78146861254E+01  0.73013545202E+01  0.11891790350E+01  0.10760726932E+02  0.51100000000E-03 0.  1.
         12    1    3    3    0    0  0.20424145848E+02  0.17544328425E+02  0.15899096814E+02  0.31268681984E+02  0.00000000000E+00 0. -1.
</event>
<event>
 7    1  0.2318319E-009  0.4778727E+02  0.7816164E-02  0.1312668E+00
        -11   -1    0    0    0    0  0.00000000000E+00  0.00000000000E+00  0.45593999997E+02  0.45594000000E+02  0.51100000000E-03 0.  1.
         11   -1    0    0    0    0 -0.00000000000E+00 -0.00000000000E+00 -0.45593999997E+02  0.45594000000E+02  0.51100000000E-03 0. -1.
    9900012    2    1    2    0    0  0.23730002846E+02  0.39778159155E+01  0.36120453322E+02  0.47787271864E+02  0.20000003738E+02 0.  0.
         12    1    1    2    0    0 -0.23730002846E+02 -0.39778159155E+01 -0.36120453322E+02  0.43400728136E+02  0.00000000000E+00 0. -1.
         11    1    3    3    0    0 -0.28681883464E+01  0.11140725217E+01  0.35347250464E+00  0.30971930916E+01  0.51100000000E-03 0. -1.
        -11    1    3    3    0    0  0.22675628569E+01  0.97806831893E-01  0.37324003440E+01  0.43683200518E+01  0.51100000000E-03 0.  1.
         12    1    3    3    0    0  0.24330628335E+02  0.27659365619E+01  0.32034580473E+02  0.40321758721E+02  0.00000000000E+00 0. -1.
</event>
<event>
 7    1  0.2318319E-009  0.4778727E+02  0.7816164E-02  0.1312668E+00
        -11   -1    0    0    0    0  0.00000000000E+00  0.00000000000E+00  0.45593999997E+02  0.45594000000E+02  0.51100000000E-03 0.  1.
         11   -1    0    0    0    0 -0.00000000000E+00 -0.00000000000E+00 -0.45593999997E+02  0.45594000000E+02  0.51100000000E-03 0. -1.
    9900012    2    1    2    0    0  0.36095915334E+02 -0.25815115808E+01  0.23959213329E+02  0.47787271790E+02  0.20000003399E+02 0.  0.
         12    1    1    2    0    0 -0.36095915334E+02  0.25815115808E+01 -0.23959213329E+02  0.43400728210E+02  0.00000000000E+00 0. -1.
         11    1    3    3    0    0  0.44746924854E+01 -0.41136361446E+01  0.72751690833E+01  0.94801350529E+01  0.51100000000E-03 0. -1.
        -11    1    3    3    0    0  0.10013042376E+02 -0.57233998503E+01  0.73497800686E+01  0.13676168717E+02  0.51100000000E-03 0.  1.
        -12    1    3    3    0    0  0.21608180472E+02  0.72555244141E+01  0.93342641774E+01  0.24630968020E+02  0.00000000000E+00 0.  1.
</event>
<event>
 7    1  0.2318319E-009  0.4778727E+02  0.7816164E-02  0.1312668E+00
        -11   -1    0    0    0    0  0.00000000000E+00  0.00000000000E+00  0.45593999997E+02  0.45594000000E+02  0.51100000000E-03 0.  1.
         11   -1    0    0    0    0 -0.00000000000E+00 -0.00000000000E+00 -0.45593999997E+02  0.45594000000E+02  0.51100000000E-03 0. -1.
    9900012    2    1    2    0    0 -0.25134397852E+02 -0.32792883810E+02  0.13285781016E+02  0.47787272343E+02  0.20000005923E+02 0.  0.
         12    1    1    2    0    0  0.25134397852E+02  0.32792883810E+02 -0.13285781016E+02  0.43400727657E+02  0.00000000000E+00 0. -1.
         11    1    3    3    0    0 -0.53541763757E+01 -0.59075894520E+00  0.97248099896E-01  0.53875465889E+01  0.51100000000E-03 0. -1.
        -11    1    3    3    0    0 -0.45023849820E+01 -0.28665506042E+01  0.69136950049E+01  0.87342865636E+01  0.51100000000E-03 0.  1.
         12    1    3    3    0    0 -0.15277836494E+02 -0.29335574260E+02  0.62748379107E+01  0.33665439191E+02  0.00000000000E+00 0. -1.
</event>
<event>
 7    1  0.2318319E-009  0.4778727E+02  0.7816164E-02  0.1312668E+00
        -11   -1    0    0    0    0  0.00000000000E+00  0.00000000000E+00  0.45593999997E+02  0.45594000000E+02  0.51100000000E-03 0.  1.
         11   -1    0    0    0    0 -0.00000000000E+00 -0.00000000000E+00 -0.45593999997E+02  0.45594000000E+02  0.51100000000E-03 0. -1.
    9900012    2    1    2    0    0 -0.41985015151E+02 -0.10036968940E+02 -0.44878390326E+01  0.47787274869E+02  0.20000017438E+02 0.  0.
         12    1    1    2    0    0  0.41985015151E+02  0.10036968940E+02  0.44878390326E+01  0.43400725131E+02  0.00000000000E+00 0. -1.
         11    1    3    3    0    0  0.25928655304E+00  0.93912022610E+00  0.24809717486E+01  0.26654075475E+01  0.51100000000E-03 0. -1.
        -11    1    3    3    0    0 -0.55388932948E+01 -0.48497293560E+01 -0.14099295750E+01  0.74958065227E+01  0.51100000000E-03 0.  1.
        -12    1    3    3    0    0 -0.36705408409E+02 -0.61263598101E+01 -0.55588812062E+01  0.37626060799E+02  0.00000000000E+00 0.  1.
</event>
<event>
 7    1  0.2318319E-009  0.4778728E+02  0.7816164E-02  0.1312668E+00
        -11   -1    0    0    0    0  0.00000000000E+00  0.00000000000E+00  0.45593999997E+02  0.45594000000E+02  0.51100000000E-03 0. -1.
         11   -1    0    0    0    0 -0.00000000000E+00 -0.00000000000E+00 -0.45593999997E+02  0.45594000000E+02  0.51100000000E-03 0.  1.
    9900012    2    1    2    0    0 -0.43153941370E+02 -0.85525080321E+00  0.45418932522E+01  0.47787275305E+02  0.20000019426E+02 0.  0.
         12    1    1    2    0    0  0.43153941370E+02  0.85525080321E+00 -0.45418932522E+01  0.43400724695E+02  0.00000000000E+00 0. -1.
         11    1    3    3    0    0 -0.74572510469E+01  0.32888708490E+01  0.44543682100E+01  0.92880924333E+01  0.51100000000E-03 0. -1.
        -11    1    3    3    0    0  0.13009054047E-01 -0.26037248769E+01 -0.86472424394E+00  0.27435926719E+01  0.51100000000E-03 0.  1.
        -12    1    3    3    0    0 -0.35709699377E+02 -0.15403967753E+01  0.95224928616E+00  0.35755590200E+02  0.00000000000E+00 0.  1.
</event>
<event>
 7    1  0.2318319E-009  0.4778727E+02  0.7816164E-02  0.1312668E+00
        -11   -1    0    0    0    0  0.00000000000E+00  0.00000000000E+00  0.45593999997E+02  0.45594000000E+02  0.51100000000E-03 0.  1.
         11   -1    0    0    0    0 -0.00000000000E+00 -0.00000000000E+00 -0.45593999997E+02  0.45594000000E+02  0.51100000000E-03 0. -1.
    9900012    2    1    2    0    0 -0.41438637609E+02 -0.25274737335E+01 -0.12652043501E+02  0.47787274026E+02  0.20000013593E+02 0.  0.
         12    1    1    2    0    0  0.41438637609E+02  0.25274737335E+01  0.12652043501E+02  0.43400725974E+02  0.00000000000E+00 0. -1.
         11    1    3    3    0    0 -0.20837283934E+02 -0.89568127332E+01 -0.32147629715E-01  0.22680783272E+02  0.51100000000E-03 0. -1.
        -11    1    3    3    0    0 -0.38811268857E+01  0.91457885560E+00 -0.13852963080E+01  0.42212138667E+01  0.51100000000E-03 0.  1.
         12    1    3    3    0    0 -0.16720226789E+02  0.55147601440E+01 -0.11234599563E+02  0.20885276887E+02  0.00000000000E+00 0. -1.
</event>
<event>
 7    1  0.2318319E-009  0.4778727E+02  0.7816164E-02  0.1312668E+00
        -11   -1    0    0    0    0  0.00000000000E+00  0.00000000000E+00  0.45593999997E+02  0.45594000000E+02  0.51100000000E-03 0. -1.
         11   -1    0    0    0    0 -0.00000000000E+00 -0.00000000000E+00 -0.45593999997E+02  0.45594000000E+02  0.51100000000E-03 0.  1.
    9900012    2    1    2    0    0 -0.15246284536E+01  0.38835906470E+02  0.19315046553E+02  0.47787272511E+02  0.20000006685E+02 0.  0.
         12    1    1    2    0    0  0.15246284536E+01 -0.38835906470E+02 -0.19315046553E+02  0.43400727489E+02  0.00000000000E+00 0. -1.
         11    1    3    3    0    0 -0.41956510151E+01  0.24786954964E+01  0.70879557060E+00  0.49244096323E+01  0.51100000000E-03 0. -1.
        -11    1    3    3    0    0 -0.67293004332E+00  0.12045109260E+02 -0.33235720198E-02  0.12063892541E+02  0.51100000000E-03 0.  1.
         12    1    3    3    0    0  0.33439526048E+01  0.24312101713E+02  0.18609574555E+02  0.30798970337E+02  0.00000000000E+00 0. -1.
</event>
<event>
 7    1  0.2318319E-009  0.4778727E+02  0.7816164E-02  0.1312668E+00
        -11   -1    0    0    0    0  0.00000000000E+00  0.00000000000E+00  0.45593999997E+02  0.45594000000E+02  0.51100000000E-03 0.  1.
         11   -1    0    0    0    0 -0.00000000000E+00 -0.00000000000E+00 -0.45593999997E+02  0.45594000000E+02  0.51100000000E-03 0. -1.
    9900012    2    1    2    0    0  0.17536417866E+02  0.85964238785E+01  0.38758212587E+02  0.47787268462E+02  0.19999988226E+02 0.  0.
         12    1    1    2    0    0 -0.17536417866E+02 -0.85964238785E+01 -0.38758212587E+02  0.43400731538E+02  0.00000000000E+00 0. -1.
         11    1    3    3    0    0  0.28159007127E+01  0.60672455791E+01  0.82490531661E+01  0.10620152736E+02  0.51100000000E-03 0. -1.
        -11    1    3    3    0    0  0.12511632030E+02  0.81079736574E+01  0.18653354545E+02  0.23879443229E+02  0.51100000000E-03 0.  1.
         12    1    3    3    0    0  0.22088851239E+01 -0.55787953580E+01  0.11855804876E+02  0.13287672497E+02  0.00000000000E+00 0. -1.
</event>
<event>
 7    1  0.2318319E-009  0.4778727E+02  0.7816164E-02  0.1312668E+00
        -11   -1    0    0    0    0  0.00000000000E+00  0.00000000000E+00  0.45593999997E+02  0.45594000000E+02  0.51100000000E-03 0. -1.
         11   -1    0    0    0    0 -0.00000000000E+00 -0.00000000000E+00 -0.45593999997E+02  0.45594000000E+02  0.51100000000E-03 0.  1.
    9900012    2    1    2    0    0 -0.27235479425E+02  0.20415193749E+01 -0.33729574301E+02  0.47787270474E+02  0.19999997398E+02 0.  0.
         12    1    1    2    0    0  0.27235479425E+02 -0.20415193749E+01  0.33729574301E+02  0.43400729526E+02  0.00000000000E+00 0. -1.
         11    1    3    3    0    0 -0.10913034345E+02  0.22328065529E+01 -0.26949997272E+01  0.11460487228E+02  0.51100000000E-03 0. -1.
        -11    1    3    3    0    0 -0.10711634798E+02  0.30610185246E+01 -0.12777614785E+02  0.16952179633E+02  0.51100000000E-03 0.  1.
         12    1    3    3    0    0 -0.56108102824E+01 -0.32523057026E+01 -0.18256959789E+02  0.19374603613E+02  0.00000000000E+00 0. -1.
</event>
<event>
 7    1  0.2318319E-009  0.4778727E+02  0.7816164E-02  0.1312668E+00
        -11   -1    0    0    0    0  0.00000000000E+00  0.00000000000E+00  0.45593999997E+02  0.45594000000E+02  0.51100000000E-03 0.  1.
         11   -1    0    0    0    0 -0.00000000000E+00 -0.00000000000E+00 -0.45593999997E+02  0.45594000000E+02  0.51100000000E-03 0. -1.
    9900012    2    1    2    0    0 -0.10486431528E+01 -0.64251187082E+01  0.42909686479E+02  0.47787274239E+02  0.20000014564E+02 0.  0.
         12    1    1    2    0    0  0.10486431528E+01  0.64251187082E+01 -0.42909686479E+02  0.43400725761E+02  0.00000000000E+00 0. -1.
         11    1    3    3    0    0  0.54780872032E-01  0.31767992650E+01  0.43834882413E+01  0.54138732842E+01  0.51100000000E-03 0. -1.
        -11    1    3    3    0    0 -0.38894589143E+01 -0.11108900013E+02  0.37057839854E+02  0.38882117292E+02  0.51100000000E-03 0.  1.
         12    1    3    3    0    0  0.27860348895E+01  0.15069820396E+01  0.14683583834E+01  0.34912836630E+01  0.00000000000E+00 0. -1.
</event>
<event>
 7    1  0.2318319E-009  0.4778728E+02  0.7816164E-02  0.1312668E+00
        -11   -1    0    0    0    0  0.00000000000E+00  0.00000000000E+00  0.45593999997E+02  0.45594000000E+02  0.51100000000E-03 0.  1.
         11   -1    0    0    0    0 -0.00000000000E+00 -0.00000000000E+00 -0.45593999997E+02  0.45594000000E+02  0.51100000000E-03 0. -1.
    9900012    2    1    2    0    0 -0.11157123334E+02 -0.28157193374E+02  0.31085588851E+02  0.47787276804E+02  0.20000026258E+02 0.  0.
         12    1    1    2    0    0  0.11157123334E+02  0.28157193374E+02 -0.31085588851E+02  0.43400723196E+02  0.00000000000E+00 0. -1.
         11    1    3    3    0    0 -0.52792629307E+01 -0.17289626513E+01  0.58420743521E+01  0.80616227856E+01  0.51100000000E-03 0. -1.
        -11    1    3    3    0    0 -0.41736904430E+01 -0.13395883575E+02  0.37356238341E+01  0.14519789060E+02  0.51100000000E-03 0.  1.
        -12    1    3    3    0    0 -0.17041699605E+01 -0.13032347148E+02  0.21507890665E+02  0.25205864958E+02  0.00000000000E+00 0.  1.
</event>
<event>
 7    1  0.2318319E-009  0.4778727E+02  0.7816164E-02  0.1312668E+00
        -11   -1    0    0    0    0  0.00000000000E+00  0.00000000000E+00  0.45593999997E+02  0.45594000000E+02  0.51100000000E-03 0.  1.
         11   -1    0    0    0    0 -0.00000000000E+00 -0.00000000000E+00 -0.45593999997E+02  0.45594000000E+02  0.51100000000E-03 0. -1.
    9900012    2    1    2    0    0  0.15717366586E+02  0.29570692485E+02  0.27607276861E+02  0.47787271871E+02  0.20000003767E+02 0.  0.
         12    1    1    2    0    0 -0.15717366586E+02 -0.29570692485E+02 -0.27607276861E+02  0.43400728129E+02  0.00000000000E+00 0. -1.
         11    1    3    3    0    0  0.10154934825E+01  0.13943137611E+01  0.48662771690E+01  0.51629440849E+01  0.51100000000E-03 0. -1.
        -11    1    3    3    0    0 -0.14968756753E+01  0.73277762404E+01 -0.43714262311E+00  0.74918646110E+01  0.51100000000E-03 0.  1.
        -12    1    3    3    0    0  0.16198748779E+02  0.20848602484E+02  0.23178142315E+02  0.35132463175E+02  0.00000000000E+00 0.  1.
</event>
<event>
 7    1  0.2318319E-009  0.4778727E+02  0.7816164E-02  0.1312668E+00
        -11   -1    0    0    0    0  0.00000000000E+00  0.00000000000E+00  0.45593999997E+02  0.45594000000E+02  0.51100000000E-03 0.  1.
         11   -1    0    0    0    0 -0.00000000000E+00 -0.00000000000E+00 -0.45593999997E+02  0.45594000000E+02  0.51100000000E-03 0. -1.
    9900012    2    1    2    0    0 -0.24807021832E+02 -0.34426979581E+02 -0.91114237256E+01  0.47787270772E+02  0.19999998758E+02 0.  0.
         12    1    1    2    0    0  0.24807021832E+02  0.34426979581E+02  0.91114237256E+01  0.43400729228E+02  0.00000000000E+00 0. -1.
         11    1    3    3    0    0 -0.23311932895E+02 -0.20004288101E+02 -0.19260117328E+01  0.30778682220E+02  0.51100000000E-03 0.  1.
        -11    1    3    3    0    0 -0.25048049633E+01 -0.31015898230E+01 -0.12028936825E+01  0.41642359212E+01  0.51100000000E-03 0. -1.
        -12    1    3    3    0    0  0.10097160267E+01 -0.11321101657E+02 -0.59825183103E+01  0.12844352631E+02  0.00000000000E+00 0.  1.
</event>
<event>
 7    1  0.2318319E-009  0.4778727E+02  0.7816164E-02  0.1312668E+00
        -11   -1    0    0    0    0  0.00000000000E+00  0.00000000000E+00  0.45593999997E+02  0.45594000000E+02  0.51100000000E-03 0. -1.
         11   -1    0    0    0    0 -0.00000000000E+00 -0.00000000000E+00 -0.45593999997E+02  0.45594000000E+02  0.51100000000E-03 0.  1.
    9900012    2    1    2    0    0  0.17827882311E+02 -0.30612052681E+02 -0.25073733182E+02  0.47787271288E+02  0.20000001112E+02 0.  0.
         12    1    1    2    0    0 -0.17827882311E+02  0.30612052681E+02  0.25073733182E+02  0.43400728712E+02  0.00000000000E+00 0. -1.
         11    1    3    3    0    0 -0.38391780170E+01 -0.36443853750E+01 -0.28121895546E+01  0.59941006798E+01  0.51100000000E-03 0. -1.
        -11    1    3    3    0    0  0.45350717915E+01 -0.10603642779E+02 -0.91049647129E+01  0.14693689088E+02  0.51100000000E-03 0.  1.
        -12    1    3    3    0    0  0.17131988537E+02 -0.16364024527E+02 -0.13156578914E+02  0.27099481520E+02  0.00000000000E+00 0.  1.
</event>
<event>
 7    1  0.2318319E-009  0.4778727E+02  0.7816164E-02  0.1312668E+00
        -11   -1    0    0    0    0  0.00000000000E+00  0.00000000000E+00  0.45593999997E+02  0.45594000000E+02  0.51100000000E-03 0. -1.
         11   -1    0    0    0    0 -0.00000000000E+00 -0.00000000000E+00 -0.45593999997E+02  0.45594000000E+02  0.51100000000E-03 0.  1.
    9900012    2    1    2    0    0  0.18726470470E+02 -0.17347826688E+02 -0.35099794848E+02  0.47787269759E+02  0.19999994140E+02 0.  0.
         12    1    1    2    0    0 -0.18726470470E+02  0.17347826688E+02  0.35099794848E+02  0.43400730241E+02  0.00000000000E+00 0. -1.
         11    1    3    3    0    0  0.10069976709E+02 -0.17402601956E+02 -0.16908322530E+02  0.26270636779E+02  0.51100000000E-03 0. -1.
        -11    1    3    3    0    0 -0.68236612542E+00 -0.11559382130E+01 -0.57979288074E+01  0.59512851888E+01  0.51100000000E-03 0.  1.
        -12    1    3    3    0    0  0.93388598864E+01  0.12107134808E+01 -0.12393543511E+02  0.15565347791E+02  0.00000000000E+00 0.  1.
</event>
<event>
 7    1  0.2318319E-009  0.4778727E+02  0.7816164E-02  0.1312668E+00
        -11   -1    0    0    0    0  0.00000000000E+00  0.00000000000E+00  0.45593999997E+02  0.45594000000E+02  0.51100000000E-03 0.  1.
         11   -1    0    0    0    0 -0.00000000000E+00 -0.00000000000E+00 -0.45593999997E+02  0.45594000000E+02  0.51100000000E-03 0. -1.
    9900012    2    1    2    0    0  0.28291712767E+02 -0.12850527132E+02  0.30299611881E+02  0.47787267990E+02  0.19999986075E+02 0.  0.
         12    1    1    2    0    0 -0.28291712767E+02  0.12850527132E+02 -0.30299611881E+02  0.43400732010E+02  0.00000000000E+00 0. -1.
         11    1    3    3    0    0  0.48900772004E+01 -0.14028307035E+01  0.13375050331E+02  0.14309883320E+02  0.51100000000E-03 0. -1.
        -11    1    3    3    0    0  0.21334255211E+01  0.25415575504E+01  0.10663986019E+01  0.34854304576E+01  0.51100000000E-03 0.  1.
         12    1    3    3    0    0  0.21268210046E+02 -0.13989253979E+02  0.15858162948E+02  0.29991954213E+02  0.00000000000E+00 0. -1.
</event>
<event>
 7    1  0.2318319E-009  0.4778727E+02  0.7816164E-02  0.1312668E+00
        -11   -1    0    0    0    0  0.00000000000E+00  0.00000000000E+00  0.45593999997E+02  0.45594000000E+02  0.51100000000E-03 0.  1.
         11   -1    0    0    0    0 -0.00000000000E+00 -0.00000000000E+00 -0.45593999997E+02  0.45594000000E+02  0.51100000000E-03 0. -1.
    9900012    2    1    2    0    0  0.18300451606E+01 -0.30523892596E+02  0.30798807290E+02  0.47787267114E+02  0.19999982081E+02 0.  0.
         12    1    1    2    0    0 -0.18300451606E+01  0.30523892596E+02 -0.30798807290E+02  0.43400732886E+02  0.00000000000E+00 0. -1.
         11    1    3    3    0    0  0.16451306096E+01 -0.31499101791E+01  0.14501126957E+02  0.14930206701E+02  0.51100000000E-03 0. -1.
        -11    1    3    3    0    0  0.19659596330E+01 -0.47015529941E+01  0.60566238425E+01  0.79153199851E+01  0.51100000000E-03 0.  1.
        -12    1    3    3    0    0 -0.17810450820E+01 -0.22672429423E+02  0.10241056490E+02  0.24941740428E+02  0.00000000000E+00 0.  1.
</event>
<event>
 7    1  0.2318319E-009  0.4778727E+02  0.7816164E-02  0.1312668E+00
        -11   -1    0    0    0    0  0.00000000000E+00  0.00000000000E+00  0.45593999997E+02  0.45594000000E+02  0.51100000000E-03 0.  1.
         11   -1    0    0    0    0 -0.00000000000E+00 -0.00000000000E+00 -0.45593999997E+02  0.45594000000E+02  0.51100000000E-03 0. -1.
    9900012    2    1    2    0    0 -0.26279386542E+02 -0.30915268520E+02  0.15403356340E+02  0.47787269923E+02  0.19999994887E+02 0.  0.
         12    1    1    2    0    0  0.26279386542E+02  0.30915268520E+02 -0.15403356340E+02  0.43400730077E+02  0.00000000000E+00 0. -1.
         11    1    3    3    0    0 -0.13810448697E+02 -0.14744384402E+02  0.26994037393E+01  0.20381661989E+02  0.51100000000E-03 0. -1.
        -11    1    3    3    0    0 -0.88650549037E+01 -0.17077014666E+02  0.67566306320E+01  0.20392785149E+02  0.51100000000E-03 0.  1.
        -12    1    3    3    0    0 -0.36038829408E+01  0.90613054813E+00  0.59473219690E+01  0.70128227858E+01  0.00000000000E+00 0.  1.
</event>
<event>
 7    1  0.2318319E-009  0.4778727E+02  0.7816164E-02  0.1312668E+00
        -11   -1    0    0    0    0  0.00000000000E+00  0.00000000000E+00  0.45593999997E+02  0.45594000000E+02  0.51100000000E-03 0.  1.
         11   -1    0    0    0    0 -0.00000000000E+00 -0.00000000000E+00 -0.45593999997E+02  0.45594000000E+02  0.51100000000E-03 0. -1.
    9900012    2    1    2    0    0 -0.29715616842E+02 -0.28743840955E+02  0.13205943704E+02  0.47787271593E+02  0.20000002500E+02 0.  0.
         12    1    1    2    0    0  0.29715616842E+02  0.28743840955E+02 -0.13205943704E+02  0.43400728407E+02  0.00000000000E+00 0. -1.
         11    1    3    3    0    0 -0.13326178933E+02 -0.81832931457E+01  0.73572525304E+01  0.17282433183E+02  0.51100000000E-03 0. -1.
        -11    1    3    3    0    0 -0.14404934469E+02 -0.73605531358E+01  0.57133260345E+01  0.17155814587E+02  0.51100000000E-03 0.  1.
        -12    1    3    3    0    0 -0.19845034398E+01 -0.13199994674E+02  0.13536513950E+00  0.13349023823E+02  0.00000000000E+00 0.  1.
</event>
<event>
 7    1  0.2318319E-009  0.4778727E+02  0.7816164E-02  0.1312668E+00
        -11   -1    0    0    0    0  0.00000000000E+00  0.00000000000E+00  0.45593999997E+02  0.45594000000E+02  0.51100000000E-03 0.  1.
         11   -1    0    0    0    0 -0.00000000000E+00 -0.00000000000E+00 -0.45593999997E+02  0.45594000000E+02  0.51100000000E-03 0. -1.
    9900012    2    1    2    0    0 -0.12537432351E+02  0.34519502433E+02  0.23126606743E+02  0.47787271923E+02  0.20000004004E+02 0.  0.
         12    1    1    2    0    0  0.12537432351E+02 -0.34519502433E+02 -0.23126606743E+02  0.43400728077E+02  0.00000000000E+00 0. -1.
         11    1    3    3    0    0 -0.10472819708E+02  0.70534372340E+01  0.65472059323E+01  0.14223109197E+02  0.51100000000E-03 0. -1.
        -11    1    3    3    0    0  0.38131433091E-01  0.41245778423E+01  0.72465103185E+01  0.83381957545E+01  0.51100000000E-03 0.  1.
        -12    1    3    3    0    0 -0.21027440767E+01  0.23341487357E+02  0.93328904919E+01  0.25225966971E+02  0.00000000000E+00 0.  1.
</event>
<event>
 7    1  0.2318319E-009  0.4778726E+02  0.7816164E-02  0.1312668E+00
        -11   -1    0    0    0    0  0.00000000000E+00  0.00000000000E+00  0.45593999997E+02  0.45594000000E+02  0.51100000000E-03 0.  1.
         11   -1    0    0    0    0 -0.00000000000E+00 -0.00000000000E+00 -0.45593999997E+02  0.45594000000E+02  0.51100000000E-03 0. -1.
    9900012    2    1    2    0    0 -0.39512487068E+02  0.51674731717E+00 -0.17947713071E+02  0.47787261912E+02  0.19999958363E+02 0.  0.
         12    1    1    2    0    0  0.39512487068E+02 -0.51674731717E+00  0.17947713071E+02  0.43400738088E+02  0.00000000000E+00 0. -1.
         11    1    3    3    0    0  0.47809812021E+00  0.40653449183E+00 -0.10428081387E+01  0.12170855273E+01  0.51100000000E-03 0. -1.
        -11    1    3    3    0    0 -0.37293541950E+02 -0.47643838381E+01 -0.13056631835E+02  0.39799287175E+02  0.51100000000E-03 0.  1.
        -12    1    3    3    0    0 -0.26970432380E+01  0.48745966635E+01 -0.38482730973E+01  0.67708892098E+01  0.00000000000E+00 0.  1.
</event>
<event>
 7    1  0.2318319E-009  0.4778727E+02  0.7816164E-02  0.1312668E+00
        -11   -1    0    0    0    0  0.00000000000E+00  0.00000000000E+00  0.45593999997E+02  0.45594000000E+02  0.51100000000E-03 0.  1.
         11   -1    0    0    0    0 -0.00000000000E+00 -0.00000000000E+00 -0.45593999997E+02  0.45594000000E+02  0.51100000000E-03 0. -1.
    9900012    2    1    2    0    0  0.92673110387E+01 -0.97877822746E+01  0.41254571612E+02  0.47787269423E+02  0.19999992605E+02 0.  0.
         12    1    1    2    0    0 -0.92673110387E+01  0.97877822746E+01 -0.41254571612E+02  0.43400730577E+02  0.00000000000E+00 0. -1.
         11    1    3    3    0    0  0.36959155154E+01  0.21552669040E+01  0.12759520588E+02  0.13457723909E+02  0.51100000000E-03 0. -1.
        -11    1    3    3    0    0 -0.92558280378E+00 -0.38499092395E+01  0.21386952305E+02  0.21750407671E+02  0.51100000000E-03 0.  1.
        -12    1    3    3    0    0  0.64969783271E+01 -0.80931399391E+01  0.71080987190E+01  0.12579137842E+02  0.00000000000E+00 0.  1.
</event>
<event>
 7    1  0.2318319E-009  0.4778726E+02  0.7816164E-02  0.1312668E+00
        -11   -1    0    0    0    0  0.00000000000E+00  0.00000000000E+00  0.45593999997E+02  0.45594000000E+02  0.51100000000E-03 0. -1.
         11   -1    0    0    0    0 -0.00000000000E+00 -0.00000000000E+00 -0.45593999997E+02  0.45594000000E+02  0.51100000000E-03 0.  1.
    9900012    2    1    2    0    0  0.31010510575E+02 -0.29684207377E+02  0.63890769653E+01  0.47787259935E+02  0.19999949346E+02 0.  0.
         12    1    1    2    0    0 -0.31010510575E+02  0.29684207377E+02 -0.63890769653E+01  0.43400740065E+02  0.00000000000E+00 0. -1.
         11    1    3    3    0    0  0.96698499565E+00 -0.59044240409E+00  0.30554982979E+01  0.32587961464E+01  0.51100000000E-03 0. -1.
        -11    1    3    3    0    0  0.74288670661E+01 -0.13513540363E+02  0.67902822977E+01  0.16849681688E+02  0.51100000000E-03 0.  1.
        -12    1    3    3    0    0  0.22614658514E+02 -0.15580224610E+02 -0.34567036303E+01  0.27678782100E+02  0.00000000000E+00 0.  1.
</event>
<event>
 7    1  0.2318319E-009  0.4778727E+02  0.7816164E-02  0.1312668E+00
        -11   -1    0    0    0    0  0.00000000000E+00  0.00000000000E+00  0.45593999997E+02  0.45594000000E+02  0.51100000000E-03 0.  1.
         11   -1    0    0    0    0 -0.00000000000E+00 -0.00000000000E+00 -0.45593999997E+02  0.45594000000E+02  0.51100000000E-03 0. -1.
    9900012    2    1    2    0    0 -0.20552184779E+00  0.42539245931E+02  0.86019493210E+01  0.47787271714E+02  0.20000003053E+02 0.  0.
         12    1    1    2    0    0  0.20552184779E+00 -0.42539245931E+02 -0.86019493210E+01  0.43400728286E+02  0.00000000000E+00 0. -1.
         11    1    3    3    0    0 -0.31841801757E+01  0.59808761828E+01 -0.84239949245E+00  0.68278488905E+01  0.51100000000E-03 0. -1.
        -11    1    3    3    0    0 -0.11371197961E+01  0.70973959214E+01 -0.40988522804E+01  0.82744583251E+01  0.51100000000E-03 0.  1.
        -12    1    3    3    0    0  0.41157781240E+01  0.29460973827E+02  0.13543201094E+02  0.32684964499E+02  0.00000000000E+00 0.  1.
</event>
<event>
 7    1  0.2318319E-009  0.4778727E+02  0.7816164E-02  0.1312668E+00
        -11   -1    0    0    0    0  0.00000000000E+00  0.00000000000E+00  0.45593999997E+02  0.45594000000E+02  0.51100000000E-03 0. -1.
         11   -1    0    0    0    0 -0.00000000000E+00 -0.00000000000E+00 -0.45593999997E+02  0.45594000000E+02  0.51100000000E-03 0.  1.
    9900012    2    1    2    0    0  0.17916148661E+02 -0.28261719331E+02 -0.27638925356E+02  0.47787270084E+02  0.19999995621E+02 0.  0.
         12    1    1    2    0    0 -0.17916148661E+02  0.28261719331E+02  0.27638925356E+02  0.43400729916E+02  0.00000000000E+00 0. -1.
         11    1    3    3    0    0  0.35958289783E+01 -0.61394859852E+01 -0.15422055606E+02  0.16984200705E+02  0.51100000000E-03 0. -1.
        -11    1    3    3    0    0 -0.80935390393E-01 -0.43008282736E+01 -0.53874641393E+01  0.68940876474E+01  0.51100000000E-03 0.  1.
        -12    1    3    3    0    0  0.14401255074E+02 -0.17821405072E+02 -0.68294056106E+01  0.23908981731E+02  0.00000000000E+00 0.  1.
</event>
<event>
 7    1  0.2318319E-009  0.4778727E+02  0.7816164E-02  0.1312668E+00
        -11   -1    0    0    0    0  0.00000000000E+00  0.00000000000E+00  0.45593999997E+02  0.45594000000E+02  0.51100000000E-03 0. -1.
         11   -1    0    0    0    0 -0.00000000000E+00 -0.00000000000E+00 -0.45593999997E+02  0.45594000000E+02  0.51100000000E-03 0.  1.
    9900012    2    1    2    0    0 -0.28332102691E+02  0.32011815628E+02 -0.74939235773E+01  0.47787271051E+02  0.20000000031E+02 0.  0.
         12    1    1    2    0    0  0.28332102691E+02 -0.32011815628E+02  0.74939235773E+01  0.43400728949E+02  0.00000000000E+00 0. -1.
         11    1    3    3    0    0 -0.14964548677E+02  0.10138029445E+02  0.30603070100E+01  0.18332562216E+02  0.51100000000E-03 0. -1.
        -11    1    3    3    0    0 -0.67659190614E+01  0.28448451013E+01 -0.32888565735E+01  0.80428466489E+01  0.51100000000E-03 0.  1.
        -12    1    3    3    0    0 -0.66016349525E+01  0.19028941082E+02 -0.72653740138E+01  0.21411862186E+02  0.00000000000E+00 0.  1.
</event>
<event>
 7    1  0.2318319E-009  0.4778727E+02  0.7816164E-02  0.1312668E+00
        -11   -1    0    0    0    0  0.00000000000E+00  0.00000000000E+00  0.45593999997E+02  0.45594000000E+02  0.51100000000E-03 0. -1.
         11   -1    0    0    0    0 -0.00000000000E+00 -0.00000000000E+00 -0.45593999997E+02  0.45594000000E+02  0.51100000000E-03 0.  1.
    9900012    2    1    2    0    0 -0.38463853329E+02 -0.11987728775E+02 -0.16138450653E+02  0.47787271393E+02  0.20000001591E+02 0.  0.
         12    1    1    2    0    0  0.38463853329E+02  0.11987728775E+02  0.16138450653E+02  0.43400728607E+02  0.00000000000E+00 0. -1.
         11    1    3    3    0    0 -0.66323309982E+01 -0.77697844664E+01 -0.74013672318E+01  0.12614975318E+02  0.51100000000E-03 0. -1.
        -11    1    3    3    0    0 -0.36354754159E+01  0.17296365217E+01 -0.45131284232E+01  0.60478634593E+01  0.51100000000E-03 0.  1.
        -12    1    3    3    0    0 -0.28196046915E+02 -0.59475808299E+01 -0.42239549978E+01  0.29124432616E+02  0.00000000000E+00 0.  1.
</event>
<event>
 7    1  0.2318319E-009  0.4778727E+02  0.7816164E-02  0.1312668E+00
        -11   -1    0    0    0    0  0.00000000000E+00  0.00000000000E+00  0.45593999997E+02  0.45594000000E+02  0.51100000000E-03 0. -1.
         11   -1    0    0    0    0 -0.00000000000E+00 -0.00000000000E+00 -0.45593999997E+02  0.45594000000E+02  0.51100000000E-03 0.  1.
    9900012    2    1    2    0    0  0.28545028707E+02 -0.15971482084E+02 -0.28525714948E+02  0.47787270546E+02  0.19999997729E+02 0.  0.
         12    1    1    2    0    0 -0.28545028707E+02  0.15971482084E+02  0.28525714948E+02  0.43400729454E+02  0.00000000000E+00 0. -1.
         11    1    3    3    0    0  0.61960043510E+01 -0.67269491236E+01 -0.74266412399E+01  0.11781227219E+02  0.51100000000E-03 0. -1.
        -11    1    3    3    0    0  0.20559992456E+02 -0.29113440593E+01 -0.20840934945E+02  0.29419955534E+02  0.51100000000E-03 0.  1.
        -12    1    3    3    0    0  0.17890319000E+01 -0.63331889007E+01 -0.25813876357E+00  0.65860877926E+01  0.00000000000E+00 0.  1.
</event>
<event>
 7    1  0.2318319E-009  0.4778727E+02  0.7816164E-02  0.1312668E+00
        -11   -1    0    0    0    0  0.00000000000E+00  0.00000000000E+00  0.45593999997E+02  0.45594000000E+02  0.51100000000E-03 0.  1.
         11   -1    0    0    0    0 -0.00000000000E+00 -0.00000000000E+00 -0.45593999997E+02  0.45594000000E+02  0.51100000000E-03 0. -1.
    9900012    2    1    2    0    0  0.84727962697E+01 -0.11262107767E+02  0.41048750119E+02  0.47787271500E+02  0.20000002077E+02 0.  0.
         12    1    1    2    0    0 -0.84727962697E+01  0.11262107767E+02 -0.41048750119E+02  0.43400728500E+02  0.00000000000E+00 0. -1.
         11    1    3    3    0    0  0.10963671653E+01 -0.26888406339E+01  0.14016033022E+01  0.32243413271E+01  0.51100000000E-03 0. -1.
        -11    1    3    3    0    0  0.87911222164E+01  0.14449854496E+01  0.26601143012E+02  0.28053388790E+02  0.51100000000E-03 0.  1.
         12    1    3    3    0    0 -0.14146931120E+01 -0.10018252582E+02  0.13046003805E+02  0.16509541383E+02  0.00000000000E+00 0. -1.
</event>
<event>
 7    1  0.2318319E-009  0.4778727E+02  0.7816164E-02  0.1312668E+00
        -11   -1    0    0    0    0  0.00000000000E+00  0.00000000000E+00  0.45593999997E+02  0.45594000000E+02  0.51100000000E-03 0.  1.
         11   -1    0    0    0    0 -0.00000000000E+00 -0.00000000000E+00 -0.45593999997E+02  0.45594000000E+02  0.51100000000E-03 0. -1.
    9900012    2    1    2    0    0 -0.78836561986E+01  0.11365370001E+02  0.41137567762E+02  0.47787272452E+02  0.20000006419E+02 0.  0.
         12    1    1    2    0    0  0.78836561986E+01 -0.11365370001E+02 -0.41137567762E+02  0.43400727548E+02  0.00000000000E+00 0. -1.
         11    1    3    3    0    0 -0.18051950182E+01  0.58531802665E+01  0.34721739606E+01  0.70409119125E+01  0.51100000000E-03 0. -1.
        -11    1    3    3    0    0  0.32830386383E+01 -0.13870675843E+01  0.56065191668E+01  0.66434446346E+01  0.51100000000E-03 0.  1.
        -12    1    3    3    0    0 -0.93614998187E+01  0.68992573188E+01  0.32058874634E+02  0.34102915905E+02  0.00000000000E+00 0.  1.
</event>
<event>
 7    1  0.2318319E-009  0.4778727E+02  0.7816164E-02  0.1312668E+00
        -11   -1    0    0    0    0  0.00000000000E+00  0.00000000000E+00  0.45593999997E+02  0.45594000000E+02  0.51100000000E-03 0.  1.
         11   -1    0    0    0    0 -0.00000000000E+00 -0.00000000000E+00 -0.45593999997E+02  0.45594000000E+02  0.51100000000E-03 0. -1.
    9900012    2    1    2    0    0  0.22743719328E+02 -0.22349462523E+02  0.29442285856E+02  0.47787269126E+02  0.19999991255E+02 0.  0.
         12    1    1    2    0    0 -0.22743719328E+02  0.22349462523E+02 -0.29442285856E+02  0.43400730874E+02  0.00000000000E+00 0. -1.
         11    1    3    3    0    0  0.52445789290E+01 -0.10049420554E+02  0.40528009980E+01  0.12038341156E+02  0.51100000000E-03 0. -1.
        -11    1    3    3    0    0  0.31938104745E+01 -0.38164451044E+01 -0.47438506262E+00  0.49990719169E+01  0.51100000000E-03 0.  1.
         12    1    3    3    0    0  0.14305329925E+02 -0.84835968647E+01  0.25863869921E+02  0.30749856053E+02  0.00000000000E+00 0. -1.
</event>
<event>
 7    1  0.2318319E-009  0.4778727E+02  0.7816164E-02  0.1312668E+00
        -11   -1    0    0    0    0  0.00000000000E+00  0.00000000000E+00  0.45593999997E+02  0.45594000000E+02  0.51100000000E-03 0. -1.
         11   -1    0    0    0    0 -0.00000000000E+00 -0.00000000000E+00 -0.45593999997E+02  0.45594000000E+02  0.51100000000E-03 0.  1.
    9900012    2    1    2    0    0 -0.38502498333E+02 -0.60132379047E+01  0.19105542790E+02  0.47787272203E+02  0.20000005284E+02 0.  0.
         12    1    1    2    0    0  0.38502498333E+02  0.60132379047E+01 -0.19105542790E+02  0.43400727797E+02  0.00000000000E+00 0. -1.
         11    1    3    3    0    0 -0.10410635933E+02  0.24195711555E+01  0.85663533616E+01  0.13697374759E+02  0.51100000000E-03 0.  1.
        -11    1    3    3    0    0 -0.11651937316E+02  0.26155545296E+01  0.67207180379E+00  0.11960787996E+02  0.51100000000E-03 0. -1.
         12    1    3    3    0    0 -0.16439925084E+02 -0.11048363590E+02  0.98671176242E+01  0.22129109449E+02  0.00000000000E+00 0. -1.
</event>
<event>
 7    1  0.2318319E-009  0.4778727E+02  0.7816164E-02  0.1312668E+00
        -11   -1    0    0    0    0  0.00000000000E+00  0.00000000000E+00  0.45593999997E+02  0.45594000000E+02  0.51100000000E-03 0. -1.
         11   -1    0    0    0    0 -0.00000000000E+00 -0.00000000000E+00 -0.45593999997E+02  0.45594000000E+02  0.51100000000E-03 0.  1.
    9900012    2    1    2    0    0  0.30860700325E+02 -0.67441166177E+00  0.30508782586E+02  0.47787268779E+02  0.19999989669E+02 0.  0.
         12    1    1    2    0    0 -0.30860700325E+02  0.67441166177E+00 -0.30508782586E+02  0.43400731221E+02  0.00000000000E+00 0. -1.
         11    1    3    3    0    0  0.44454182050E+01 -0.26582915047E+01  0.69299352733E+01  0.86517200541E+01  0.51100000000E-03 0. -1.
        -11    1    3    3    0    0  0.68677768808E+01  0.11046288962E+01 -0.17074278498E+01  0.71625326810E+01  0.51100000000E-03 0.  1.
         12    1    3    3    0    0  0.19547505239E+02  0.87925094671E+00  0.25286275163E+02  0.31973016044E+02  0.00000000000E+00 0. -1.
</event>
<event>
 7    1  0.2318319E-009  0.4778727E+02  0.7816164E-02  0.1312668E+00
        -11   -1    0    0    0    0  0.00000000000E+00  0.00000000000E+00  0.45593999997E+02  0.45594000000E+02  0.51100000000E-03 0.  1.
         11   -1    0    0    0    0 -0.00000000000E+00 -0.00000000000E+00 -0.45593999997E+02  0.45594000000E+02  0.51100000000E-03 0. -1.
    9900012    2    1    2    0    0 -0.26687222171E+02  0.20233388727E+02  0.27604806676E+02  0.47787271916E+02  0.20000003976E+02 0.  0.
         12    1    1    2    0    0  0.26687222171E+02 -0.20233388727E+02 -0.27604806676E+02  0.43400728084E+02  0.00000000000E+00 0. -1.
         11    1    3    3    0    0 -0.15493780140E+02  0.85937616044E+01  0.18163022892E+02  0.25373319892E+02  0.51100000000E-03 0.  1.
        -11    1    3    3    0    0 -0.53080135947E+01  0.13267513791E+01  0.89988730297E+01  0.10531618755E+02  0.51100000000E-03 0. -1.
        -12    1    3    3    0    0 -0.58854284363E+01  0.10312875743E+02  0.44291075499E+00  0.11882333269E+02  0.00000000000E+00 0.  1.
</event>
<event>
 7    1  0.2318319E-009  0.4778727E+02  0.7816164E-02  0.1312668E+00
        -11   -1    0    0    0    0  0.00000000000E+00  0.00000000000E+00  0.45593999997E+02  0.45594000000E+02  0.51100000000E-03 0. -1.
         11   -1    0    0    0    0 -0.00000000000E+00 -0.00000000000E+00 -0.45593999997E+02  0.45594000000E+02  0.51100000000E-03 0.  1.
    9900012    2    1    2    0    0  0.34206668016E+02 -0.21291766713E+02 -0.16130329927E+02  0.47787274084E+02  0.20000013857E+02 0.  0.
         12    1    1    2    0    0 -0.34206668016E+02  0.21291766713E+02  0.16130329927E+02  0.43400725916E+02  0.00000000000E+00 0. -1.
         11    1    3    3    0    0  0.54691644338E+01 -0.45829088356E+01 -0.73206262673E+01  0.10222836309E+02  0.51100000000E-03 0. -1.
        -11    1    3    3    0    0  0.27723604649E+02 -0.18782999603E+02 -0.10024640372E+02  0.34955582439E+02  0.51100000000E-03 0.  1.
         12    1    3    3    0    0  0.10138989331E+01  0.20741417257E+01  0.12149367120E+01  0.26088553350E+01  0.00000000000E+00 0. -1.
</event>
<event>
 7    1  0.2362752E-009  0.4778727E+02  0.7816164E-02  0.1312668E+00
        -11   -1    0    0    0    0  0.00000000000E+00  0.00000000000E+00  0.45593999997E+02  0.45594000000E+02  0.51100000000E-03 0. -1.
         11   -1    0    0    0    0 -0.00000000000E+00 -0.00000000000E+00 -0.45593999997E+02  0.45594000000E+02  0.51100000000E-03 0.  1.
    9900012    2    1    2    0    0  0.84128587814E+01 -0.41283605428E+02 -0.10416861781E+02  0.47787270981E+02  0.19999999711E+02 0.  0.
         12    1    1    2    0    0 -0.84128587814E+01  0.41283605428E+02  0.10416861781E+02  0.43400729019E+02  0.00000000000E+00 0. -1.
         11    1    3    3    0    0  0.88669577836E+00 -0.47714849198E+01 -0.60647229349E+01  0.77675068253E+01  0.51100000000E-03 0.  1.
        -11    1    3    3    0    0 -0.86965389216E+00 -0.48226655995E+01  0.38436626433E+01  0.62280128575E+01  0.51100000000E-03 0. -1.
        -12    1    3    3    0    0  0.83958168952E+01 -0.31689454909E+02 -0.81958014890E+01  0.33791751298E+02  0.00000000000E+00 0.  1.
</event>
<event>
 7    1  0.2318319E-009  0.4778727E+02  0.7816164E-02  0.1312668E+00
        -11   -1    0    0    0    0  0.00000000000E+00  0.00000000000E+00  0.45593999997E+02  0.45594000000E+02  0.51100000000E-03 0. -1.
         11   -1    0    0    0    0 -0.00000000000E+00 -0.00000000000E+00 -0.45593999997E+02  0.45594000000E+02  0.51100000000E-03 0.  1.
    9900012    2    1    2    0    0  0.11565433837E+02 -0.23985642575E+02 -0.34271750325E+02  0.47787272127E+02  0.20000004938E+02 0.  0.
         12    1    1    2    0    0 -0.11565433837E+02  0.23985642575E+02  0.34271750325E+02  0.43400727873E+02  0.00000000000E+00 0. -1.
         11    1    3    3    0    0  0.64933288175E+00 -0.86347704460E+00  0.53975415581E+00  0.12077088257E+01  0.51100000000E-03 0. -1.
        -11    1    3    3    0    0  0.33062672447E+01 -0.52013375518E+01 -0.22990645634E+02  0.23802417993E+02  0.51100000000E-03 0.  1.
        -12    1    3    3    0    0  0.76098337100E+01 -0.17920827978E+02 -0.11820858847E+02  0.22777145308E+02  0.00000000000E+00 0.  1.
</event>
<event>
 7    1  0.2318319E-009  0.4778727E+02  0.7816164E-02  0.1312668E+00
        -11   -1    0    0    0    0  0.00000000000E+00  0.00000000000E+00  0.45593999997E+02  0.45594000000E+02  0.51100000000E-03 0.  1.
         11   -1    0    0    0    0 -0.00000000000E+00 -0.00000000000E+00 -0.45593999997E+02  0.45594000000E+02  0.51100000000E-03 0. -1.
    9900012    2    1    2    0    0 -0.92279136195E+01  0.10915183820E+02  0.40979601385E+02  0.47787270084E+02  0.19999995619E+02 0.  0.
         12    1    1    2    0    0  0.92279136195E+01 -0.10915183820E+02 -0.40979601385E+02  0.43400729916E+02  0.00000000000E+00 0. -1.
         11    1    3    3    0    0 -0.78009796164E+01  0.14357035676E+02  0.25179516464E+02  0.30016458919E+02  0.51100000000E-03 0. -1.
        -11    1    3    3    0    0  0.57003225369E+00  0.54533243083E+00  0.11657702350E+02  0.11684363421E+02  0.51100000000E-03 0.  1.
         12    1    3    3    0    0 -0.19969662568E+01 -0.39871842870E+01  0.41423825712E+01  0.60864477436E+01  0.00000000000E+00 0. -1.
</event>
<event>
 7    1  0.2318319E-009  0.4778726E+02  0.7816164E-02  0.1312668E+00
        -11   -1    0    0    0    0  0.00000000000E+00  0.00000000000E+00  0.45593999997E+02  0.45594000000E+02  0.51100000000E-03 0. -1.
         11   -1    0    0    0    0 -0.00000000000E+00 -0.00000000000E+00 -0.45593999997E+02  0.45594000000E+02  0.51100000000E-03 0.  1.
    9900012    2    1    2    0    0 -0.36622694255E+02  0.23188023396E+02 -0.21720148512E+01  0.47787264845E+02  0.19999971734E+02 0.  0.
         12    1    1    2    0    0  0.36622694255E+02 -0.23188023396E+02  0.21720148512E+01  0.43400735155E+02  0.00000000000E+00 0. -1.
         11    1    3    3    0    0 -0.69856523884E+01  0.21469655474E+01  0.54394812320E+01  0.91102555775E+01  0.51100000000E-03 0. -1.
        -11    1    3    3    0    0 -0.17515080750E+02  0.58236901432E+01 -0.33228700805E+01  0.18754596407E+02  0.51100000000E-03 0.  1.
         12    1    3    3    0    0 -0.12121961117E+02  0.15217367705E+02 -0.42886260026E+01  0.19922412860E+02  0.00000000000E+00 0. -1.
</event>
<event>
 7    1  0.2318319E-009  0.4778727E+02  0.7816164E-02  0.1312668E+00
        -11   -1    0    0    0    0  0.00000000000E+00  0.00000000000E+00  0.45593999997E+02  0.45594000000E+02  0.51100000000E-03 0.  1.
         11   -1    0    0    0    0 -0.00000000000E+00 -0.00000000000E+00 -0.45593999997E+02  0.45594000000E+02  0.51100000000E-03 0. -1.
    9900012    2    1    2    0    0  0.18629562097E+02  0.23739722842E+02  0.31192758614E+02  0.47787271728E+02  0.20000003118E+02 0.  0.
         12    1    1    2    0    0 -0.18629562097E+02 -0.23739722842E+02 -0.31192758614E+02  0.43400728272E+02  0.00000000000E+00 0. -1.
         11    1    3    3    0    0 -0.16217824957E+01  0.50963879640E+01  0.42499847458E+01  0.68312311733E+01  0.51100000000E-03 0. -1.
        -11    1    3    3    0    0  0.80870387704E+01  0.11605092213E+02  0.21808103633E+02  0.25993686650E+02  0.51100000000E-03 0.  1.
        -12    1    3    3    0    0  0.12164305822E+02  0.70382426656E+01  0.51346702357E+01  0.14962353905E+02  0.00000000000E+00 0.  1.
</event>
<event>
 7    1  0.2318319E-009  0.4778727E+02  0.7816164E-02  0.1312668E+00
        -11   -1    0    0    0    0  0.00000000000E+00  0.00000000000E+00  0.45593999997E+02  0.45594000000E+02  0.51100000000E-03 0.  1.
         11   -1    0    0    0    0 -0.00000000000E+00 -0.00000000000E+00 -0.45593999997E+02  0.45594000000E+02  0.51100000000E-03 0. -1.
    9900012    2    1    2    0    0 -0.37199936394E+02 -0.95972453301E+01  0.20191115107E+02  0.47787268268E+02  0.19999987339E+02 0.  0.
         12    1    1    2    0    0  0.37199936394E+02  0.95972453301E+01 -0.20191115107E+02  0.43400731732E+02  0.00000000000E+00 0. -1.
         11    1    3    3    0    0 -0.26063723634E+01 -0.30364984466E+01  0.84130851052E+01  0.93163029664E+01  0.51100000000E-03 0. -1.
        -11    1    3    3    0    0 -0.29628210202E+02 -0.48339197850E+01  0.13532170495E+02  0.32928972939E+02  0.51100000000E-03 0.  1.
         12    1    3    3    0    0 -0.49653538285E+01 -0.17268270986E+01 -0.17541404933E+01  0.55419923620E+01  0.00000000000E+00 0. -1.
</event>
<event>
 7    1  0.2318319E-009  0.4778727E+02  0.7816164E-02  0.1312668E+00
        -11   -1    0    0    0    0  0.00000000000E+00  0.00000000000E+00  0.45593999997E+02  0.45594000000E+02  0.51100000000E-03 0.  1.
         11   -1    0    0    0    0 -0.00000000000E+00 -0.00000000000E+00 -0.45593999997E+02  0.45594000000E+02  0.51100000000E-03 0. -1.
    9900012    2    1    2    0    0  0.24575403091E+02 -0.34757416716E+02  0.84613881859E+01  0.47787267934E+02  0.19999985817E+02 0.  0.
         12    1    1    2    0    0 -0.24575403091E+02  0.34757416716E+02 -0.84613881859E+01  0.43400732066E+02  0.00000000000E+00 0. -1.
         11    1    3    3    0    0 -0.13709406982E+00 -0.45103156176E+01  0.29031408519E+01  0.53656284647E+01  0.51100000000E-03 0. -1.
        -11    1    3    3    0    0  0.57486355642E+01  0.42543985721E+00  0.23246137314E+01  0.62154355586E+01  0.51100000000E-03 0.  1.
        -12    1    3    3    0    0  0.18963861597E+02 -0.30672540955E+02  0.32336336026E+01  0.36206203910E+02  0.00000000000E+00 0.  1.
</event>
<event>
 7    1  0.2318319E-009  0.4778722E+02  0.7816164E-02  0.1312668E+00
        -11   -1    0    0    0    0  0.00000000000E+00  0.00000000000E+00  0.45593999997E+02  0.45594000000E+02  0.51100000000E-03 0.  1.
         11   -1    0    0    0    0 -0.00000000000E+00 -0.00000000000E+00 -0.45593999997E+02  0.45594000000E+02  0.51100000000E-03 0. -1.
    9900012    2    1    2    0    0 -0.35637098860E+02 -0.41038540530E+01  0.24429146530E+02  0.47787220820E+02  0.19999771005E+02 0.  0.
         12    1    1    2    0    0  0.35637098860E+02  0.41038540530E+01 -0.24429146530E+02  0.43400779180E+02  0.00000000000E+00 0. -1.
         11    1    3    3    0    0 -0.94576664378E+01  0.10535433800E+01  0.37825541670E+01  0.10240367395E+02  0.51100000000E-03 0. -1.
        -11    1    3    3    0    0 -0.24179431455E+02 -0.94492295871E+01  0.19993751410E+02  0.32767101505E+02  0.51100000000E-03 0.  1.
         12    1    3    3    0    0 -0.20000009667E+01  0.42918321540E+01  0.65284095277E+00  0.47797519198E+01  0.00000000000E+00 0. -1.
</event>
<event>
 7    1  0.2318319E-009  0.4778727E+02  0.7816164E-02  0.1312668E+00
        -11   -1    0    0    0    0  0.00000000000E+00  0.00000000000E+00  0.45593999997E+02  0.45594000000E+02  0.51100000000E-03 0.  1.
         11   -1    0    0    0    0 -0.00000000000E+00 -0.00000000000E+00 -0.45593999997E+02  0.45594000000E+02  0.51100000000E-03 0. -1.
    9900012    2    1    2    0    0 -0.22526313204E+02 -0.15517103456E+02  0.33695813025E+02  0.47787273029E+02  0.20000009049E+02 0.  0.
         12    1    1    2    0    0  0.22526313204E+02  0.15517103456E+02 -0.33695813025E+02  0.43400726971E+02  0.00000000000E+00 0. -1.
         11    1    3    3    0    0 -0.96444956573E+01  0.65729943389E+00  0.10884831644E+02  0.14557743617E+02  0.51100000000E-03 0. -1.
        -11    1    3    3    0    0 -0.13464488538E+01  0.18775890443E+01  0.63555124139E+00  0.23962868728E+01  0.51100000000E-03 0.  1.
        -12    1    3    3    0    0 -0.11535368693E+02 -0.18051991934E+02  0.22175430139E+02  0.30833242540E+02  0.00000000000E+00 0.  1.
</event>
<event>
 7    1  0.2318319E-009  0.4778727E+02  0.7816164E-02  0.1312668E+00
        -11   -1    0    0    0    0  0.00000000000E+00  0.00000000000E+00  0.45593999997E+02  0.45594000000E+02  0.51100000000E-03 0.  1.
         11   -1    0    0    0    0 -0.00000000000E+00 -0.00000000000E+00 -0.45593999997E+02  0.45594000000E+02  0.51100000000E-03 0. -1.
    9900012    2    1    2    0    0  0.36361233617E+02  0.10390160607E+02  0.21296202816E+02  0.47787274177E+02  0.20000014282E+02 0.  0.
         12    1    1    2    0    0 -0.36361233617E+02 -0.10390160607E+02 -0.21296202816E+02  0.43400725823E+02  0.00000000000E+00 0. -1.
         11    1    3    3    0    0  0.41444579182E+01  0.48250982208E+01 -0.31919698762E+00  0.63686726446E+01  0.51100000000E-03 0. -1.
        -11    1    3    3    0    0 -0.12524543564E+01  0.88528306261E+00  0.84182627354E+00  0.17495827365E+01  0.51100000000E-03 0.  1.
        -12    1    3    3    0    0  0.33469230055E+02  0.46797793234E+01  0.20773573530E+02  0.39669018796E+02  0.00000000000E+00 0.  1.
</event>
<event>
 7    1  0.2318319E-009  0.4778727E+02  0.7816164E-02  0.1312668E+00
        -11   -1    0    0    0    0  0.00000000000E+00  0.00000000000E+00  0.45593999997E+02  0.45594000000E+02  0.51100000000E-03 0. -1.
         11   -1    0    0    0    0 -0.00000000000E+00 -0.00000000000E+00 -0.45593999997E+02  0.45594000000E+02  0.51100000000E-03 0.  1.
    9900012    2    1    2    0    0  0.86654289969E+01 -0.42305036029E+02 -0.43379273157E+01  0.47787270208E+02  0.19999996186E+02 0.  0.
         12    1    1    2    0    0 -0.86654289969E+01  0.42305036029E+02  0.43379273157E+01  0.43400729792E+02  0.00000000000E+00 0. -1.
         11    1    3    3    0    0 -0.30485873378E+01 -0.20810875386E+02 -0.12392478483E+01  0.21069460235E+02  0.51100000000E-03 0. -1.
        -11    1    3    3    0    0 -0.92826274984E+00 -0.74731678228E+01 -0.20743563242E+01  0.78110731312E+01  0.51100000000E-03 0.  1.
         12    1    3    3    0    0  0.12642279085E+02 -0.14020992820E+02 -0.10243231433E+01  0.18906736842E+02  0.00000000000E+00 0. -1.
</event>
<event>
 7    1  0.2318319E-009  0.4778727E+02  0.7816164E-02  0.1312668E+00
        -11   -1    0    0    0    0  0.00000000000E+00  0.00000000000E+00  0.45593999997E+02  0.45594000000E+02  0.51100000000E-03 0.  1.
         11   -1    0    0    0    0 -0.00000000000E+00 -0.00000000000E+00 -0.45593999997E+02  0.45594000000E+02  0.51100000000E-03 0. -1.
    9900012    2    1    2    0    0 -0.26299318668E+02 -0.25385479214E+02  0.23399720271E+02  0.47787266987E+02  0.19999981499E+02 0.  0.
         12    1    1    2    0    0  0.26299318668E+02  0.25385479214E+02 -0.23399720271E+02  0.43400733013E+02  0.00000000000E+00 0. -1.
         11    1    3    3    0    0 -0.61334448420E+01 -0.46675141686E+00  0.76528807419E+00  0.61986021499E+01  0.51100000000E-03 0. -1.
        -11    1    3    3    0    0 -0.16597059641E+02 -0.96665404237E+01  0.13144479412E+02  0.23274057055E+02  0.51100000000E-03 0.  1.
         12    1    3    3    0    0 -0.35688141844E+01 -0.15252187374E+02  0.94899527845E+01  0.18314607782E+02  0.00000000000E+00 0. -1.
</event>
<event>
 7    1  0.2318319E-009  0.4778728E+02  0.7816164E-02  0.1312668E+00
        -11   -1    0    0    0    0  0.00000000000E+00  0.00000000000E+00  0.45593999997E+02  0.45594000000E+02  0.51100000000E-03 0. -1.
         11   -1    0    0    0    0 -0.00000000000E+00 -0.00000000000E+00 -0.45593999997E+02  0.45594000000E+02  0.51100000000E-03 0.  1.
    9900012    2    1    2    0    0  0.26632065592E+02  0.90105228037E+01 -0.33063068198E+02  0.47787275149E+02  0.20000018715E+02 0.  0.
         12    1    1    2    0    0 -0.26632065592E+02 -0.90105228037E+01  0.33063068198E+02  0.43400724851E+02  0.00000000000E+00 0. -1.
         11    1    3    3    0    0  0.48904874168E+01 -0.25447829753E+00 -0.76692445075E+01  0.90993921750E+01  0.51100000000E-03 0. -1.
        -11    1    3    3    0    0  0.16386449945E+01  0.89268178840E+01 -0.75463899966E+01  0.11803441752E+02  0.51100000000E-03 0.  1.
        -12    1    3    3    0    0  0.20102933181E+02  0.33818321727E+00 -0.17847433694E+02  0.26884441222E+02  0.00000000000E+00 0.  1.
</event>
<event>
 7    1  0.2318319E-009  0.4778727E+02  0.7816164E-02  0.1312668E+00
        -11   -1    0    0    0    0  0.00000000000E+00  0.00000000000E+00  0.45593999997E+02  0.45594000000E+02  0.51100000000E-03 0.  1.
         11   -1    0    0    0    0 -0.00000000000E+00 -0.00000000000E+00 -0.45593999997E+02  0.45594000000E+02  0.51100000000E-03 0. -1.
    9900012    2    1    2    0    0  0.26099114609E+02 -0.20702759170E+02  0.27818249771E+02  0.47787273728E+02  0.20000012234E+02 0.  0.
         12    1    1    2    0    0 -0.26099114609E+02  0.20702759170E+02 -0.27818249771E+02  0.43400726272E+02  0.00000000000E+00 0. -1.
         11    1    3    3    0    0  0.10464058888E+02 -0.18099343074E+02  0.15656737909E+02  0.26119268564E+02  0.51100000000E-03 0. -1.
        -11    1    3    3    0    0  0.21265846607E+00 -0.16553686095E+01  0.36822474968E+01  0.40428227447E+01  0.51100000000E-03 0.  1.
        -12    1    3    3    0    0  0.15422397255E+02 -0.94804748686E+00  0.84792643657E+01  0.17625182419E+02  0.00000000000E+00 0.  1.
</event>
<event>
 7    1  0.2318319E-009  0.4778724E+02  0.7816164E-02  0.1312668E+00
        -11   -1    0    0    0    0  0.00000000000E+00  0.00000000000E+00  0.45593999997E+02  0.45594000000E+02  0.51100000000E-03 0.  1.
         11   -1    0    0    0    0 -0.00000000000E+00 -0.00000000000E+00 -0.45593999997E+02  0.45594000000E+02  0.51100000000E-03 0. -1.
    9900012    2    1    2    0    0  0.14846625538E+02 -0.62322165237E+01  0.40303390436E+02  0.47787238563E+02  0.19999851903E+02 0.  0.
         12    1    1    2    0    0 -0.14846625538E+02  0.62322165237E+01 -0.40303390436E+02  0.43400761437E+02  0.00000000000E+00 0. -1.
         11    1    3    3    0    0 -0.97392490896E-01 -0.35928419296E+01  0.84789172979E+01  0.92092365175E+01  0.51100000000E-03 0. -1.
        -11    1    3    3    0    0  0.12926595239E+02 -0.82367410805E+00  0.33125670999E+02  0.35568038783E+02  0.51100000000E-03 0.  1.
        -12    1    3    3    0    0  0.20174227901E+01 -0.18157004861E+01 -0.13011978604E+01  0.30099632624E+01  0.00000000000E+00 0.  1.
</event>
<event>
 7    1  0.2318319E-009  0.4778727E+02  0.7816164E-02  0.1312668E+00
        -11   -1    0    0    0    0  0.00000000000E+00  0.00000000000E+00  0.45593999997E+02  0.45594000000E+02  0.51100000000E-03 0.  1.
         11   -1    0    0    0    0 -0.00000000000E+00 -0.00000000000E+00 -0.45593999997E+02  0.45594000000E+02  0.51100000000E-03 0. -1.
    9900012    2    1    2    0    0  0.28307833458E+02 -0.27595231192E+02  0.17910694369E+02  0.47787271983E+02  0.20000004277E+02 0.  0.
         12    1    1    2    0    0 -0.28307833458E+02  0.27595231192E+02 -0.17910694369E+02  0.43400728017E+02  0.00000000000E+00 0. -1.
         11    1    3    3    0    0  0.55493962349E+01  0.11643252528E+01  0.75019239434E+01  0.94037394147E+01  0.51100000000E-03 0. -1.
        -11    1    3    3    0    0  0.32066749756E+01 -0.40211507708E+01  0.31357369181E+01  0.60237251100E+01  0.51100000000E-03 0.  1.
         12    1    3    3    0    0  0.19551762248E+02 -0.24738405674E+02  0.72730335076E+01  0.32359807458E+02  0.00000000000E+00 0. -1.
</event>
<event>
 7    1  0.2318319E-009  0.4778727E+02  0.7816164E-02  0.1312668E+00
        -11   -1    0    0    0    0  0.00000000000E+00  0.00000000000E+00  0.45593999997E+02  0.45594000000E+02  0.51100000000E-03 0.  1.
         11   -1    0    0    0    0 -0.00000000000E+00 -0.00000000000E+00 -0.45593999997E+02  0.45594000000E+02  0.51100000000E-03 0. -1.
    9900012    2    1    2    0    0 -0.15441223889E+02  0.28307746410E+02  0.29049327000E+02  0.47787270730E+02  0.19999998567E+02 0.  0.
         12    1    1    2    0    0  0.15441223889E+02 -0.28307746410E+02 -0.29049327000E+02  0.43400729270E+02  0.00000000000E+00 0. -1.
         11    1    3    3    0    0 -0.44502248320E+01  0.32423704142E+01 -0.15126931998E+01  0.57101407983E+01  0.51100000000E-03 0. -1.
        -11    1    3    3    0    0 -0.14941923124E+01  0.14408425483E+02  0.13173445815E+02  0.19579964517E+02  0.51100000000E-03 0.  1.
        -12    1    3    3    0    0 -0.94968067448E+01  0.10656950512E+02  0.17388574385E+02  0.22497165415E+02  0.00000000000E+00 0.  1.
</event>
<event>
 7    1  0.2318319E-009  0.4778727E+02  0.7816164E-02  0.1312668E+00
        -11   -1    0    0    0    0  0.00000000000E+00  0.00000000000E+00  0.45593999997E+02  0.45594000000E+02  0.51100000000E-03 0.  1.
         11   -1    0    0    0    0 -0.00000000000E+00 -0.00000000000E+00 -0.45593999997E+02  0.45594000000E+02  0.51100000000E-03 0. -1.
    9900012    2    1    2    0    0  0.27843518362E+02 -0.72199471533E+01  0.32499756957E+02  0.47787270122E+02  0.19999995795E+02 0.  0.
         12    1    1    2    0    0 -0.27843518362E+02  0.72199471533E+01 -0.32499756957E+02  0.43400729878E+02  0.00000000000E+00 0. -1.
         11    1    3    3    0    0  0.14544149339E+00  0.22577366922E+01  0.83147731815E+01  0.86170749980E+01  0.51100000000E-03 0. -1.
        -11    1    3    3    0    0  0.10985354392E+02 -0.57859897596E+01  0.15847056428E+02  0.20131688610E+02  0.51100000000E-03 0.  1.
        -12    1    3    3    0    0  0.16712722477E+02 -0.36916940859E+01  0.83379273471E+01  0.19038506514E+02  0.00000000000E+00 0.  1.
</event>
<event>
 7    1  0.2318319E-009  0.4778728E+02  0.7816164E-02  0.1312668E+00
        -11   -1    0    0    0    0  0.00000000000E+00  0.00000000000E+00  0.45593999997E+02  0.45594000000E+02  0.51100000000E-03 0.  1.
         11   -1    0    0    0    0 -0.00000000000E+00 -0.00000000000E+00 -0.45593999997E+02  0.45594000000E+02  0.51100000000E-03 0. -1.
    9900012    2    1    2    0    0  0.55886752947E+00  0.21885112568E+02  0.37474687991E+02  0.47787277367E+02  0.20000028826E+02 0.  0.
         12    1    1    2    0    0 -0.55886752947E+00 -0.21885112568E+02 -0.37474687991E+02  0.43400722633E+02  0.00000000000E+00 0. -1.
         11    1    3    3    0    0  0.15230579604E+01  0.68548385663E+00  0.40077794258E+01  0.43418763059E+01  0.51100000000E-03 0. -1.
        -11    1    3    3    0    0  0.33674908736E+01  0.22329357493E+02  0.30941633496E+02  0.38305676922E+02  0.51100000000E-03 0.  1.
        -12    1    3    3    0    0 -0.43316813045E+01 -0.11297287810E+01  0.25252750697E+01  0.51397241385E+01  0.00000000000E+00 0.  1.
</event>
<event>
 7    1  0.2318319E-009  0.4778727E+02  0.7816164E-02  0.1312668E+00
        -11   -1    0    0    0    0  0.00000000000E+00  0.00000000000E+00  0.45593999997E+02  0.45594000000E+02  0.51100000000E-03 0.  1.
         11   -1    0    0    0    0 -0.00000000000E+00 -0.00000000000E+00 -0.45593999997E+02  0.45594000000E+02  0.51100000000E-03 0. -1.
    9900012    2    1    2    0    0 -0.27308279256E+01 -0.43752622828E+01  0.43093191602E+02  0.47787268397E+02  0.19999987930E+02 0.  0.
         12    1    1    2    0    0  0.27308279256E+01  0.43752622828E+01 -0.43093191602E+02  0.43400731603E+02  0.00000000000E+00 0. -1.
         11    1    3    3    0    0  0.60127810223E+01  0.82972693206E+00  0.20531094728E+02  0.21409526697E+02  0.51100000000E-03 0. -1.
        -11    1    3    3    0    0 -0.27032182529E+01  0.21832377587E+01  0.29149060220E+01  0.45354816075E+01  0.51100000000E-03 0.  1.
        -12    1    3    3    0    0 -0.60403906950E+01 -0.73882269735E+01  0.19647190852E+02  0.21842260092E+02  0.00000000000E+00 0.  1.
</event>
<event>
 7    1  0.2318319E-009  0.4778727E+02  0.7816164E-02  0.1312668E+00
        -11   -1    0    0    0    0  0.00000000000E+00  0.00000000000E+00  0.45593999997E+02  0.45594000000E+02  0.51100000000E-03 0.  1.
         11   -1    0    0    0    0 -0.00000000000E+00 -0.00000000000E+00 -0.45593999997E+02  0.45594000000E+02  0.51100000000E-03 0. -1.
    9900012    2    1    2    0    0 -0.85449685288E+01 -0.30336278863E+02  0.29838178045E+02  0.47787272225E+02  0.20000005381E+02 0.  0.
         12    1    1    2    0    0  0.85449685288E+01  0.30336278863E+02 -0.29838178045E+02  0.43400727775E+02  0.00000000000E+00 0. -1.
         11    1    3    3    0    0  0.27456703613E+01 -0.16142017499E+02  0.77669413808E+01  0.18122605038E+02  0.51100000000E-03 0. -1.
        -11    1    3    3    0    0  0.78686398766E+00 -0.34256921841E+01  0.27508851419E+01  0.44633945826E+01  0.51100000000E-03 0.  1.
        -12    1    3    3    0    0 -0.12077502878E+02 -0.10768569180E+02  0.19320351522E+02  0.25201272604E+02  0.00000000000E+00 0.  1.
</event>
<event>
 7    1  0.2318319E-009  0.4778727E+02  0.7816164E-02  0.1312668E+00
        -11   -1    0    0    0    0  0.00000000000E+00  0.00000000000E+00  0.45593999997E+02  0.45594000000E+02  0.51100000000E-03 0.  1.
         11   -1    0    0    0    0 -0.00000000000E+00 -0.00000000000E+00 -0.45593999997E+02  0.45594000000E+02  0.51100000000E-03 0. -1.
    9900012    2    1    2    0    0 -0.18777149033E+02  0.40719370533E+01  0.38916085345E+02  0.47787266185E+02  0.19999977842E+02 0.  0.
         12    1    1    2    0    0  0.18777149033E+02 -0.40719370533E+01 -0.38916085345E+02  0.43400733815E+02  0.00000000000E+00 0. -1.
         11    1    3    3    0    0  0.44217264465E+00  0.12887241376E+01  0.10219348802E+02  0.10309772876E+02  0.51100000000E-03 0. -1.
        -11    1    3    3    0    0 -0.12732223281E+02  0.61372490652E+01  0.26182435288E+02  0.29753911568E+02  0.51100000000E-03 0.  1.
        -12    1    3    3    0    0 -0.64870983967E+01 -0.33540361495E+01  0.25143012545E+01  0.77235817403E+01  0.00000000000E+00 0.  1.
</event>
<event>
 7    1  0.2318319E-009  0.4778727E+02  0.7816164E-02  0.1312668E+00
        -11   -1    0    0    0    0  0.00000000000E+00  0.00000000000E+00  0.45593999997E+02  0.45594000000E+02  0.51100000000E-03 0.  1.
         11   -1    0    0    0    0 -0.00000000000E+00 -0.00000000000E+00 -0.45593999997E+02  0.45594000000E+02  0.51100000000E-03 0. -1.
    9900012    2    1    2    0    0 -0.14326568278E+02 -0.21902868248E+02  0.34621342938E+02  0.47787267484E+02  0.19999983764E+02 0.  0.
         12    1    1    2    0    0  0.14326568278E+02  0.21902868248E+02 -0.34621342938E+02  0.43400732516E+02  0.00000000000E+00 0. -1.
         11    1    3    3    0    0 -0.11180486396E+02 -0.11378912852E+02  0.19932639701E+02  0.25530238139E+02  0.51100000000E-03 0. -1.
        -11    1    3    3    0    0 -0.42484842186E+01  0.16057782349E+01  0.39395274147E+01  0.60123222142E+01  0.51100000000E-03 0.  1.
         12    1    3    3    0    0  0.11024023372E+01 -0.12129733631E+02  0.10749175823E+02  0.16244707130E+02  0.00000000000E+00 0. -1.
</event>
<event>
 7    1  0.2318319E-009  0.4778727E+02  0.7816164E-02  0.1312668E+00
        -11   -1    0    0    0    0  0.00000000000E+00  0.00000000000E+00  0.45593999997E+02  0.45594000000E+02  0.51100000000E-03 0.  1.
         11   -1    0    0    0    0 -0.00000000000E+00 -0.00000000000E+00 -0.45593999997E+02  0.45594000000E+02  0.51100000000E-03 0. -1.
    9900012    2    1    2    0    0  0.19598779649E+02  0.19729471178E+02  0.33320556570E+02  0.47787266287E+02  0.19999978309E+02 0.  0.
         12    1    1    2    0    0 -0.19598779649E+02 -0.19729471178E+02 -0.33320556570E+02  0.43400733713E+02  0.00000000000E+00 0. -1.
         11    1    3    3    0    0 -0.46901183829E-01 -0.39287077563E+00 -0.29304947889E+00  0.49236716542E+00  0.51100000000E-03 0. -1.
        -11    1    3    3    0    0  0.18824101403E+02  0.91157981938E+01  0.27892433647E+02  0.34863052439E+02  0.51100000000E-03 0.  1.
        -12    1    3    3    0    0  0.82157943015E+00  0.11006543760E+02  0.57211724018E+01  0.12431846683E+02  0.00000000000E+00 0.  1.
</event>
<event>
 7    1  0.2318319E-009  0.4778727E+02  0.7816164E-02  0.1312668E+00
        -11   -1    0    0    0    0  0.00000000000E+00  0.00000000000E+00  0.45593999997E+02  0.45594000000E+02  0.51100000000E-03 0.  1.
         11   -1    0    0    0    0 -0.00000000000E+00 -0.00000000000E+00 -0.45593999997E+02  0.45594000000E+02  0.51100000000E-03 0. -1.
    9900012    2    1    2    0    0 -0.92538936814E+00 -0.36976643138E+02  0.22704511084E+02  0.47787270665E+02  0.19999998270E+02 0.  0.
         12    1    1    2    0    0  0.92538936814E+00  0.36976643138E+02 -0.22704511084E+02  0.43400729335E+02  0.00000000000E+00 0. -1.
         11    1    3    3    0    0  0.19581951254E+01  0.14769264734E+00  0.31092067875E+01  0.36774323075E+01  0.51100000000E-03 0. -1.
        -11    1    3    3    0    0  0.30943033621E+01 -0.12318446470E+02  0.12034757137E+02  0.17497263110E+02  0.51100000000E-03 0.  1.
         12    1    3    3    0    0 -0.59778878557E+01 -0.24805889316E+02  0.75605471594E+01  0.26612575248E+02  0.00000000000E+00 0. -1.
</event>
<event>
 7    1  0.2318319E-009  0.4778728E+02  0.7816164E-02  0.1312668E+00
        -11   -1    0    0    0    0  0.00000000000E+00  0.00000000000E+00  0.45593999997E+02  0.45594000000E+02  0.51100000000E-03 0.  1.
         11   -1    0    0    0    0 -0.00000000000E+00 -0.00000000000E+00 -0.45593999997E+02  0.45594000000E+02  0.51100000000E-03 0. -1.
    9900012    2    1    2    0    0 -0.22033599341E+02  0.20049887143E+02  0.31561766467E+02  0.47787279075E+02  0.20000036612E+02 0.  0.
         12    1    1    2    0    0  0.22033599341E+02 -0.20049887143E+02 -0.31561766467E+02  0.43400720925E+02  0.00000000000E+00 0. -1.
         11    1    3    3    0    0  0.95108146134E+00  0.62093905352E+01  0.56285525794E+01  0.84345534064E+01  0.51100000000E-03 0. -1.
        -11    1    3    3    0    0 -0.25191221375E+01 -0.15150829083E+01  0.67872253639E+01  0.73964776051E+01  0.51100000000E-03 0.  1.
        -12    1    3    3    0    0 -0.20465558665E+02  0.15355579516E+02  0.19145988524E+02  0.31956248063E+02  0.00000000000E+00 0.  1.
</event>
<event>
 7    1  0.2318319E-009  0.4778727E+02  0.7816164E-02  0.1312668E+00
        -11   -1    0    0    0    0  0.00000000000E+00  0.00000000000E+00  0.45593999997E+02  0.45594000000E+02  0.51100000000E-03 0. -1.
         11   -1    0    0    0    0 -0.00000000000E+00 -0.00000000000E+00 -0.45593999997E+02  0.45594000000E+02  0.51100000000E-03 0.  1.
    9900012    2    1    2    0    0 -0.42548382585E+02 -0.49146948052E+01  0.70074632945E+01  0.47787266971E+02  0.19999981430E+02 0.  0.
         12    1    1    2    0    0  0.42548382585E+02  0.49146948052E+01 -0.70074632945E+01  0.43400733029E+02  0.00000000000E+00 0. -1.
         11    1    3    3    0    0 -0.10467579376E+02 -0.55083448316E+01 -0.19494926661E+01  0.11988019131E+02  0.51100000000E-03 0. -1.
        -11    1    3    3    0    0  0.97107381212E+00 -0.51507605793E+00 -0.75341656287E+00  0.13326381626E+01  0.51100000000E-03 0.  1.
        -12    1    3    3    0    0 -0.33051877021E+02  0.11087260844E+01  0.97103725235E+01  0.34466609678E+02  0.00000000000E+00 0.  1.
</event>
<event>
 7    1  0.2318319E-009  0.4778727E+02  0.7816164E-02  0.1312668E+00
        -11   -1    0    0    0    0  0.00000000000E+00  0.00000000000E+00  0.45593999997E+02  0.45594000000E+02  0.51100000000E-03 0. -1.
         11   -1    0    0    0    0 -0.00000000000E+00 -0.00000000000E+00 -0.45593999997E+02  0.45594000000E+02  0.51100000000E-03 0.  1.
    9900012    2    1    2    0    0  0.19888289984E+02  0.33651206628E+02  0.18859361265E+02  0.47787270820E+02  0.19999998976E+02 0.  0.
         12    1    1    2    0    0 -0.19888289984E+02 -0.33651206628E+02 -0.18859361265E+02  0.43400729180E+02  0.00000000000E+00 0. -1.
         11    1    3    3    0    0  0.21159328381E+01  0.11810549924E+02  0.10595121966E+02  0.16006963204E+02  0.51100000000E-03 0. -1.
        -11    1    3    3    0    0  0.12471435957E+02  0.12741493875E+02  0.10936038654E+02  0.20916006375E+02  0.51100000000E-03 0.  1.
         12    1    3    3    0    0  0.53009211894E+01  0.90991628296E+01 -0.26717993550E+01  0.10864301241E+02  0.00000000000E+00 0. -1.
</event>
<event>
 7    1  0.2318319E-009  0.4778727E+02  0.7816164E-02  0.1312668E+00
        -11   -1    0    0    0    0  0.00000000000E+00  0.00000000000E+00  0.45593999997E+02  0.45594000000E+02  0.51100000000E-03 0.  1.
         11   -1    0    0    0    0 -0.00000000000E+00 -0.00000000000E+00 -0.45593999997E+02  0.45594000000E+02  0.51100000000E-03 0. -1.
    9900012    2    1    2    0    0  0.16058128081E+02  0.40278897439E+02 -0.18357937038E+01  0.47787271955E+02  0.20000004150E+02 0.  0.
         12    1    1    2    0    0 -0.16058128081E+02 -0.40278897439E+02  0.18357937038E+01  0.43400728045E+02  0.00000000000E+00 0. -1.
         11    1    3    3    0    0  0.49989879822E+01  0.55907403889E+01 -0.40906393802E+01  0.85428092418E+01  0.51100000000E-03 0. -1.
        -11    1    3    3    0    0  0.69763356391E+01  0.29561030479E+02 -0.34329398137E+01  0.30566466232E+02  0.51100000000E-03 0.  1.
         12    1    3    3    0    0  0.40828044596E+01  0.51271265711E+01  0.56877854902E+01  0.86779964804E+01  0.00000000000E+00 0. -1.
</event>
<event>
 7    1  0.2318319E-009  0.4778727E+02  0.7816164E-02  0.1312668E+00
        -11   -1    0    0    0    0  0.00000000000E+00  0.00000000000E+00  0.45593999997E+02  0.45594000000E+02  0.51100000000E-03 0. -1.
         11   -1    0    0    0    0 -0.00000000000E+00 -0.00000000000E+00 -0.45593999997E+02  0.45594000000E+02  0.51100000000E-03 0.  1.
    9900012    2    1    2    0    0 -0.24352853797E+02 -0.89147109052E+01 -0.34800709952E+02  0.47787274525E+02  0.20000015870E+02 0.  0.
         12    1    1    2    0    0  0.24352853797E+02  0.89147109052E+01  0.34800709952E+02  0.43400725475E+02  0.00000000000E+00 0. -1.
         11    1    3    3    0    0 -0.64580050897E-01 -0.14886018892E+01  0.19854217648E+01  0.24823388191E+01  0.51100000000E-03 0. -1.
        -11    1    3    3    0    0 -0.45324761299E+01  0.34168910622E+00 -0.31493735261E+01  0.55297961248E+01  0.51100000000E-03 0.  1.
         12    1    3    3    0    0 -0.19755797616E+02 -0.77677981222E+01 -0.33636758191E+02  0.39775139581E+02  0.00000000000E+00 0. -1.
</event>
<event>
 7    1  0.2318319E-009  0.4778727E+02  0.7816164E-02  0.1312668E+00
        -11   -1    0    0    0    0  0.00000000000E+00  0.00000000000E+00  0.45593999997E+02  0.45594000000E+02  0.51100000000E-03 0.  1.
         11   -1    0    0    0    0 -0.00000000000E+00 -0.00000000000E+00 -0.45593999997E+02  0.45594000000E+02  0.51100000000E-03 0. -1.
    9900012    2    1    2    0    0 -0.31777184929E+02  0.61178538873E+01  0.28920684693E+02  0.47787267041E+02  0.19999981749E+02 0.  0.
         12    1    1    2    0    0  0.31777184929E+02 -0.61178538873E+01 -0.28920684693E+02  0.43400732959E+02  0.00000000000E+00 0. -1.
         11    1    3    3    0    0 -0.14688383600E+02  0.19294664177E+01  0.21037849310E+01  0.14963200350E+02  0.51100000000E-03 0. -1.
        -11    1    3    3    0    0 -0.31307805553E+01  0.27765115592E+01  0.28833619355E+01  0.50817890192E+01  0.51100000000E-03 0.  1.
        -12    1    3    3    0    0 -0.13958020774E+02  0.14118759105E+01  0.23933537827E+02  0.27742277672E+02  0.00000000000E+00 0.  1.
</event>
<event>
 7    1  0.2318319E-009  0.4778727E+02  0.7816164E-02  0.1312668E+00
        -11   -1    0    0    0    0  0.00000000000E+00  0.00000000000E+00  0.45593999997E+02  0.45594000000E+02  0.51100000000E-03 0.  1.
         11   -1    0    0    0    0 -0.00000000000E+00 -0.00000000000E+00 -0.45593999997E+02  0.45594000000E+02  0.51100000000E-03 0. -1.
    9900012    2    1    2    0    0 -0.46991023107E+01  0.31310742858E+02  0.29684656441E+02  0.47787274097E+02  0.20000013919E+02 0.  0.
         12    1    1    2    0    0  0.46991023107E+01 -0.31310742858E+02 -0.29684656441E+02  0.43400725903E+02  0.00000000000E+00 0. -1.
         11    1    3    3    0    0  0.42804090133E+00  0.14988212324E+02  0.12240605662E+02  0.19356191642E+02  0.51100000000E-03 0.  1.
        -11    1    3    3    0    0  0.12435698751E+01  0.26483789824E+01  0.12066086643E+02  0.12415749047E+02  0.51100000000E-03 0. -1.
         12    1    3    3    0    0 -0.63707130871E+01  0.13674151552E+02  0.53779641364E+01  0.16015333408E+02  0.00000000000E+00 0. -1.
</event>
<event>
 7    1  0.2318319E-009  0.4778733E+02  0.7816164E-02  0.1312667E+00
        -11   -1    0    0    0    0  0.00000000000E+00  0.00000000000E+00  0.45593999997E+02  0.45594000000E+02  0.51100000000E-03 0.  1.
         11   -1    0    0    0    0 -0.00000000000E+00 -0.00000000000E+00 -0.45593999997E+02  0.45594000000E+02  0.51100000000E-03 0. -1.
    9900012    2    1    2    0    0 -0.29994014556E+02 -0.95190723725E+01  0.29889200771E+02  0.47787332140E+02  0.20000278556E+02 0.  0.
         12    1    1    2    0    0  0.29994014556E+02  0.95190723725E+01 -0.29889200771E+02  0.43400667860E+02  0.00000000000E+00 0. -1.
         11    1    3    3    0    0  0.10702740121E+01 -0.27503452742E+01  0.64456906897E+01  0.70892040679E+01  0.51100000000E-03 0. -1.
        -11    1    3    3    0    0 -0.11749355155E+02 -0.62379704545E+01  0.13557069661E+02  0.18993518895E+02  0.51100000000E-03 0.  1.
         12    1    3    3    0    0 -0.19314933412E+02 -0.53075664373E+00  0.98864404197E+01  0.21704609177E+02  0.00000000000E+00 0. -1.
</event>
<event>
 7    1  0.2318319E-009  0.4778726E+02  0.7816164E-02  0.1312668E+00
        -11   -1    0    0    0    0  0.00000000000E+00  0.00000000000E+00  0.45593999997E+02  0.45594000000E+02  0.51100000000E-03 0.  1.
         11   -1    0    0    0    0 -0.00000000000E+00 -0.00000000000E+00 -0.45593999997E+02  0.45594000000E+02  0.51100000000E-03 0. -1.
    9900012    2    1    2    0    0  0.16209712408E+02 -0.17386593962E+01  0.40222461034E+02  0.47787261706E+02  0.19999957421E+02 0.  0.
         12    1    1    2    0    0 -0.16209712408E+02  0.17386593962E+01 -0.40222461034E+02  0.43400738294E+02  0.00000000000E+00 0. -1.
         11    1    3    3    0    0  0.12276876897E+02 -0.74456021657E+01  0.19057028929E+02  0.23860617130E+02  0.51100000000E-03 0. -1.
        -11    1    3    3    0    0  0.58921996323E+01  0.34413779926E+01  0.84393889148E+01  0.10852851446E+02  0.51100000000E-03 0.  1.
        -12    1    3    3    0    0 -0.19593641217E+01  0.22655647769E+01  0.12726043190E+02  0.13073793130E+02  0.00000000000E+00 0.  1.
</event>
<event>
 7    1  0.2318319E-009  0.4778727E+02  0.7816164E-02  0.1312668E+00
        -11   -1    0    0    0    0  0.00000000000E+00  0.00000000000E+00  0.45593999997E+02  0.45594000000E+02  0.51100000000E-03 0.  1.
         11   -1    0    0    0    0 -0.00000000000E+00 -0.00000000000E+00 -0.45593999997E+02  0.45594000000E+02  0.51100000000E-03 0. -1.
    9900012    2    1    2    0    0 -0.10882844278E+02 -0.12591173217E+02  0.40083036589E+02  0.47787265389E+02  0.19999974214E+02 0.  0.
         12    1    1    2    0    0  0.10882844278E+02  0.12591173217E+02 -0.40083036589E+02  0.43400734611E+02  0.00000000000E+00 0. -1.
         11    1    3    3    0    0 -0.35902463795E+01 -0.11256213047E+02  0.17637474522E+02  0.21229053418E+02  0.51100000000E-03 0. -1.
        -11    1    3    3    0    0 -0.44782301086E+01 -0.66185211811E+01  0.15082063471E+02  0.17068333437E+02  0.51100000000E-03 0.  1.
        -12    1    3    3    0    0 -0.28143677900E+01  0.52835610107E+01  0.73634985962E+01  0.94898785339E+01  0.00000000000E+00 0.  1.
</event>
<event>
 7    1  0.2318319E-009  0.4778727E+02  0.7816164E-02  0.1312668E+00
        -11   -1    0    0    0    0  0.00000000000E+00  0.00000000000E+00  0.45593999997E+02  0.45594000000E+02  0.51100000000E-03 0. -1.
         11   -1    0    0    0    0 -0.00000000000E+00 -0.00000000000E+00 -0.45593999997E+02  0.45594000000E+02  0.51100000000E-03 0.  1.
    9900012    2    1    2    0    0  0.18150971317E+02 -0.35457100959E+02 -0.17232517496E+02  0.47787269276E+02  0.19999991937E+02 0.  0.
         12    1    1    2    0    0 -0.18150971317E+02  0.35457100959E+02  0.17232517496E+02  0.43400730724E+02  0.00000000000E+00 0. -1.
         11    1    3    3    0    0  0.99818788398E+01 -0.42799967443E+01 -0.54656142513E+01  0.12158503884E+02  0.51100000000E-03 0. -1.
        -11    1    3    3    0    0  0.59371874911E+01 -0.67437175694E+01 -0.44460216578E+01  0.10024720984E+02  0.51100000000E-03 0.  1.
        -12    1    3    3    0    0  0.22319049856E+01 -0.24433386645E+02 -0.73208815866E+01  0.25604044408E+02  0.00000000000E+00 0.  1.
</event>
<event>
 7    1  0.2318319E-009  0.4778727E+02  0.7816164E-02  0.1312668E+00
        -11   -1    0    0    0    0  0.00000000000E+00  0.00000000000E+00  0.45593999997E+02  0.45594000000E+02  0.51100000000E-03 0. -1.
         11   -1    0    0    0    0 -0.00000000000E+00 -0.00000000000E+00 -0.45593999997E+02  0.45594000000E+02  0.51100000000E-03 0.  1.
    9900012    2    1    2    0    0 -0.33791778586E+01 -0.24607138340E+02 -0.35590634292E+02  0.47787270172E+02  0.19999996023E+02 0.  0.
         12    1    1    2    0    0  0.33791778586E+01  0.24607138340E+02  0.35590634292E+02  0.43400729828E+02  0.00000000000E+00 0. -1.
         11    1    3    3    0    0 -0.30219204993E+01 -0.21461186863E+02 -0.33018421526E+02  0.39495958089E+02  0.51100000000E-03 0. -1.
        -11    1    3    3    0    0 -0.11663494789E+01 -0.53789177848E+01 -0.19062160965E+01  0.58246706096E+01  0.51100000000E-03 0.  1.
         12    1    3    3    0    0  0.80909211964E+00  0.22329663084E+01 -0.66599666974E+00  0.24666414730E+01  0.00000000000E+00 0. -1.
</event>
<event>
 7    1  0.2318319E-009  0.4778727E+02  0.7816164E-02  0.1312668E+00
        -11   -1    0    0    0    0  0.00000000000E+00  0.00000000000E+00  0.45593999997E+02  0.45594000000E+02  0.51100000000E-03 0.  1.
         11   -1    0    0    0    0 -0.00000000000E+00 -0.00000000000E+00 -0.45593999997E+02  0.45594000000E+02  0.51100000000E-03 0. -1.
    9900012    2    1    2    0    0  0.21983119674E+02 -0.33487220778E+02  0.16702449318E+02  0.47787270522E+02  0.19999997617E+02 0.  0.
         12    1    1    2    0    0 -0.21983119674E+02  0.33487220778E+02 -0.16702449318E+02  0.43400729478E+02  0.00000000000E+00 0. -1.
         11    1    3    3    0    0  0.78350819966E+01 -0.75157710352E+01  0.82575465424E+01  0.13640469175E+02  0.51100000000E-03 0. -1.
        -11    1    3    3    0    0  0.11864639416E+02 -0.26611720994E+02  0.10537835537E+02  0.30983856132E+02  0.51100000000E-03 0.  1.
         12    1    3    3    0    0  0.22833982611E+01  0.64027125116E+00 -0.20929327610E+01  0.31629452155E+01  0.00000000000E+00 0. -1.
</event>
<event>
 7    1  0.2318319E-009  0.4778727E+02  0.7816164E-02  0.1312668E+00
        -11   -1    0    0    0    0  0.00000000000E+00  0.00000000000E+00  0.45593999997E+02  0.45594000000E+02  0.51100000000E-03 0.  1.
         11   -1    0    0    0    0 -0.00000000000E+00 -0.00000000000E+00 -0.45593999997E+02  0.45594000000E+02  0.51100000000E-03 0. -1.
    9900012    2    1    2    0    0  0.25738820717E+02 -0.33585027692E+02  0.96530993968E+01  0.47787270687E+02  0.19999998369E+02 0.  0.
         12    1    1    2    0    0 -0.25738820717E+02  0.33585027692E+02 -0.96530993968E+01  0.43400729313E+02  0.00000000000E+00 0. -1.
         11    1    3    3    0    0  0.28156435503E+01  0.11789539636E+00 -0.16320810035E+01  0.32565989299E+01  0.51100000000E-03 0. -1.
        -11    1    3    3    0    0  0.13921848186E+02 -0.95905183606E+01  0.14126828615E+01  0.16964420782E+02  0.51100000000E-03 0.  1.
        -12    1    3    3    0    0  0.90013289806E+01 -0.24112404727E+02  0.98724975388E+01  0.27566250975E+02  0.00000000000E+00 0.  1.
</event>
<event>
 7    1  0.2318319E-009  0.4778727E+02  0.7816164E-02  0.1312668E+00
        -11   -1    0    0    0    0  0.00000000000E+00  0.00000000000E+00  0.45593999997E+02  0.45594000000E+02  0.51100000000E-03 0. -1.
         11   -1    0    0    0    0 -0.00000000000E+00 -0.00000000000E+00 -0.45593999997E+02  0.45594000000E+02  0.51100000000E-03 0.  1.
    9900012    2    1    2    0    0  0.14121378433E+01 -0.26723574119E+01 -0.43295354906E+02  0.47787269777E+02  0.19999994222E+02 0.  0.
         12    1    1    2    0    0 -0.14121378433E+01  0.26723574119E+01  0.43295354906E+02  0.43400730223E+02  0.00000000000E+00 0. -1.
         11    1    3    3    0    0 -0.49427356472E+01 -0.29724140323E+00 -0.90150788717E+01  0.10285457474E+02  0.51100000000E-03 0. -1.
        -11    1    3    3    0    0 -0.32362437309E+01 -0.39246903150E+01 -0.16153978552E+02  0.16935982135E+02  0.51100000000E-03 0.  1.
         12    1    3    3    0    0  0.95911172214E+01  0.15495743063E+01 -0.18126297482E+02  0.20565830168E+02  0.00000000000E+00 0. -1.
</event>
<event>
 7    1  0.2318319E-009  0.4778727E+02  0.7816164E-02  0.1312668E+00
        -11   -1    0    0    0    0  0.00000000000E+00  0.00000000000E+00  0.45593999997E+02  0.45594000000E+02  0.51100000000E-03 0. -1.
         11   -1    0    0    0    0 -0.00000000000E+00 -0.00000000000E+00 -0.45593999997E+02  0.45594000000E+02  0.51100000000E-03 0.  1.
    9900012    2    1    2    0    0  0.31039565627E+02 -0.30170384737E+02  0.31490440333E+01  0.47787271575E+02  0.20000002420E+02 0.  0.
         12    1    1    2    0    0 -0.31039565627E+02  0.30170384737E+02 -0.31490440333E+01  0.43400728425E+02  0.00000000000E+00 0. -1.
         11    1    3    3    0    0 -0.94928286766E+00  0.13866978581E+01 -0.72203028914E+00  0.18290426218E+01  0.51100000000E-03 0. -1.
        -11    1    3    3    0    0  0.10787630875E+02 -0.93786286612E+01 -0.27836857200E+01  0.14562986023E+02  0.51100000000E-03 0.  1.
        -12    1    3    3    0    0  0.21201217619E+02 -0.22178453934E+02  0.66547600424E+01  0.31395242931E+02  0.00000000000E+00 0.  1.
</event>
<event>
 7    1  0.2318319E-009  0.4778727E+02  0.7816164E-02  0.1312668E+00
        -11   -1    0    0    0    0  0.00000000000E+00  0.00000000000E+00  0.45593999997E+02  0.45594000000E+02  0.51100000000E-03 0.  1.
         11   -1    0    0    0    0 -0.00000000000E+00 -0.00000000000E+00 -0.45593999997E+02  0.45594000000E+02  0.51100000000E-03 0. -1.
    9900012    2    1    2    0    0 -0.15487446970E+01 -0.22016144946E+02  0.37369957521E+02  0.47787274504E+02  0.20000015774E+02 0.  0.
         12    1    1    2    0    0  0.15487446970E+01  0.22016144946E+02 -0.37369957521E+02  0.43400725496E+02  0.00000000000E+00 0. -1.
         11    1    3    3    0    0  0.24164013088E+01 -0.20421327544E+01  0.86174014041E-01  0.31649214357E+01  0.51100000000E-03 0. -1.
        -11    1    3    3    0    0 -0.51994268888E+01 -0.12733327798E+02  0.11867996608E+02  0.18166480686E+02  0.51100000000E-03 0.  1.
        -12    1    3    3    0    0  0.12342808829E+01 -0.72406843936E+01  0.25415786900E+02  0.26455872382E+02  0.00000000000E+00 0.  1.
</event>
<event>
 7    1  0.2318319E-009  0.4778726E+02  0.7816164E-02  0.1312668E+00
        -11   -1    0    0    0    0  0.00000000000E+00  0.00000000000E+00  0.45593999997E+02  0.45594000000E+02  0.51100000000E-03 0. -1.
         11   -1    0    0    0    0 -0.00000000000E+00 -0.00000000000E+00 -0.45593999997E+02  0.45594000000E+02  0.51100000000E-03 0.  1.
    9900012    2    1    2    0    0  0.13570590869E+02  0.10645972838E+02 -0.39826201199E+02  0.47787262954E+02  0.19999963110E+02 0.  0.
         12    1    1    2    0    0 -0.13570590869E+02 -0.10645972838E+02  0.39826201199E+02  0.43400737046E+02  0.00000000000E+00 0. -1.
         11    1    3    3    0    0  0.41050272394E+01 -0.62284433763E+00 -0.77084249802E+01  0.87555125288E+01  0.51100000000E-03 0. -1.
        -11    1    3    3    0    0  0.76042223747E+01  0.97040701434E+01 -0.33863785143E+02  0.36038161992E+02  0.51100000000E-03 0.  1.
         12    1    3    3    0    0  0.18613412548E+01  0.15647470325E+01  0.17460089240E+01  0.29935884328E+01  0.00000000000E+00 0. -1.
</event>
<event>
 7    1  0.2318319E-009  0.4778727E+02  0.7816164E-02  0.1312668E+00
        -11   -1    0    0    0    0  0.00000000000E+00  0.00000000000E+00  0.45593999997E+02  0.45594000000E+02  0.51100000000E-03 0. -1.
         11   -1    0    0    0    0 -0.00000000000E+00 -0.00000000000E+00 -0.45593999997E+02  0.45594000000E+02  0.51100000000E-03 0.  1.
    9900012    2    1    2    0    0  0.26779083086E+02 -0.26868556168E+02 -0.21085187264E+02  0.47787265865E+02  0.19999976386E+02 0.  0.
         12    1    1    2    0    0 -0.26779083086E+02  0.26868556168E+02  0.21085187264E+02  0.43400734135E+02  0.00000000000E+00 0. -1.
         11    1    3    3    0    0 -0.59322771427E-01 -0.43940314011E+01 -0.24344291447E+01  0.50236915378E+01  0.51100000000E-03 0. -1.
        -11    1    3    3    0    0  0.16193061930E+02 -0.13053100212E+02 -0.20377890222E+01  0.20898594790E+02  0.51100000000E-03 0.  1.
         12    1    3    3    0    0  0.10645343928E+02 -0.94214245544E+01 -0.16612969097E+02  0.21864979538E+02  0.00000000000E+00 0. -1.
</event>
<event>
 7    1  0.2318319E-009  0.4778727E+02  0.7816164E-02  0.1312668E+00
        -11   -1    0    0    0    0  0.00000000000E+00  0.00000000000E+00  0.45593999997E+02  0.45594000000E+02  0.51100000000E-03 0.  1.
         11   -1    0    0    0    0 -0.00000000000E+00 -0.00000000000E+00 -0.45593999997E+02  0.45594000000E+02  0.51100000000E-03 0. -1.
    9900012    2    1    2    0    0  0.27206687094E+02 -0.14129305816E+02  0.30721038615E+02  0.47787270524E+02  0.19999997628E+02 0.  0.
         12    1    1    2    0    0 -0.27206687094E+02  0.14129305816E+02 -0.30721038615E+02  0.43400729476E+02  0.00000000000E+00 0. -1.
         11    1    3    3    0    0  0.15408981788E+02  0.21777033649E+00  0.15449505576E+02  0.21821351161E+02  0.51100000000E-03 0. -1.
        -11    1    3    3    0    0  0.10279769343E+02 -0.52943198459E+01  0.10507878689E+02  0.15624307831E+02  0.51100000000E-03 0.  1.
        -12    1    3    3    0    0  0.15179359629E+01 -0.90527563067E+01  0.47636543491E+01  0.10341611533E+02  0.00000000000E+00 0.  1.
</event>
<event>
 7    1  0.2318319E-009  0.4778727E+02  0.7816164E-02  0.1312668E+00
        -11   -1    0    0    0    0  0.00000000000E+00  0.00000000000E+00  0.45593999997E+02  0.45594000000E+02  0.51100000000E-03 0.  1.
         11   -1    0    0    0    0 -0.00000000000E+00 -0.00000000000E+00 -0.45593999997E+02  0.45594000000E+02  0.51100000000E-03 0. -1.
    9900012    2    1    2    0    0 -0.40003398980E+02  0.14257715328E+02  0.89481186712E+01  0.47787271848E+02  0.20000003664E+02 0.  0.
         12    1    1    2    0    0  0.40003398980E+02 -0.14257715328E+02 -0.89481186712E+01  0.43400728152E+02  0.00000000000E+00 0. -1.
         11    1    3    3    0    0 -0.28992206679E+01 -0.10059001695E+00  0.49745510419E+01  0.57586245895E+01  0.51100000000E-03 0. -1.
        -11    1    3    3    0    0 -0.50672343703E+01  0.52104084151E+01  0.47842177841E+01  0.87013769073E+01  0.51100000000E-03 0.  1.
         12    1    3    3    0    0 -0.32036943942E+02  0.91478969299E+01 -0.81065015486E+00  0.33327270351E+02  0.00000000000E+00 0. -1.
</event>
<event>
 7    1  0.2318319E-009  0.4778727E+02  0.7816164E-02  0.1312668E+00
        -11   -1    0    0    0    0  0.00000000000E+00  0.00000000000E+00  0.45593999997E+02  0.45594000000E+02  0.51100000000E-03 0.  1.
         11   -1    0    0    0    0 -0.00000000000E+00 -0.00000000000E+00 -0.45593999997E+02  0.45594000000E+02  0.51100000000E-03 0. -1.
    9900012    2    1    2    0    0 -0.33581818122E+02  0.26875072725E+02  0.57978529383E+01  0.47787272575E+02  0.20000006977E+02 0.  0.
         12    1    1    2    0    0  0.33581818122E+02 -0.26875072725E+02 -0.57978529383E+01  0.43400727425E+02  0.00000000000E+00 0. -1.
         11    1    3    3    0    0 -0.30570459113E+01  0.63667847834E+01 -0.10331170589E+01  0.71378434629E+01  0.51100000000E-03 0.  1.
        -11    1    3    3    0    0 -0.15852740240E+02  0.70049109203E+01 -0.42393547259E+01  0.17842373129E+02  0.51100000000E-03 0. -1.
         12    1    3    3    0    0 -0.14672031970E+02  0.13503377021E+02  0.11070324723E+02  0.22807055983E+02  0.00000000000E+00 0. -1.
</event>
<event>
 7    1  0.2318319E-009  0.4778726E+02  0.7816164E-02  0.1312668E+00
        -11   -1    0    0    0    0  0.00000000000E+00  0.00000000000E+00  0.45593999997E+02  0.45594000000E+02  0.51100000000E-03 0.  1.
         11   -1    0    0    0    0 -0.00000000000E+00 -0.00000000000E+00 -0.45593999997E+02  0.45594000000E+02  0.51100000000E-03 0. -1.
    9900012    2    1    2    0    0 -0.29073162982E+01 -0.21572000181E+02  0.37547580514E+02  0.47787257123E+02  0.19999936525E+02 0.  0.
         12    1    1    2    0    0  0.29073162982E+01  0.21572000181E+02 -0.37547580514E+02  0.43400742877E+02  0.00000000000E+00 0. -1.
         11    1    3    3    0    0 -0.81037210437E+01 -0.54373808187E+01  0.16347461512E+02  0.19038773676E+02  0.51100000000E-03 0.  1.
        -11    1    3    3    0    0  0.16379827983E+01  0.52602346424E+00  0.23848020834E+00  0.17368250929E+01  0.51100000000E-03 0. -1.
        -12    1    3    3    0    0  0.35584219472E+01 -0.16660642826E+02  0.20961638794E+02  0.27011658354E+02  0.00000000000E+00 0.  1.
</event>
<event>
 7    1  0.2318319E-009  0.4778727E+02  0.7816164E-02  0.1312668E+00
        -11   -1    0    0    0    0  0.00000000000E+00  0.00000000000E+00  0.45593999997E+02  0.45594000000E+02  0.51100000000E-03 0. -1.
         11   -1    0    0    0    0 -0.00000000000E+00 -0.00000000000E+00 -0.45593999997E+02  0.45594000000E+02  0.51100000000E-03 0.  1.
    9900012    2    1    2    0    0 -0.20531997098E+02 -0.30599239839E+02 -0.22929169589E+02  0.47787271877E+02  0.20000003796E+02 0.  0.
         12    1    1    2    0    0  0.20531997098E+02  0.30599239839E+02  0.22929169589E+02  0.43400728123E+02  0.00000000000E+00 0. -1.
         11    1    3    3    0    0 -0.11620647986E+02 -0.14274150299E+02 -0.65078747174E+01  0.19522890666E+02  0.51100000000E-03 0. -1.
        -11    1    3    3    0    0 -0.11826413435E+02 -0.14372276755E+02 -0.16320059633E+02  0.24754206522E+02  0.51100000000E-03 0.  1.
         12    1    3    3    0    0  0.29150643216E+01 -0.19528127849E+01 -0.10123523796E+00  0.35101746887E+01  0.00000000000E+00 0. -1.
</event>
<event>
 7    1  0.2318319E-009  0.4778727E+02  0.7816164E-02  0.1312668E+00
        -11   -1    0    0    0    0  0.00000000000E+00  0.00000000000E+00  0.45593999997E+02  0.45594000000E+02  0.51100000000E-03 0.  1.
         11   -1    0    0    0    0 -0.00000000000E+00 -0.00000000000E+00 -0.45593999997E+02  0.45594000000E+02  0.51100000000E-03 0. -1.
    9900012    2    1    2    0    0 -0.31108968471E+02 -0.27835385308E+02 -0.11876300305E+02  0.47787273007E+02  0.20000008950E+02 0.  0.
         12    1    1    2    0    0  0.31108968471E+02  0.27835385308E+02  0.11876300305E+02  0.43400726993E+02  0.00000000000E+00 0. -1.
         11    1    3    3    0    0 -0.16058145395E+01  0.15776288831E+01 -0.14402632263E+01  0.26724355278E+01  0.51100000000E-03 0. -1.
        -11    1    3    3    0    0  0.13782019278E+01 -0.27832075862E+01 -0.51991183603E+00  0.31489670687E+01  0.51100000000E-03 0.  1.
        -12    1    3    3    0    0 -0.30881355859E+02 -0.26629806605E+02 -0.99161252425E+01  0.41965870411E+02  0.00000000000E+00 0.  1.
</event>
<event>
 7    1  0.2318319E-009  0.4778729E+02  0.7816164E-02  0.1312668E+00
        -11   -1    0    0    0    0  0.00000000000E+00  0.00000000000E+00  0.45593999997E+02  0.45594000000E+02  0.51100000000E-03 0.  1.
         11   -1    0    0    0    0 -0.00000000000E+00 -0.00000000000E+00 -0.45593999997E+02  0.45594000000E+02  0.51100000000E-03 0. -1.
    9900012    2    1    2    0    0 -0.40298800211E+01 -0.20374062941E+02  0.38108785648E+02  0.47787286673E+02  0.20000071257E+02 0.  0.
         12    1    1    2    0    0  0.40298800211E+01  0.20374062941E+02 -0.38108785648E+02  0.43400713327E+02  0.00000000000E+00 0. -1.
         11    1    3    3    0    0 -0.78323266804E+01 -0.55359151709E+01  0.14135843879E+02  0.17082557784E+02  0.51100000000E-03 0. -1.
        -11    1    3    3    0    0 -0.72148367389E+00 -0.14637728251E+02  0.18149816976E+02  0.23328083581E+02  0.51100000000E-03 0.  1.
         12    1    3    3    0    0  0.45239303332E+01 -0.20041951898E+00  0.58231247930E+01  0.73766453079E+01  0.00000000000E+00 0. -1.
</event>
<event>
 7    1  0.2318319E-009  0.4778727E+02  0.7816164E-02  0.1312668E+00
        -11   -1    0    0    0    0  0.00000000000E+00  0.00000000000E+00  0.45593999997E+02  0.45594000000E+02  0.51100000000E-03 0. -1.
         11   -1    0    0    0    0 -0.00000000000E+00 -0.00000000000E+00 -0.45593999997E+02  0.45594000000E+02  0.51100000000E-03 0.  1.
    9900012    2    1    2    0    0  0.24518340038E+02  0.26588862566E+02 -0.23989718318E+02  0.47787271945E+02  0.20000004105E+02 0.  0.
         12    1    1    2    0    0 -0.24518340038E+02 -0.26588862566E+02  0.23989718318E+02  0.43400728055E+02  0.00000000000E+00 0. -1.
         11    1    3    3    0    0  0.12508439555E+02  0.90507207744E+01 -0.16279531169E+02  0.22436571529E+02  0.51100000000E-03 0. -1.
        -11    1    3    3    0    0  0.96297891369E+01  0.12583966637E+02 -0.10674659657E+02  0.19105952324E+02  0.51100000000E-03 0.  1.
         12    1    3    3    0    0  0.23801113462E+01  0.49541751547E+01  0.29644725082E+01  0.62447480923E+01  0.00000000000E+00 0. -1.
</event>
<event>
 7    1  0.2318319E-009  0.4778727E+02  0.7816164E-02  0.1312668E+00
        -11   -1    0    0    0    0  0.00000000000E+00  0.00000000000E+00  0.45593999997E+02  0.45594000000E+02  0.51100000000E-03 0.  1.
         11   -1    0    0    0    0 -0.00000000000E+00 -0.00000000000E+00 -0.45593999997E+02  0.45594000000E+02  0.51100000000E-03 0. -1.
    9900012    2    1    2    0    0  0.67543353461E+01  0.13727987965E+02  0.40614586796E+02  0.47787270051E+02  0.19999995470E+02 0.  0.
         12    1    1    2    0    0 -0.67543353461E+01 -0.13727987965E+02 -0.40614586796E+02  0.43400729949E+02  0.00000000000E+00 0. -1.
         11    1    3    3    0    0 -0.26375725222E+00  0.12244345041E+01  0.17190126080E+02  0.17235696756E+02  0.51100000000E-03 0. -1.
        -11    1    3    3    0    0  0.52796158148E+01  0.38609485802E+01  0.20087292083E+02  0.21125353739E+02  0.51100000000E-03 0.  1.
         12    1    3    3    0    0  0.17384767835E+01  0.86426048805E+01  0.33371686323E+01  0.94262195566E+01  0.00000000000E+00 0. -1.
</event>
<event>
 7    1  0.2318319E-009  0.4778727E+02  0.7816164E-02  0.1312668E+00
        -11   -1    0    0    0    0  0.00000000000E+00  0.00000000000E+00  0.45593999997E+02  0.45594000000E+02  0.51100000000E-03 0. -1.
         11   -1    0    0    0    0 -0.00000000000E+00 -0.00000000000E+00 -0.45593999997E+02  0.45594000000E+02  0.51100000000E-03 0.  1.
    9900012    2    1    2    0    0  0.66769556327E+01  0.31539250791E+02  0.29057138806E+02  0.47787269677E+02  0.19999993763E+02 0.  0.
         12    1    1    2    0    0 -0.66769556327E+01 -0.31539250791E+02 -0.29057138806E+02  0.43400730323E+02  0.00000000000E+00 0. -1.
         11    1    3    3    0    0  0.52232717021E+01  0.94005932467E+01  0.44421053102E+01  0.11635549859E+02  0.51100000000E-03 0. -1.
        -11    1    3    3    0    0 -0.34157806254E+01  0.18419676960E+02  0.12340892534E+02  0.22433227262E+02  0.51100000000E-03 0.  1.
         12    1    3    3    0    0  0.48694645561E+01  0.37189805846E+01  0.12274140962E+02  0.13718492556E+02  0.00000000000E+00 0. -1.
</event>
<event>
 7    1  0.2318319E-009  0.4778727E+02  0.7816164E-02  0.1312668E+00
        -11   -1    0    0    0    0  0.00000000000E+00  0.00000000000E+00  0.45593999997E+02  0.45594000000E+02  0.51100000000E-03 0.  1.
         11   -1    0    0    0    0 -0.00000000000E+00 -0.00000000000E+00 -0.45593999997E+02  0.45594000000E+02  0.51100000000E-03 0. -1.
    9900012    2    1    2    0    0  0.18426344810E+02 -0.33225347463E+02  0.20980226370E+02  0.47787265034E+02  0.19999972596E+02 0.  0.
         12    1    1    2    0    0 -0.18426344810E+02  0.33225347463E+02 -0.20980226370E+02  0.43400734966E+02  0.00000000000E+00 0. -1.
         11    1    3    3    0    0  0.12428302679E+02 -0.26774900207E+02  0.23788072863E+02  0.37910821666E+02  0.51100000000E-03 0. -1.
        -11    1    3    3    0    0  0.39437831860E+01 -0.42847846655E+01 -0.66785964712E-01  0.58238531982E+01  0.51100000000E-03 0.  1.
         12    1    3    3    0    0  0.20542589449E+01 -0.21656625897E+01 -0.27410605284E+01  0.40525901699E+01  0.00000000000E+00 0. -1.
</event>
<event>
 7    1  0.2318319E-009  0.4778727E+02  0.7816164E-02  0.1312668E+00
        -11   -1    0    0    0    0  0.00000000000E+00  0.00000000000E+00  0.45593999997E+02  0.45594000000E+02  0.51100000000E-03 0.  1.
         11   -1    0    0    0    0 -0.00000000000E+00 -0.00000000000E+00 -0.45593999997E+02  0.45594000000E+02  0.51100000000E-03 0. -1.
    9900012    2    1    2    0    0  0.22265618816E+02 -0.28048419634E+02  0.24518395830E+02  0.47787270061E+02  0.19999995514E+02 0.  0.
         12    1    1    2    0    0 -0.22265618816E+02  0.28048419634E+02 -0.24518395830E+02  0.43400729939E+02  0.00000000000E+00 0. -1.
         11    1    3    3    0    0  0.76196292956E+00 -0.59627310012E+01  0.85365004182E+01  0.10440622019E+02  0.51100000000E-03 0. -1.
        -11    1    3    3    0    0  0.11499205706E+02 -0.20306445233E+02  0.89706955488E+01  0.25001136549E+02  0.51100000000E-03 0.  1.
         12    1    3    3    0    0  0.10004450180E+02 -0.17792434000E+01  0.70111998629E+01  0.12345511492E+02  0.00000000000E+00 0. -1.
</event>
<event>
 7    1  0.2318319E-009  0.4778722E+02  0.7816164E-02  0.1312668E+00
        -11   -1    0    0    0    0  0.00000000000E+00  0.00000000000E+00  0.45593999997E+02  0.45594000000E+02  0.51100000000E-03 0.  1.
         11   -1    0    0    0    0 -0.00000000000E+00 -0.00000000000E+00 -0.45593999997E+02  0.45594000000E+02  0.51100000000E-03 0. -1.
    9900012    2    1    2    0    0 -0.43396892795E+01 -0.96048673246E+01  0.42101562018E+02  0.47787217706E+02  0.19999756806E+02 0.  0.
         12    1    1    2    0    0  0.43396892795E+01  0.96048673246E+01 -0.42101562018E+02  0.43400782294E+02  0.00000000000E+00 0. -1.
         11    1    3    3    0    0  0.52096186885E+01 -0.21171327992E+01  0.82679147563E+01  0.99990395963E+01  0.51100000000E-03 0. -1.
        -11    1    3    3    0    0  0.25827222683E+00 -0.65109031402E+01  0.93629434948E+01  0.11407158954E+02  0.51100000000E-03 0.  1.
        -12    1    3    3    0    0 -0.98075801948E+01 -0.97683138520E+00  0.24470703767E+02  0.26381019156E+02  0.00000000000E+00 0.  1.
</event>
<event>
 7    1  0.2318319E-009  0.4778728E+02  0.7816164E-02  0.1312668E+00
        -11   -1    0    0    0    0  0.00000000000E+00  0.00000000000E+00  0.45593999997E+02  0.45594000000E+02  0.51100000000E-03 0.  1.
         11   -1    0    0    0    0 -0.00000000000E+00 -0.00000000000E+00 -0.45593999997E+02  0.45594000000E+02  0.51100000000E-03 0. -1.
    9900012    2    1    2    0    0  0.89505475379E+01 -0.12360880778E+02  0.40629044248E+02  0.47787275221E+02  0.20000019043E+02 0.  0.
         12    1    1    2    0    0 -0.89505475379E+01  0.12360880778E+02 -0.40629044248E+02  0.43400724779E+02  0.00000000000E+00 0. -1.
         11    1    3    3    0    0  0.53881629174E+01  0.28415927184E+01  0.14319704472E+02  0.15561519374E+02  0.51100000000E-03 0. -1.
        -11    1    3    3    0    0  0.13632137115E+01 -0.59321256495E+01  0.19729042353E+02  0.20646636016E+02  0.51100000000E-03 0.  1.
        -12    1    3    3    0    0  0.21991709090E+01 -0.92703478469E+01  0.65802974233E+01  0.11579119831E+02  0.00000000000E+00 0.  1.
</event>
<event>
 7    1  0.2318319E-009  0.4778727E+02  0.7816164E-02  0.1312668E+00
        -11   -1    0    0    0    0  0.00000000000E+00  0.00000000000E+00  0.45593999997E+02  0.45594000000E+02  0.51100000000E-03 0.  1.
         11   -1    0    0    0    0 -0.00000000000E+00 -0.00000000000E+00 -0.45593999997E+02  0.45594000000E+02  0.51100000000E-03 0. -1.
    9900012    2    1    2    0    0 -0.38567161932E+02 -0.41934705173E+01  0.19457954469E+02  0.47787272281E+02  0.20000005638E+02 0.  0.
         12    1    1    2    0    0  0.38567161932E+02  0.41934705173E+01 -0.19457954469E+02  0.43400727719E+02  0.00000000000E+00 0. -1.
         11    1    3    3    0    0 -0.56174140341E+01 -0.16847687820E+01  0.34159280793E+01  0.67869250168E+01  0.51100000000E-03 0. -1.
        -11    1    3    3    0    0 -0.22974366156E+02 -0.10073103279E+02  0.12267760243E+02  0.27924663858E+02  0.51100000000E-03 0.  1.
         12    1    3    3    0    0 -0.99753817416E+01  0.75644015434E+01  0.37742661465E+01  0.13075683406E+02  0.00000000000E+00 0. -1.
</event>
<event>
 7    1  0.2318319E-009  0.4778727E+02  0.7816164E-02  0.1312668E+00
        -11   -1    0    0    0    0  0.00000000000E+00  0.00000000000E+00  0.45593999997E+02  0.45594000000E+02  0.51100000000E-03 0. -1.
         11   -1    0    0    0    0 -0.00000000000E+00 -0.00000000000E+00 -0.45593999997E+02  0.45594000000E+02  0.51100000000E-03 0.  1.
    9900012    2    1    2    0    0  0.15361580215E+02  0.74069168308E+01 -0.39909682711E+02  0.47787270309E+02  0.19999996648E+02 0.  0.
         12    1    1    2    0    0 -0.15361580215E+02 -0.74069168308E+01  0.39909682711E+02  0.43400729691E+02  0.00000000000E+00 0. -1.
         11    1    3    3    0    0  0.10753882958E+01  0.83776382009E+00  0.90590833906E+00  0.16367584992E+01  0.51100000000E-03 0. -1.
        -11    1    3    3    0    0  0.10369107935E+02  0.13945184188E+01 -0.93788349923E+01  0.14050823003E+02  0.51100000000E-03 0.  1.
        -12    1    3    3    0    0  0.39170839842E+01  0.51746345918E+01 -0.31436756057E+02  0.32099688807E+02  0.00000000000E+00 0.  1.
</event>
<event>
 7    1  0.2318319E-009  0.4778725E+02  0.7816164E-02  0.1312668E+00
        -11   -1    0    0    0    0  0.00000000000E+00  0.00000000000E+00  0.45593999997E+02  0.45594000000E+02  0.51100000000E-03 0. -1.
         11   -1    0    0    0    0 -0.00000000000E+00 -0.00000000000E+00 -0.45593999997E+02  0.45594000000E+02  0.51100000000E-03 0.  1.
    9900012    2    1    2    0    0 -0.78511207539E+01 -0.35489917716E+02 -0.23716045137E+02  0.47787249390E+02  0.19999901270E+02 0.  0.
         12    1    1    2    0    0  0.78511207539E+01  0.35489917716E+02  0.23716045137E+02  0.43400750610E+02  0.00000000000E+00 0. -1.
         11    1    3    3    0    0 -0.15387433602E+01 -0.13312353791E+02 -0.12689835329E+02  0.18455850442E+02  0.51100000000E-03 0. -1.
        -11    1    3    3    0    0 -0.81258041296E+01 -0.23296072716E+02 -0.86623378075E+01  0.26149030447E+02  0.51100000000E-03 0.  1.
         12    1    3    3    0    0  0.18134267359E+01  0.11185087923E+01 -0.23638720007E+01  0.31823685017E+01  0.00000000000E+00 0. -1.
</event>
<event>
 7    1  0.2318319E-009  0.4778727E+02  0.7816164E-02  0.1312668E+00
        -11   -1    0    0    0    0  0.00000000000E+00  0.00000000000E+00  0.45593999997E+02  0.45594000000E+02  0.51100000000E-03 0.  1.
         11   -1    0    0    0    0 -0.00000000000E+00 -0.00000000000E+00 -0.45593999997E+02  0.45594000000E+02  0.51100000000E-03 0. -1.
    9900012    2    1    2    0    0  0.55753785603E+01 -0.17641232451E+02  0.39259720279E+02  0.47787267692E+02  0.19999984714E+02 0.  0.
         12    1    1    2    0    0 -0.55753785603E+01  0.17641232451E+02 -0.39259720279E+02  0.43400732308E+02  0.00000000000E+00 0. -1.
         11    1    3    3    0    0 -0.89038436204E-01 -0.75403870289E+01  0.87595377764E+00  0.75916177242E+01  0.51100000000E-03 0. -1.
        -11    1    3    3    0    0  0.52941107647E+00 -0.33751827829E+01  0.93846530917E+01  0.99871842287E+01  0.51100000000E-03 0.  1.
        -12    1    3    3    0    0  0.51350059200E+01 -0.67256626390E+01  0.28999113410E+02  0.30208465739E+02  0.00000000000E+00 0.  1.
</event>
<event>
 7    1  0.2318319E-009  0.4778727E+02  0.7816164E-02  0.1312668E+00
        -11   -1    0    0    0    0  0.00000000000E+00  0.00000000000E+00  0.45593999997E+02  0.45594000000E+02  0.51100000000E-03 0.  1.
         11   -1    0    0    0    0 -0.00000000000E+00 -0.00000000000E+00 -0.45593999997E+02  0.45594000000E+02  0.51100000000E-03 0. -1.
    9900012    2    1    2    0    0 -0.28674386141E+02  0.31908560154E+02  0.65762329025E+01  0.47787268775E+02  0.19999989654E+02 0.  0.
         12    1    1    2    0    0  0.28674386141E+02 -0.31908560154E+02 -0.65762329025E+01  0.43400731225E+02  0.00000000000E+00 0. -1.
         11    1    3    3    0    0 -0.20221411304E+01  0.58347831202E+01  0.55676713281E+01  0.83146084148E+01  0.51100000000E-03 0. -1.
        -11    1    3    3    0    0 -0.17396651308E+01  0.85970385376E+00  0.34338815779E+01  0.39442449767E+01  0.51100000000E-03 0.  1.
        -12    1    3    3    0    0 -0.24912579879E+02  0.25214073180E+02 -0.24253200036E+01  0.35528415384E+02  0.00000000000E+00 0.  1.
</event>
<event>
 7    1  0.2318319E-009  0.4778726E+02  0.7816164E-02  0.1312668E+00
        -11   -1    0    0    0    0  0.00000000000E+00  0.00000000000E+00  0.45593999997E+02  0.45594000000E+02  0.51100000000E-03 0.  1.
         11   -1    0    0    0    0 -0.00000000000E+00 -0.00000000000E+00 -0.45593999997E+02  0.45594000000E+02  0.51100000000E-03 0. -1.
    9900012    2    1    2    0    0 -0.72712609989E-02 -0.26588835158E+02  0.34302447176E+02  0.47787261639E+02  0.19999957119E+02 0.  0.
         12    1    1    2    0    0  0.72712609989E-02  0.26588835158E+02 -0.34302447176E+02  0.43400738361E+02  0.00000000000E+00 0. -1.
         11    1    3    3    0    0 -0.15242360666E+01 -0.20007248397E+01  0.82618565202E+00  0.26474097650E+01  0.51100000000E-03 0.  1.
        -11    1    3    3    0    0  0.92252331638E+01 -0.12444940426E+02  0.13658431077E+02  0.20652704638E+02  0.51100000000E-03 0. -1.
        -12    1    3    3    0    0 -0.77082683582E+01 -0.12143169893E+02  0.19817830448E+02  0.24487147236E+02  0.00000000000E+00 0.  1.
</event>
<event>
 7    1  0.2318319E-009  0.4778727E+02  0.7816164E-02  0.1312668E+00
        -11   -1    0    0    0    0  0.00000000000E+00  0.00000000000E+00  0.45593999997E+02  0.45594000000E+02  0.51100000000E-03 0.  1.
         11   -1    0    0    0    0 -0.00000000000E+00 -0.00000000000E+00 -0.45593999997E+02  0.45594000000E+02  0.51100000000E-03 0. -1.
    9900012    2    1    2    0    0  0.14840904342E+02 -0.14656967381E+02  0.38059749234E+02  0.47787266755E+02  0.19999980441E+02 0.  0.
         12    1    1    2    0    0 -0.14840904342E+02  0.14656967381E+02 -0.38059749234E+02  0.43400733245E+02  0.00000000000E+00 0. -1.
         11    1    3    3    0    0  0.12848720320E+02 -0.61927666741E+01  0.19132588072E+02  0.23864113215E+02  0.51100000000E-03 0. -1.
        -11    1    3    3    0    0  0.20114459534E+01 -0.21909857096E+01  0.17145843289E+02  0.17401904366E+02  0.51100000000E-03 0.  1.
        -12    1    3    3    0    0 -0.19261931281E-01 -0.62732149970E+01  0.17813178728E+01  0.65212491737E+01  0.00000000000E+00 0.  1.
</event>
<event>
 7    1  0.2318319E-009  0.4778727E+02  0.7816164E-02  0.1312668E+00
        -11   -1    0    0    0    0  0.00000000000E+00  0.00000000000E+00  0.45593999997E+02  0.45594000000E+02  0.51100000000E-03 0.  1.
         11   -1    0    0    0    0 -0.00000000000E+00 -0.00000000000E+00 -0.45593999997E+02  0.45594000000E+02  0.51100000000E-03 0. -1.
    9900012    2    1    2    0    0  0.31846250211E+02  0.23359218627E+02  0.17994079501E+02  0.47787266775E+02  0.19999980534E+02 0.  0.
         12    1    1    2    0    0 -0.31846250211E+02 -0.23359218627E+02 -0.17994079501E+02  0.43400733225E+02  0.00000000000E+00 0. -1.
         11    1    3    3    0    0  0.17729957681E+02  0.89894753645E+01  0.20685490703E+01  0.19986019169E+02  0.51100000000E-03 0. -1.
        -11    1    3    3    0    0  0.25530663014E+01  0.35928701916E+01 -0.11272338769E+01  0.45494527393E+01  0.51100000000E-03 0.  1.
        -12    1    3    3    0    0  0.11563226228E+02  0.10776873071E+02  0.17052764308E+02  0.23251794867E+02  0.00000000000E+00 0.  1.
</event>
<event>
 7    1  0.2318319E-009  0.4778727E+02  0.7816164E-02  0.1312668E+00
        -11   -1    0    0    0    0  0.00000000000E+00  0.00000000000E+00  0.45593999997E+02  0.45594000000E+02  0.51100000000E-03 0.  1.
         11   -1    0    0    0    0 -0.00000000000E+00 -0.00000000000E+00 -0.45593999997E+02  0.45594000000E+02  0.51100000000E-03 0. -1.
    9900012    2    1    2    0    0  0.10905232759E+02  0.36255767322E+02  0.21218353846E+02  0.47787270679E+02  0.19999998333E+02 0.  0.
         12    1    1    2    0    0 -0.10905232759E+02 -0.36255767322E+02 -0.21218353846E+02  0.43400729321E+02  0.00000000000E+00 0. -1.
         11    1    3    3    0    0  0.45854072677E+01  0.11455045525E+02  0.22807034068E+01  0.12547734301E+02  0.51100000000E-03 0. -1.
        -11    1    3    3    0    0  0.60689422118E+01  0.25892783343E+02  0.13762609111E+02  0.29944577116E+02  0.51100000000E-03 0.  1.
        -12    1    3    3    0    0  0.25088327957E+00 -0.10920615461E+01  0.51750413283E+01  0.52949592624E+01  0.00000000000E+00 0.  1.
</event>
<event>
 7    1  0.2318319E-009  0.4778727E+02  0.7816164E-02  0.1312668E+00
        -11   -1    0    0    0    0  0.00000000000E+00  0.00000000000E+00  0.45593999997E+02  0.45594000000E+02  0.51100000000E-03 0. -1.
         11   -1    0    0    0    0 -0.00000000000E+00 -0.00000000000E+00 -0.45593999997E+02  0.45594000000E+02  0.51100000000E-03 0.  1.
    9900012    2    1    2    0    0 -0.37458679488E+02 -0.21752210256E+02  0.27040424051E+01  0.47787272295E+02  0.20000005704E+02 0.  0.
         12    1    1    2    0    0  0.37458679488E+02  0.21752210256E+02 -0.27040424051E+01  0.43400727705E+02  0.00000000000E+00 0. -1.
         11    1    3    3    0    0 -0.14610905314E+02 -0.11786592236E+02  0.42125445806E+01  0.19239226667E+02  0.51100000000E-03 0. -1.
        -11    1    3    3    0    0 -0.19920206445E+02 -0.99147820304E+01  0.37156222545E+01  0.22559330143E+02  0.51100000000E-03 0.  1.
         12    1    3    3    0    0 -0.29275677287E+01 -0.50835989344E-01 -0.52241244300E+01  0.59887154853E+01  0.00000000000E+00 0. -1.
</event>
<event>
 7    1  0.2318319E-009  0.4778727E+02  0.7816164E-02  0.1312668E+00
        -11   -1    0    0    0    0  0.00000000000E+00  0.00000000000E+00  0.45593999997E+02  0.45594000000E+02  0.51100000000E-03 0.  1.
         11   -1    0    0    0    0 -0.00000000000E+00 -0.00000000000E+00 -0.45593999997E+02  0.45594000000E+02  0.51100000000E-03 0. -1.
    9900012    2    1    2    0    0  0.32001481402E+02 -0.29259671719E+02  0.18439441908E+01  0.47787270384E+02  0.19999996989E+02 0.  0.
         12    1    1    2    0    0 -0.32001481402E+02  0.29259671719E+02 -0.18439441908E+01  0.43400729616E+02  0.00000000000E+00 0. -1.
         11    1    3    3    0    0  0.10412385422E+01 -0.69247856505E+01  0.19911608665E+01  0.72802167458E+01  0.51100000000E-03 0. -1.
        -11    1    3    3    0    0  0.19396394406E+02 -0.21175506401E+02 -0.17787284471E+01  0.28771271478E+02  0.51100000000E-03 0.  1.
         12    1    3    3    0    0  0.11563848453E+02 -0.11593796682E+01  0.16315117714E+01  0.11735782161E+02  0.00000000000E+00 0. -1.
</event>
<event>
 7    1  0.2318319E-009  0.4778727E+02  0.7816164E-02  0.1312668E+00
        -11   -1    0    0    0    0  0.00000000000E+00  0.00000000000E+00  0.45593999997E+02  0.45594000000E+02  0.51100000000E-03 0. -1.
         11   -1    0    0    0    0 -0.00000000000E+00 -0.00000000000E+00 -0.45593999997E+02  0.45594000000E+02  0.51100000000E-03 0.  1.
    9900012    2    1    2    0    0  0.41305509145E+02  0.93824930202E+01  0.94576405790E+01  0.47787271592E+02  0.20000002496E+02 0.  0.
         12    1    1    2    0    0 -0.41305509145E+02 -0.93824930202E+01 -0.94576405790E+01  0.43400728408E+02  0.00000000000E+00 0. -1.
         11    1    3    3    0    0  0.53165178033E+01  0.28852429582E+01 -0.61955322018E+00  0.60806113948E+01  0.51100000000E-03 0. -1.
        -11    1    3    3    0    0  0.26515304425E+02 -0.32864631815E+01  0.82678718410E+01  0.27968194687E+02  0.51100000000E-03 0.  1.
         12    1    3    3    0    0  0.94736869173E+01  0.97837132434E+01  0.18093219581E+01  0.13738465511E+02  0.00000000000E+00 0. -1.
</event>
<event>
 7    1  0.2318319E-009  0.4778728E+02  0.7816164E-02  0.1312668E+00
        -11   -1    0    0    0    0  0.00000000000E+00  0.00000000000E+00  0.45593999997E+02  0.45594000000E+02  0.51100000000E-03 0.  1.
         11   -1    0    0    0    0 -0.00000000000E+00 -0.00000000000E+00 -0.45593999997E+02  0.45594000000E+02  0.51100000000E-03 0. -1.
    9900012    2    1    2    0    0 -0.22114622178E+02  0.46988170147E+01  0.37047094251E+02  0.47787278948E+02  0.20000036035E+02 0.  0.
         12    1    1    2    0    0  0.22114622178E+02 -0.46988170147E+01 -0.37047094251E+02  0.43400721052E+02  0.00000000000E+00 0. -1.
         11    1    3    3    0    0 -0.54027235665E+01  0.22651170979E+01  0.15816438117E+01  0.60680948256E+01  0.51100000000E-03 0. -1.
        -11    1    3    3    0    0 -0.10257228255E+02  0.65741351846E+01  0.12278936233E+02  0.17297463981E+02  0.51100000000E-03 0.  1.
        -12    1    3    3    0    0 -0.64546703566E+01 -0.41404352678E+01  0.23186514207E+02  0.24421720142E+02  0.00000000000E+00 0.  1.
</event>
<event>
 7    1  0.2318319E-009  0.4778727E+02  0.7816164E-02  0.1312668E+00
        -11   -1    0    0    0    0  0.00000000000E+00  0.00000000000E+00  0.45593999997E+02  0.45594000000E+02  0.51100000000E-03 0.  1.
         11   -1    0    0    0    0 -0.00000000000E+00 -0.00000000000E+00 -0.45593999997E+02  0.45594000000E+02  0.51100000000E-03 0. -1.
    9900012    2    1    2    0    0 -0.11798220577E+02  0.34315173106E+02  0.23809533030E+02  0.47787274462E+02  0.20000015583E+02 0.  0.
         12    1    1    2    0    0  0.11798220577E+02 -0.34315173106E+02 -0.23809533030E+02  0.43400725538E+02  0.00000000000E+00 0. -1.
         11    1    3    3    0    0 -0.44148897444E+01  0.18444186921E+02  0.11991908687E+02  0.22438474922E+02  0.51100000000E-03 0. -1.
        -11    1    3    3    0    0 -0.25677181631E+01  0.11479253937E+02 -0.10237544825E+00  0.11763372327E+02  0.51100000000E-03 0.  1.
        -12    1    3    3    0    0 -0.48156126693E+01  0.43917322486E+01  0.11919999792E+02  0.13585427213E+02  0.00000000000E+00 0.  1.
</event>
<event>
 7    1  0.2318319E-009  0.4778727E+02  0.7816164E-02  0.1312668E+00
        -11   -1    0    0    0    0  0.00000000000E+00  0.00000000000E+00  0.45593999997E+02  0.45594000000E+02  0.51100000000E-03 0.  1.
         11   -1    0    0    0    0 -0.00000000000E+00 -0.00000000000E+00 -0.45593999997E+02  0.45594000000E+02  0.51100000000E-03 0. -1.
    9900012    2    1    2    0    0 -0.20907048597E+02 -0.53126169460E+01  0.37660250292E+02  0.47787273832E+02  0.20000012710E+02 0.  0.
         12    1    1    2    0    0  0.20907048597E+02  0.53126169460E+01 -0.37660250292E+02  0.43400726168E+02  0.00000000000E+00 0. -1.
         11    1    3    3    0    0 -0.18402253821E+01 -0.78899734560E+01  0.20112133613E+02  0.21682620444E+02  0.51100000000E-03 0. -1.
        -11    1    3    3    0    0 -0.41562618396E+01  0.86577049681E+00  0.29672012798E+01  0.51796095151E+01  0.51100000000E-03 0.  1.
         12    1    3    3    0    0 -0.14910561375E+02  0.17115860132E+01  0.14580915399E+02  0.20925043873E+02  0.00000000000E+00 0. -1.
</event>
<event>
 7    1  0.2318319E-009  0.4778727E+02  0.7816164E-02  0.1312668E+00
        -11   -1    0    0    0    0  0.00000000000E+00  0.00000000000E+00  0.45593999997E+02  0.45594000000E+02  0.51100000000E-03 0. -1.
         11   -1    0    0    0    0 -0.00000000000E+00 -0.00000000000E+00 -0.45593999997E+02  0.45594000000E+02  0.51100000000E-03 0.  1.
    9900012    2    1    2    0    0 -0.45626226470E+01 -0.34185466582E+02 -0.26346906782E+02  0.47787272496E+02  0.20000006620E+02 0.  0.
         12    1    1    2    0    0  0.45626226470E+01  0.34185466582E+02  0.26346906782E+02  0.43400727504E+02  0.00000000000E+00 0. -1.
         11    1    3    3    0    0 -0.37412542613E+01 -0.64420837942E+01 -0.91805528292E+01  0.11822858266E+02  0.51100000000E-03 0. -1.
        -11    1    3    3    0    0 -0.43502445590E+01 -0.58940578493E+01  0.91829825630E+00  0.73829409860E+01  0.51100000000E-03 0.  1.
        -12    1    3    3    0    0  0.35288761732E+01 -0.21849324939E+02 -0.18084652209E+02  0.28581473245E+02  0.00000000000E+00 0.  1.
</event>
<event>
 7    1  0.2318319E-009  0.4778727E+02  0.7816164E-02  0.1312668E+00
        -11   -1    0    0    0    0  0.00000000000E+00  0.00000000000E+00  0.45593999997E+02  0.45594000000E+02  0.51100000000E-03 0. -1.
         11   -1    0    0    0    0 -0.00000000000E+00 -0.00000000000E+00 -0.45593999997E+02  0.45594000000E+02  0.51100000000E-03 0.  1.
    9900012    2    1    2    0    0  0.38181869418E+02  0.17126451436E+02 -0.11508813940E+02  0.47787270866E+02  0.19999999188E+02 0.  0.
         12    1    1    2    0    0 -0.38181869418E+02 -0.17126451436E+02  0.11508813940E+02  0.43400729134E+02  0.00000000000E+00 0. -1.
         11    1    3    3    0    0  0.46131945308E+01 -0.21921704309E+01  0.44058738516E-01  0.51077506214E+01  0.51100000000E-03 0. -1.
        -11    1    3    3    0    0  0.11804522001E+02  0.42058405489E+01 -0.10183568430E+02  0.16147473506E+02  0.51100000000E-03 0.  1.
         12    1    3    3    0    0  0.21764152886E+02  0.15112781318E+02 -0.13693042478E+01  0.26532046739E+02  0.00000000000E+00 0. -1.
</event>
<event>
 7    1  0.2318319E-009  0.4778726E+02  0.7816164E-02  0.1312668E+00
        -11   -1    0    0    0    0  0.00000000000E+00  0.00000000000E+00  0.45593999997E+02  0.45594000000E+02  0.51100000000E-03 0.  1.
         11   -1    0    0    0    0 -0.00000000000E+00 -0.00000000000E+00 -0.45593999997E+02  0.45594000000E+02  0.51100000000E-03 0. -1.
    9900012    2    1    2    0    0  0.11415672283E+02  0.41585621625E+02  0.48931522570E+01  0.47787257626E+02  0.19999938818E+02 0.  0.
         12    1    1    2    0    0 -0.11415672283E+02 -0.41585621625E+02 -0.48931522570E+01  0.43400742374E+02  0.00000000000E+00 0. -1.
         11    1    3    3    0    0  0.19873761134E+00  0.20437177775E+02  0.16858110151E+01  0.20507552050E+02  0.51100000000E-03 0. -1.
        -11    1    3    3    0    0  0.70370050357E+01  0.21756485327E+02  0.26563958843E+01  0.23020002889E+02  0.51100000000E-03 0.  1.
         12    1    3    3    0    0  0.41799296360E+01 -0.60804147581E+00  0.55094535762E+00  0.42597026874E+01  0.00000000000E+00 0. -1.
</event>
<event>
 7    1  0.2318319E-009  0.4778727E+02  0.7816164E-02  0.1312668E+00
        -11   -1    0    0    0    0  0.00000000000E+00  0.00000000000E+00  0.45593999997E+02  0.45594000000E+02  0.51100000000E-03 0.  1.
         11   -1    0    0    0    0 -0.00000000000E+00 -0.00000000000E+00 -0.45593999997E+02  0.45594000000E+02  0.51100000000E-03 0. -1.
    9900012    2    1    2    0    0 -0.11417892294E+02 -0.15579726048E+02  0.38865501137E+02  0.47787270665E+02  0.19999998272E+02 0.  0.
         12    1    1    2    0    0  0.11417892294E+02  0.15579726048E+02 -0.38865501137E+02  0.43400729335E+02  0.00000000000E+00 0. -1.
         11    1    3    3    0    0 -0.98162678635E+01 -0.49068806934E+01  0.66058233471E+01  0.12809117661E+02  0.51100000000E-03 0. -1.
        -11    1    3    3    0    0 -0.39492831836E+01 -0.48663027476E+01  0.95669525222E+01  0.11436971667E+02  0.51100000000E-03 0.  1.
        -12    1    3    3    0    0  0.23476587534E+01 -0.58065426072E+01  0.22692725267E+02  0.23541181337E+02  0.00000000000E+00 0.  1.
</event>
<event>
 7    1  0.2318319E-009  0.4778727E+02  0.7816164E-02  0.1312668E+00
        -11   -1    0    0    0    0  0.00000000000E+00  0.00000000000E+00  0.45593999997E+02  0.45594000000E+02  0.51100000000E-03 0.  1.
         11   -1    0    0    0    0 -0.00000000000E+00 -0.00000000000E+00 -0.45593999997E+02  0.45594000000E+02  0.51100000000E-03 0. -1.
    9900012    2    1    2    0    0 -0.31701128182E+02 -0.26970328570E+02 -0.12298905694E+02  0.47787271522E+02  0.20000002176E+02 0.  0.
         12    1    1    2    0    0  0.31701128182E+02  0.26970328570E+02  0.12298905694E+02  0.43400728478E+02  0.00000000000E+00 0. -1.
         11    1    3    3    0    0 -0.28057455885E+01 -0.34888380513E+01 -0.58037769024E+01  0.73299403715E+01  0.51100000000E-03 0. -1.
        -11    1    3    3    0    0 -0.11035301773E+02 -0.43118511385E+01  0.35950330023E+01  0.12381203819E+02  0.51100000000E-03 0.  1.
        -12    1    3    3    0    0 -0.17860080821E+02 -0.19169639380E+02 -0.10090161794E+02  0.28076127331E+02  0.00000000000E+00 0.  1.
</event>
<event>
 7    1  0.2318319E-009  0.4778726E+02  0.7816164E-02  0.1312668E+00
        -11   -1    0    0    0    0  0.00000000000E+00  0.00000000000E+00  0.45593999997E+02  0.45594000000E+02  0.51100000000E-03 0.  1.
         11   -1    0    0    0    0 -0.00000000000E+00 -0.00000000000E+00 -0.45593999997E+02  0.45594000000E+02  0.51100000000E-03 0. -1.
    9900012    2    1    2    0    0  0.40264898291E+02 -0.15299723290E+02 -0.53179755448E+01  0.47787257713E+02  0.19999939217E+02 0.  0.
         12    1    1    2    0    0 -0.40264898291E+02  0.15299723290E+02  0.53179755448E+01  0.43400742287E+02  0.00000000000E+00 0. -1.
         11    1    3    3    0    0  0.20423190214E+02 -0.12818754862E+01 -0.59579754570E+01  0.21313079906E+02  0.51100000000E-03 0. -1.
        -11    1    3    3    0    0  0.19576344003E+02 -0.10265454911E+02 -0.14837300400E+01  0.22154328339E+02  0.51100000000E-03 0.  1.
         12    1    3    3    0    0  0.26536407445E+00 -0.37523928936E+01  0.21237299522E+01  0.43198494684E+01  0.00000000000E+00 0. -1.
</event>
<event>
 7    1  0.2318319E-009  0.4778727E+02  0.7816164E-02  0.1312668E+00
        -11   -1    0    0    0    0  0.00000000000E+00  0.00000000000E+00  0.45593999997E+02  0.45594000000E+02  0.51100000000E-03 0.  1.
         11   -1    0    0    0    0 -0.00000000000E+00 -0.00000000000E+00 -0.45593999997E+02  0.45594000000E+02  0.51100000000E-03 0. -1.
    9900012    2    1    2    0    0 -0.20351280745E+02  0.24748573606E+02  0.29273825363E+02  0.47787269881E+02  0.19999994696E+02 0.  0.
         12    1    1    2    0    0  0.20351280745E+02 -0.24748573606E+02 -0.29273825363E+02  0.43400730119E+02  0.00000000000E+00 0. -1.
         11    1    3    3    0    0  0.12651886972E+01  0.10607137241E+01 -0.56147055029E+00  0.17438650991E+01  0.51100000000E-03 0.  1.
        -11    1    3    3    0    0 -0.92534286019E+01  0.15966303362E+01  0.52673330703E+01  0.10766613546E+02  0.51100000000E-03 0. -1.
         12    1    3    3    0    0 -0.12363040840E+02  0.22091229545E+02  0.24567962843E+02  0.35276791236E+02  0.00000000000E+00 0. -1.
</event>
<event>
 7    1  0.2318319E-009  0.4778727E+02  0.7816164E-02  0.1312668E+00
        -11   -1    0    0    0    0  0.00000000000E+00  0.00000000000E+00  0.45593999997E+02  0.45594000000E+02  0.51100000000E-03 0.  1.
         11   -1    0    0    0    0 -0.00000000000E+00 -0.00000000000E+00 -0.45593999997E+02  0.45594000000E+02  0.51100000000E-03 0. -1.
    9900012    2    1    2    0    0 -0.35244133394E+02  0.19413193520E+01  0.25252836356E+02  0.47787269551E+02  0.19999993190E+02 0.  0.
         12    1    1    2    0    0  0.35244133394E+02 -0.19413193520E+01 -0.25252836356E+02  0.43400730449E+02  0.00000000000E+00 0. -1.
         11    1    3    3    0    0 -0.18023377531E+02  0.27715015990E+01  0.14899328985E+02  0.23548107423E+02  0.51100000000E-03 0. -1.
        -11    1    3    3    0    0 -0.10574650669E+02  0.21915977422E+01  0.12605474032E+02  0.16598925063E+02  0.51100000000E-03 0.  1.
         12    1    3    3    0    0 -0.66461051942E+01 -0.30217799892E+01 -0.22519666614E+01  0.76402370644E+01  0.00000000000E+00 0. -1.
</event>
<event>
 7    1  0.2318319E-009  0.4778727E+02  0.7816164E-02  0.1312668E+00
        -11   -1    0    0    0    0  0.00000000000E+00  0.00000000000E+00  0.45593999997E+02  0.45594000000E+02  0.51100000000E-03 0.  1.
         11   -1    0    0    0    0 -0.00000000000E+00 -0.00000000000E+00 -0.45593999997E+02  0.45594000000E+02  0.51100000000E-03 0. -1.
    9900012    2    1    2    0    0  0.20082160464E+02  0.13109701929E+02  0.36172724164E+02  0.47787269280E+02  0.19999991957E+02 0.  0.
         12    1    1    2    0    0 -0.20082160464E+02 -0.13109701929E+02 -0.36172724164E+02  0.43400730720E+02  0.00000000000E+00 0. -1.
         11    1    3    3    0    0  0.69641471170E+01  0.34160305699E+01  0.12507960535E+02  0.14717937591E+02  0.51100000000E-03 0. -1.
        -11    1    3    3    0    0  0.61210298432E+01 -0.43585013514E+00  0.18894937052E+02  0.19866444527E+02  0.51100000000E-03 0.  1.
         12    1    3    3    0    0  0.69969835032E+01  0.10129521495E+02  0.47698265768E+01  0.13202887163E+02  0.00000000000E+00 0. -1.
</event>
<event>
 7    1  0.2318319E-009  0.4778727E+02  0.7816164E-02  0.1312668E+00
        -11   -1    0    0    0    0  0.00000000000E+00  0.00000000000E+00  0.45593999997E+02  0.45594000000E+02  0.51100000000E-03 0. -1.
         11   -1    0    0    0    0 -0.00000000000E+00 -0.00000000000E+00 -0.45593999997E+02  0.45594000000E+02  0.51100000000E-03 0.  1.
    9900012    2    1    2    0    0 -0.25743389896E+02  0.26405730879E+02 -0.22883145863E+02  0.47787272919E+02  0.20000008546E+02 0.  0.
         12    1    1    2    0    0  0.25743389896E+02 -0.26405730879E+02  0.22883145863E+02  0.43400727081E+02  0.00000000000E+00 0. -1.
         11    1    3    3    0    0 -0.58820610187E+01  0.61747955657E+01  0.10547603794E+01  0.85929774715E+01  0.51100000000E-03 0. -1.
        -11    1    3    3    0    0 -0.16319559934E+02  0.21101817521E+02 -0.23443723703E+02  0.35513700462E+02  0.51100000000E-03 0.  1.
         12    1    3    3    0    0 -0.35417689429E+01 -0.87088220811E+00 -0.49418253940E+00  0.36805949856E+01  0.00000000000E+00 0. -1.
</event>
<event>
 7    1  0.2318319E-009  0.4778724E+02  0.7816164E-02  0.1312668E+00
        -11   -1    0    0    0    0  0.00000000000E+00  0.00000000000E+00  0.45593999997E+02  0.45594000000E+02  0.51100000000E-03 0.  1.
         11   -1    0    0    0    0 -0.00000000000E+00 -0.00000000000E+00 -0.45593999997E+02  0.45594000000E+02  0.51100000000E-03 0. -1.
    9900012    2    1    2    0    0 -0.13692318020E+01  0.28678284137E+02  0.32546997991E+02  0.47787241308E+02  0.19999864421E+02 0.  0.
         12    1    1    2    0    0  0.13692318020E+01 -0.28678284137E+02 -0.32546997991E+02  0.43400758692E+02  0.00000000000E+00 0. -1.
         11    1    3    3    0    0 -0.82884286350E+01  0.46954201620E+01  0.11290197534E+02  0.14772054033E+02  0.51100000000E-03 0. -1.
        -11    1    3    3    0    0  0.51318402632E+00  0.91096291890E+00  0.78542327510E-01  0.10485134443E+01  0.51100000000E-03 0.  1.
         12    1    3    3    0    0  0.64060128067E+01  0.23071901057E+02  0.21178258130E+02  0.31966673832E+02  0.00000000000E+00 0. -1.
</event>
<event>
 7    1  0.2318319E-009  0.4778728E+02  0.7816164E-02  0.1312668E+00
        -11   -1    0    0    0    0  0.00000000000E+00  0.00000000000E+00  0.45593999997E+02  0.45594000000E+02  0.51100000000E-03 0.  1.
         11   -1    0    0    0    0 -0.00000000000E+00 -0.00000000000E+00 -0.45593999997E+02  0.45594000000E+02  0.51100000000E-03 0. -1.
    9900012    2    1    2    0    0  0.10163463773E+02  0.42094910378E+02  0.28887362589E+01  0.47787282578E+02  0.20000052586E+02 0.  0.
         12    1    1    2    0    0 -0.10163463773E+02 -0.42094910378E+02 -0.28887362589E+01  0.43400717422E+02  0.00000000000E+00 0. -1.
         11    1    3    3    0    0 -0.88500047757E+00 -0.41170536669E+00  0.45169492916E+00  0.10755257897E+01  0.51100000000E-03 0. -1.
        -11    1    3    3    0    0  0.10476550126E+02  0.15764756928E+02  0.56937654210E+01  0.19766249732E+02  0.51100000000E-03 0.  1.
         12    1    3    3    0    0  0.57191412514E+00  0.26741858816E+02 -0.32567240913E+01  0.26945507057E+02  0.00000000000E+00 0. -1.
</event>
<event>
 7    1  0.2318319E-009  0.4778728E+02  0.7816164E-02  0.1312668E+00
        -11   -1    0    0    0    0  0.00000000000E+00  0.00000000000E+00  0.45593999997E+02  0.45594000000E+02  0.51100000000E-03 0.  1.
         11   -1    0    0    0    0 -0.00000000000E+00 -0.00000000000E+00 -0.45593999997E+02  0.45594000000E+02  0.51100000000E-03 0. -1.
    9900012    2    1    2    0    0 -0.34220408744E+02  0.24446364187E+02  0.10722011005E+02  0.47787278617E+02  0.20000034528E+02 0.  0.
         12    1    1    2    0    0  0.34220408744E+02 -0.24446364187E+02 -0.10722011005E+02  0.43400721383E+02  0.00000000000E+00 0. -1.
         11    1    3    3    0    0 -0.10068018430E+02  0.96717768087E+01  0.80116920669E+01  0.16096442830E+02  0.51100000000E-03 0. -1.
        -11    1    3    3    0    0 -0.11415104744E+02  0.13287555168E+02  0.58855065623E+01  0.18479797792E+02  0.51100000000E-03 0.  1.
         12    1    3    3    0    0 -0.12737285570E+02  0.14870322100E+01 -0.31751876238E+01  0.13211037996E+02  0.00000000000E+00 0. -1.
</event>
<event>
 7    1  0.2318319E-009  0.4778728E+02  0.7816164E-02  0.1312668E+00
        -11   -1    0    0    0    0  0.00000000000E+00  0.00000000000E+00  0.45593999997E+02  0.45594000000E+02  0.51100000000E-03 0.  1.
         11   -1    0    0    0    0 -0.00000000000E+00 -0.00000000000E+00 -0.45593999997E+02  0.45594000000E+02  0.51100000000E-03 0. -1.
    9900012    2    1    2    0    0  0.22864344991E+01  0.40023066728E+02  0.16629769055E+02  0.47787275676E+02  0.20000021118E+02 0.  0.
         12    1    1    2    0    0 -0.22864344991E+01 -0.40023066728E+02 -0.16629769055E+02  0.43400724324E+02  0.00000000000E+00 0. -1.
         11    1    3    3    0    0 -0.49579396312E+00  0.49056092097E+01  0.73484525501E+01  0.88493258791E+01  0.51100000000E-03 0. -1.
        -11    1    3    3    0    0  0.52199558449E+01  0.25024504818E+02  0.11948429232E+02  0.28217702631E+02  0.51100000000E-03 0.  1.
         12    1    3    3    0    0 -0.24377273827E+01  0.10092952701E+02 -0.26671127271E+01  0.10720247166E+02  0.00000000000E+00 0. -1.
</event>
<event>
 7    1  0.2318319E-009  0.4778728E+02  0.7816164E-02  0.1312668E+00
        -11   -1    0    0    0    0  0.00000000000E+00  0.00000000000E+00  0.45593999997E+02  0.45594000000E+02  0.51100000000E-03 0. -1.
         11   -1    0    0    0    0 -0.00000000000E+00 -0.00000000000E+00 -0.45593999997E+02  0.45594000000E+02  0.51100000000E-03 0.  1.
    9900012    2    1    2    0    0 -0.20843886031E+02  0.31146590556E+01 -0.37940138864E+02  0.47787276240E+02  0.20000023689E+02 0.  0.
         12    1    1    2    0    0  0.20843886031E+02 -0.31146590556E+01  0.37940138864E+02  0.43400723760E+02  0.00000000000E+00 0. -1.
         11    1    3    3    0    0  0.63825917347E+00  0.23199847273E+01 -0.12349055446E+01  0.27045694432E+01  0.51100000000E-03 0. -1.
        -11    1    3    3    0    0  0.18522519207E+00  0.41416013759E+01 -0.74238359786E+01  0.85029707295E+01  0.51100000000E-03 0.  1.
        -12    1    3    3    0    0 -0.21667370396E+02 -0.33469270477E+01 -0.29281397340E+02  0.36579736067E+02  0.00000000000E+00 0.  1.
</event>
<event>
 7    1  0.2318319E-009  0.4778727E+02  0.7816164E-02  0.1312668E+00
        -11   -1    0    0    0    0  0.00000000000E+00  0.00000000000E+00  0.45593999997E+02  0.45594000000E+02  0.51100000000E-03 0.  1.
         11   -1    0    0    0    0 -0.00000000000E+00 -0.00000000000E+00 -0.45593999997E+02  0.45594000000E+02  0.51100000000E-03 0. -1.
    9900012    2    1    2    0    0 -0.34257110744E+01  0.43149529325E+02  0.31632238503E+01  0.47787270024E+02  0.19999995348E+02 0.  0.
         12    1    1    2    0    0  0.34257110744E+01 -0.43149529325E+02 -0.31632238503E+01  0.43400729976E+02  0.00000000000E+00 0. -1.
         11    1    3    3    0    0  0.75439018808E+00  0.15765988001E+01 -0.92565916379E+00  0.19777799375E+01  0.51100000000E-03 0. -1.
        -11    1    3    3    0    0 -0.25457916093E+01  0.33554966840E+02  0.10676518720E+02  0.35304460154E+02  0.51100000000E-03 0.  1.
        -12    1    3    3    0    0 -0.16343096532E+01  0.80179636847E+01 -0.65876357057E+01  0.10505029932E+02  0.00000000000E+00 0.  1.
</event>
<event>
 7    1  0.2318319E-009  0.4778727E+02  0.7816164E-02  0.1312668E+00
        -11   -1    0    0    0    0  0.00000000000E+00  0.00000000000E+00  0.45593999997E+02  0.45594000000E+02  0.51100000000E-03 0.  1.
         11   -1    0    0    0    0 -0.00000000000E+00 -0.00000000000E+00 -0.45593999997E+02  0.45594000000E+02  0.51100000000E-03 0. -1.
    9900012    2    1    2    0    0  0.36018347512E+01 -0.62316397514E+01  0.42799730498E+02  0.47787268690E+02  0.19999989264E+02 0.  0.
         12    1    1    2    0    0 -0.36018347512E+01  0.62316397514E+01 -0.42799730498E+02  0.43400731310E+02  0.00000000000E+00 0. -1.
         11    1    3    3    0    0 -0.36173868787E+01 -0.26008217200E+01  0.14391018264E+01  0.46819628125E+01  0.51100000000E-03 0. -1.
        -11    1    3    3    0    0  0.25835707657E+01  0.28705407867E+01  0.94017406270E+01  0.10164033126E+02  0.51100000000E-03 0.  1.
        -12    1    3    3    0    0  0.46356508641E+01 -0.65013588182E+01  0.31958888045E+02  0.32941272751E+02  0.00000000000E+00 0.  1.
</event>
<event>
 7    1  0.2318319E-009  0.4778727E+02  0.7816164E-02  0.1312668E+00
        -11   -1    0    0    0    0  0.00000000000E+00  0.00000000000E+00  0.45593999997E+02  0.45594000000E+02  0.51100000000E-03 0.  1.
         11   -1    0    0    0    0 -0.00000000000E+00 -0.00000000000E+00 -0.45593999997E+02  0.45594000000E+02  0.51100000000E-03 0. -1.
    9900012    2    1    2    0    0 -0.67873070804E+01 -0.42358441500E+02 -0.65816544277E+01  0.47787270988E+02  0.19999999744E+02 0.  0.
         12    1    1    2    0    0  0.67873070804E+01  0.42358441500E+02  0.65816544277E+01  0.43400729012E+02  0.00000000000E+00 0. -1.
         11    1    3    3    0    0 -0.79927816440E+01 -0.80015257232E+01 -0.56948962172E+01  0.12662575389E+02  0.51100000000E-03 0. -1.
        -11    1    3    3    0    0 -0.23760169177E+01 -0.12512765383E+02  0.16550117055E+01  0.12843434818E+02  0.51100000000E-03 0.  1.
        -12    1    3    3    0    0  0.35814914813E+01 -0.21844150394E+02 -0.25417699160E+01  0.22281260781E+02  0.00000000000E+00 0.  1.
</event>
<event>
 7    1  0.2318319E-009  0.4778725E+02  0.7816164E-02  0.1312668E+00
        -11   -1    0    0    0    0  0.00000000000E+00  0.00000000000E+00  0.45593999997E+02  0.45594000000E+02  0.51100000000E-03 0. -1.
         11   -1    0    0    0    0 -0.00000000000E+00 -0.00000000000E+00 -0.45593999997E+02  0.45594000000E+02  0.51100000000E-03 0.  1.
    9900012    2    1    2    0    0 -0.41072459882E+00 -0.43369301661E+02 -0.15999592387E+01  0.47787252416E+02  0.19999915068E+02 0.  0.
         12    1    1    2    0    0  0.41072459882E+00  0.43369301661E+02  0.15999592387E+01  0.43400747584E+02  0.00000000000E+00 0. -1.
         11    1    3    3    0    0 -0.32125475935E+01 -0.43134077248E+01 -0.40348292841E+01  0.67235255525E+01  0.51100000000E-03 0. -1.
        -11    1    3    3    0    0 -0.18089978641E+01 -0.34045812418E+02  0.10181412203E+01  0.34109037340E+02  0.51100000000E-03 0.  1.
         12    1    3    3    0    0  0.46108208588E+01 -0.50100815182E+01  0.14167288251E+01  0.69546895240E+01  0.00000000000E+00 0. -1.
</event>
<event>
 7    1  0.2318319E-009  0.4778727E+02  0.7816164E-02  0.1312668E+00
        -11   -1    0    0    0    0  0.00000000000E+00  0.00000000000E+00  0.45593999997E+02  0.45594000000E+02  0.51100000000E-03 0. -1.
         11   -1    0    0    0    0 -0.00000000000E+00 -0.00000000000E+00 -0.45593999997E+02  0.45594000000E+02  0.51100000000E-03 0.  1.
    9900012    2    1    2    0    0  0.36815718197E+02  0.31317479612E+01 -0.22768796701E+02  0.47787273568E+02  0.20000011504E+02 0.  0.
         12    1    1    2    0    0 -0.36815718197E+02 -0.31317479612E+01  0.22768796701E+02  0.43400726432E+02  0.00000000000E+00 0. -1.
         11    1    3    3    0    0  0.83597266007E+01 -0.35913011982E+01 -0.42379743493E+01  0.10037076267E+02  0.51100000000E-03 0. -1.
        -11    1    3    3    0    0 -0.16922712059E+01  0.11094817456E+01 -0.22605228720E+00  0.20361314977E+01  0.51100000000E-03 0.  1.
        -12    1    3    3    0    0  0.30148262802E+02  0.56135674138E+01 -0.18304770064E+02  0.35714065803E+02  0.00000000000E+00 0.  1.
</event>
<event>
 7    1  0.2318319E-009  0.4778727E+02  0.7816164E-02  0.1312668E+00
        -11   -1    0    0    0    0  0.00000000000E+00  0.00000000000E+00  0.45593999997E+02  0.45594000000E+02  0.51100000000E-03 0. -1.
         11   -1    0    0    0    0 -0.00000000000E+00 -0.00000000000E+00 -0.45593999997E+02  0.45594000000E+02  0.51100000000E-03 0.  1.
    9900012    2    1    2    0    0 -0.78071766954E+01 -0.22594913398E+02 -0.36223486112E+02  0.47787273445E+02  0.20000010944E+02 0.  0.
         12    1    1    2    0    0  0.78071766954E+01  0.22594913398E+02  0.36223486112E+02  0.43400726555E+02  0.00000000000E+00 0. -1.
         11    1    3    3    0    0 -0.15763808227E+01  0.12249172875E+00 -0.11421219032E+01  0.19504931234E+01  0.51100000000E-03 0. -1.
        -11    1    3    3    0    0 -0.28068494998E+01 -0.21199302748E+02 -0.36097354456E+02  0.41956022692E+02  0.51100000000E-03 0.  1.
        -12    1    3    3    0    0 -0.34239463730E+01 -0.15181023789E+01  0.10159902474E+01  0.38807576297E+01  0.00000000000E+00 0.  1.
</event>
<event>
 7    1  0.2318319E-009  0.4778727E+02  0.7816164E-02  0.1312668E+00
        -11   -1    0    0    0    0  0.00000000000E+00  0.00000000000E+00  0.45593999997E+02  0.45594000000E+02  0.51100000000E-03 0.  1.
         11   -1    0    0    0    0 -0.00000000000E+00 -0.00000000000E+00 -0.45593999997E+02  0.45594000000E+02  0.51100000000E-03 0. -1.
    9900012    2    1    2    0    0 -0.17590352374E+02 -0.39466375812E+02 -0.40752905551E+01  0.47787270634E+02  0.19999998130E+02 0.  0.
         12    1    1    2    0    0  0.17590352374E+02  0.39466375812E+02  0.40752905551E+01  0.43400729366E+02  0.00000000000E+00 0. -1.
         11    1    3    3    0    0 -0.10628012740E+02 -0.20971758358E+02 -0.60444547679E+01  0.24275599625E+02  0.51100000000E-03 0. -1.
        -11    1    3    3    0    0 -0.97076760722E+01 -0.15766000952E+02 -0.11353522506E+01  0.18549792067E+02  0.51100000000E-03 0.  1.
         12    1    3    3    0    0  0.27453364376E+01 -0.27286165019E+01  0.31045164634E+01  0.49618789426E+01  0.00000000000E+00 0. -1.
</event>
<event>
 7    1  0.2318319E-009  0.4778734E+02  0.7816164E-02  0.1312667E+00
        -11   -1    0    0    0    0  0.00000000000E+00  0.00000000000E+00  0.45593999997E+02  0.45594000000E+02  0.51100000000E-03 0.  1.
         11   -1    0    0    0    0 -0.00000000000E+00 -0.00000000000E+00 -0.45593999997E+02  0.45594000000E+02  0.51100000000E-03 0. -1.
    9900012    2    1    2    0    0  0.45394469064E+01  0.41263932643E+02  0.12660922698E+02  0.47787335501E+02  0.20000293880E+02 0.  0.
         12    1    1    2    0    0 -0.45394469064E+01 -0.41263932643E+02 -0.12660922698E+02  0.43400664499E+02  0.00000000000E+00 0. -1.
         11    1    3    3    0    0  0.46206789976E+01  0.32793132869E+01  0.36658350195E+01  0.67485492281E+01  0.51100000000E-03 0. -1.
        -11    1    3    3    0    0 -0.24513869521E+01  0.63707377715E+00  0.12439978801E+01  0.28218242279E+01  0.51100000000E-03 0.  1.
        -12    1    3    3    0    0  0.23701548608E+01  0.37347545579E+02  0.77510897982E+01  0.38216962045E+02  0.00000000000E+00 0.  1.
</event>
<event>
 7    1  0.2318319E-009  0.4778727E+02  0.7816164E-02  0.1312668E+00
        -11   -1    0    0    0    0  0.00000000000E+00  0.00000000000E+00  0.45593999997E+02  0.45594000000E+02  0.51100000000E-03 0.  1.
         11   -1    0    0    0    0 -0.00000000000E+00 -0.00000000000E+00 -0.45593999997E+02  0.45594000000E+02  0.51100000000E-03 0. -1.
    9900012    2    1    2    0    0 -0.63997391398E+01 -0.13925961486E+02  0.40604614576E+02  0.47787265108E+02  0.19999972932E+02 0.  0.
         12    1    1    2    0    0  0.63997391398E+01  0.13925961486E+02 -0.40604614576E+02  0.43400734892E+02  0.00000000000E+00 0. -1.
         11    1    3    3    0    0 -0.19217833542E+01  0.14775391241E+01  0.25217955397E+01  0.34979745753E+01  0.51100000000E-03 0. -1.
        -11    1    3    3    0    0 -0.51412434728E+01 -0.89082877604E+01  0.35993364434E+02  0.37434105557E+02  0.51100000000E-03 0.  1.
        -12    1    3    3    0    0  0.66328768727E+00 -0.64952128497E+01  0.20894546015E+01  0.68551849757E+01  0.00000000000E+00 0.  1.
</event>
<event>
 7    1  0.2318319E-009  0.4778727E+02  0.7816164E-02  0.1312668E+00
        -11   -1    0    0    0    0  0.00000000000E+00  0.00000000000E+00  0.45593999997E+02  0.45594000000E+02  0.51100000000E-03 0.  1.
         11   -1    0    0    0    0 -0.00000000000E+00 -0.00000000000E+00 -0.45593999997E+02  0.45594000000E+02  0.51100000000E-03 0. -1.
    9900012    2    1    2    0    0 -0.41535165870E+01 -0.43086595547E+02 -0.31490988609E+01  0.47787271440E+02  0.20000001805E+02 0.  0.
         12    1    1    2    0    0  0.41535165870E+01  0.43086595547E+02  0.31490988609E+01  0.43400728560E+02  0.00000000000E+00 0. -1.
         11    1    3    3    0    0  0.14667385407E+01 -0.17592332724E+02  0.37778332332E-01  0.17653411005E+02  0.51100000000E-03 0. -1.
        -11    1    3    3    0    0 -0.84251913532E+01 -0.22232824304E+02  0.14361908762E+01  0.23819004395E+02  0.51100000000E-03 0.  1.
         12    1    3    3    0    0  0.28049362255E+01 -0.32614385189E+01 -0.46230680695E+01  0.63148560408E+01  0.00000000000E+00 0. -1.
</event>
<event>
 7    1  0.2318319E-009  0.4778727E+02  0.7816164E-02  0.1312668E+00
        -11   -1    0    0    0    0  0.00000000000E+00  0.00000000000E+00  0.45593999997E+02  0.45594000000E+02  0.51100000000E-03 0. -1.
         11   -1    0    0    0    0 -0.00000000000E+00 -0.00000000000E+00 -0.45593999997E+02  0.45594000000E+02  0.51100000000E-03 0.  1.
    9900012    2    1    2    0    0  0.13197904859E+02 -0.20302976112E-01 -0.41345355061E+02  0.47787268554E+02  0.19999988646E+02 0.  0.
         12    1    1    2    0    0 -0.13197904859E+02  0.20302976112E-01  0.41345355061E+02  0.43400731446E+02  0.00000000000E+00 0. -1.
         11    1    3    3    0    0  0.13674298683E+02 -0.57424367890E+01 -0.22854368598E+02  0.27244892898E+02  0.51100000000E-03 0. -1.
        -11    1    3    3    0    0 -0.92784196277E+00  0.12371722657E+01 -0.14312997140E+02  0.14396297209E+02  0.51100000000E-03 0.  1.
        -12    1    3    3    0    0  0.45144813890E+00  0.44849615472E+01 -0.41779893233E+01  0.61460784479E+01  0.00000000000E+00 0.  1.
</event>
<event>
 7    1  0.2318319E-009  0.4778728E+02  0.7816164E-02  0.1312668E+00
        -11   -1    0    0    0    0  0.00000000000E+00  0.00000000000E+00  0.45593999997E+02  0.45594000000E+02  0.51100000000E-03 0.  1.
         11   -1    0    0    0    0 -0.00000000000E+00 -0.00000000000E+00 -0.45593999997E+02  0.45594000000E+02  0.51100000000E-03 0. -1.
    9900012    2    1    2    0    0  0.20604903116E+01  0.27850254331E+01  0.43262234069E+02  0.47787275540E+02  0.20000020497E+02 0.  0.
         12    1    1    2    0    0 -0.20604903116E+01 -0.27850254331E+01 -0.43262234069E+02  0.43400724460E+02  0.00000000000E+00 0. -1.
         11    1    3    3    0    0  0.75100089725E+01  0.43556110963E+01  0.11879706954E+02  0.14713905680E+02  0.51100000000E-03 0. -1.
        -11    1    3    3    0    0 -0.63793270769E-01  0.25338726175E+01  0.16863471880E+02  0.17052896062E+02  0.51100000000E-03 0.  1.
        -12    1    3    3    0    0 -0.53857253901E+01 -0.41044582807E+01  0.14519055236E+02  0.16020473798E+02  0.00000000000E+00 0.  1.
</event>
<event>
 7    1  0.2318319E-009  0.4778727E+02  0.7816164E-02  0.1312668E+00
        -11   -1    0    0    0    0  0.00000000000E+00  0.00000000000E+00  0.45593999997E+02  0.45594000000E+02  0.51100000000E-03 0. -1.
         11   -1    0    0    0    0 -0.00000000000E+00 -0.00000000000E+00 -0.45593999997E+02  0.45594000000E+02  0.51100000000E-03 0.  1.
    9900012    2    1    2    0    0  0.20273419411E+02  0.38156191368E+02  0.40886007375E+01  0.47787272699E+02  0.20000007542E+02 0.  0.
         12    1    1    2    0    0 -0.20273419411E+02 -0.38156191368E+02 -0.40886007375E+01  0.43400727301E+02  0.00000000000E+00 0. -1.
         11    1    3    3    0    0  0.27838853845E+01  0.32358528121E+01 -0.38660234037E+01  0.57590709733E+01  0.51100000000E-03 0. -1.
        -11    1    3    3    0    0  0.10644000085E+02  0.83142967841E+01  0.30225883913E+00  0.13509760526E+02  0.51100000000E-03 0.  1.
        -12    1    3    3    0    0  0.68455339420E+01  0.26606041771E+02  0.76523653021E+01  0.28518441199E+02  0.00000000000E+00 0.  1.
</event>
<event>
 7    1  0.2318319E-009  0.4778727E+02  0.7816164E-02  0.1312668E+00
        -11   -1    0    0    0    0  0.00000000000E+00  0.00000000000E+00  0.45593999997E+02  0.45594000000E+02  0.51100000000E-03 0. -1.
         11   -1    0    0    0    0 -0.00000000000E+00 -0.00000000000E+00 -0.45593999997E+02  0.45594000000E+02  0.51100000000E-03 0.  1.
    9900012    2    1    2    0    0  0.79290803680E+01  0.41735417456E+02  0.88830048053E+01  0.47787272356E+02  0.20000005978E+02 0.  0.
         12    1    1    2    0    0 -0.79290803680E+01 -0.41735417456E+02 -0.88830048053E+01  0.43400727644E+02  0.00000000000E+00 0. -1.
         11    1    3    3    0    0 -0.11559884685E+01  0.64057454340E+01  0.35259266711E+01  0.74028402019E+01  0.51100000000E-03 0. -1.
        -11    1    3    3    0    0  0.45641637350E+01  0.17901298461E+02 -0.56039901278E+01  0.19305252726E+02  0.51100000000E-03 0.  1.
        -12    1    3    3    0    0  0.45209051015E+01  0.17428373561E+02  0.10961068262E+02  0.21079179428E+02  0.00000000000E+00 0.  1.
</event>
<event>
 7    1  0.2318319E-009  0.4778727E+02  0.7816164E-02  0.1312668E+00
        -11   -1    0    0    0    0  0.00000000000E+00  0.00000000000E+00  0.45593999997E+02  0.45594000000E+02  0.51100000000E-03 0.  1.
         11   -1    0    0    0    0 -0.00000000000E+00 -0.00000000000E+00 -0.45593999997E+02  0.45594000000E+02  0.51100000000E-03 0. -1.
    9900012    2    1    2    0    0  0.39659998361E+02 -0.14777449132E+02  0.96091011711E+01  0.47787270765E+02  0.19999998724E+02 0.  0.
         12    1    1    2    0    0 -0.39659998361E+02  0.14777449132E+02 -0.96091011711E+01  0.43400729235E+02  0.00000000000E+00 0. -1.
         11    1    3    3    0    0  0.85773108648E+01 -0.11730563893E+02  0.66745593410E+01  0.15991439384E+02  0.51100000000E-03 0. -1.
        -11    1    3    3    0    0  0.63797864633E+01 -0.21829503217E+01  0.21052350460E+01  0.70639197535E+01  0.51100000000E-03 0.  1.
         12    1    3    3    0    0  0.24702901033E+02 -0.86393491789E+00  0.82930678412E+00  0.24731911627E+02  0.00000000000E+00 0. -1.
</event>
<event>
 7    1  0.2318319E-009  0.4778727E+02  0.7816164E-02  0.1312668E+00
        -11   -1    0    0    0    0  0.00000000000E+00  0.00000000000E+00  0.45593999997E+02  0.45594000000E+02  0.51100000000E-03 0.  1.
         11   -1    0    0    0    0 -0.00000000000E+00 -0.00000000000E+00 -0.45593999997E+02  0.45594000000E+02  0.51100000000E-03 0. -1.
    9900012    2    1    2    0    0  0.26947486232E+02  0.20613974232E+02  0.27065118463E+02  0.47787267457E+02  0.19999983643E+02 0.  0.
         12    1    1    2    0    0 -0.26947486232E+02 -0.20613974232E+02 -0.27065118463E+02  0.43400732543E+02  0.00000000000E+00 0. -1.
         11    1    3    3    0    0  0.93035373673E+01  0.70578156226E+01  0.27775031427E+00  0.11680998006E+02  0.51100000000E-03 0. -1.
        -11    1    3    3    0    0 -0.50605994452E+00  0.31739562445E+01  0.26020603200E+01  0.41353129361E+01  0.51100000000E-03 0.  1.
        -12    1    3    3    0    0  0.18150008809E+02  0.10382202365E+02  0.24185307829E+02  0.31970956515E+02  0.00000000000E+00 0.  1.
</event>
<event>
 7    1  0.2318319E-009  0.4778727E+02  0.7816164E-02  0.1312668E+00
        -11   -1    0    0    0    0  0.00000000000E+00  0.00000000000E+00  0.45593999997E+02  0.45594000000E+02  0.51100000000E-03 0. -1.
         11   -1    0    0    0    0 -0.00000000000E+00 -0.00000000000E+00 -0.45593999997E+02  0.45594000000E+02  0.51100000000E-03 0.  1.
    9900012    2    1    2    0    0 -0.12611133662E+02 -0.41341068170E+02  0.39368328829E+01  0.47787271172E+02  0.20000000582E+02 0.  0.
         12    1    1    2    0    0  0.12611133662E+02  0.41341068170E+02 -0.39368328829E+01  0.43400728828E+02  0.00000000000E+00 0. -1.
         11    1    3    3    0    0 -0.50011526290E+01 -0.34296622515E+01 -0.12150202004E+01  0.61846895740E+01  0.51100000000E-03 0. -1.
        -11    1    3    3    0    0 -0.46931107394E+01 -0.85318961049E+01  0.70438257780E+01  0.12018070619E+02  0.51100000000E-03 0.  1.
         12    1    3    3    0    0 -0.29168702939E+01 -0.29379509813E+02 -0.18919726947E+01  0.29584510979E+02  0.00000000000E+00 0. -1.
</event>
<event>
 7    1  0.2318319E-009  0.4778723E+02  0.7816164E-02  0.1312668E+00
        -11   -1    0    0    0    0  0.00000000000E+00  0.00000000000E+00  0.45593999997E+02  0.45594000000E+02  0.51100000000E-03 0.  1.
         11   -1    0    0    0    0 -0.00000000000E+00 -0.00000000000E+00 -0.45593999997E+02  0.45594000000E+02  0.51100000000E-03 0. -1.
    9900012    2    1    2    0    0  0.10421073857E+02 -0.30364876779E+01  0.42021511107E+02  0.47787234644E+02  0.19999834034E+02 0.  0.
         12    1    1    2    0    0 -0.10421073857E+02  0.30364876779E+01 -0.42021511107E+02  0.43400765356E+02  0.00000000000E+00 0. -1.
         11    1    3    3    0    0  0.10503943427E+01  0.15549286906E+01  0.12699030360E+02  0.12836919562E+02  0.51100000000E-03 0. -1.
        -11    1    3    3    0    0 -0.19859953128E+00 -0.72071082680E+01  0.20293914350E+02  0.21536592378E+02  0.51100000000E-03 0.  1.
         12    1    3    3    0    0  0.95692790455E+01  0.26156918994E+01  0.90285663978E+01  0.13413722703E+02  0.00000000000E+00 0. -1.
</event>
<event>
 7    1  0.2318319E-009  0.4778727E+02  0.7816164E-02  0.1312668E+00
        -11   -1    0    0    0    0  0.00000000000E+00  0.00000000000E+00  0.45593999997E+02  0.45594000000E+02  0.51100000000E-03 0. -1.
         11   -1    0    0    0    0 -0.00000000000E+00 -0.00000000000E+00 -0.45593999997E+02  0.45594000000E+02  0.51100000000E-03 0.  1.
    9900012    2    1    2    0    0  0.41680836399E+02 -0.12043950003E+02 -0.11288452214E+01  0.47787272516E+02  0.20000006710E+02 0.  0.
         12    1    1    2    0    0 -0.41680836399E+02  0.12043950003E+02  0.11288452214E+01  0.43400727484E+02  0.00000000000E+00 0. -1.
         11    1    3    3    0    0  0.10269994379E+02 -0.10402261197E+01  0.19495603513E+01  0.10505029307E+02  0.51100000000E-03 0. -1.
        -11    1    3    3    0    0  0.16480543676E+01  0.22382200809E+01 -0.37886083429E+01  0.46988579215E+01  0.51100000000E-03 0.  1.
        -12    1    3    3    0    0  0.29762787653E+02 -0.13241943964E+02  0.71020277019E+00  0.32583385288E+02  0.00000000000E+00 0.  1.
</event>
<event>
 7    1  0.2318319E-009  0.4778727E+02  0.7816164E-02  0.1312668E+00
        -11   -1    0    0    0    0  0.00000000000E+00  0.00000000000E+00  0.45593999997E+02  0.45594000000E+02  0.51100000000E-03 0.  1.
         11   -1    0    0    0    0 -0.00000000000E+00 -0.00000000000E+00 -0.45593999997E+02  0.45594000000E+02  0.51100000000E-03 0. -1.
    9900012    2    1    2    0    0  0.40190182374E+02 -0.24954107716E+01  0.16190911083E+02  0.47787269179E+02  0.19999991493E+02 0.  0.
         12    1    1    2    0    0 -0.40190182374E+02  0.24954107716E+01 -0.16190911083E+02  0.43400730821E+02  0.00000000000E+00 0. -1.
         11    1    3    3    0    0  0.77357331834E+00  0.26137502080E+01 -0.70280164680E+00  0.28149664730E+01  0.51100000000E-03 0. -1.
        -11    1    3    3    0    0  0.14389301069E+02  0.29504784131E+01  0.10067386219E+02  0.17807570684E+02  0.51100000000E-03 0.  1.
        -12    1    3    3    0    0  0.25027307986E+02 -0.80596393926E+01  0.68263265105E+01  0.27164732022E+02  0.00000000000E+00 0.  1.
</event>
<event>
 7    1  0.2318319E-009  0.4778727E+02  0.7816164E-02  0.1312668E+00
        -11   -1    0    0    0    0  0.00000000000E+00  0.00000000000E+00  0.45593999997E+02  0.45594000000E+02  0.51100000000E-03 0.  1.
         11   -1    0    0    0    0 -0.00000000000E+00 -0.00000000000E+00 -0.45593999997E+02  0.45594000000E+02  0.51100000000E-03 0. -1.
    9900012    2    1    2    0    0  0.11302422869E+02  0.37238547500E+02  0.19213776950E+02  0.47787269508E+02  0.19999992993E+02 0.  0.
         12    1    1    2    0    0 -0.11302422869E+02 -0.37238547500E+02 -0.19213776950E+02  0.43400730492E+02  0.00000000000E+00 0. -1.
         11    1    3    3    0    0  0.31419806982E+01  0.12525859170E+02  0.43755068560E+01  0.13635037630E+02  0.51100000000E-03 0. -1.
        -11    1    3    3    0    0  0.21622075839E+01  0.23230478564E+02  0.15388988586E+02  0.27949083096E+02  0.51100000000E-03 0.  1.
         12    1    3    3    0    0  0.59982345868E+01  0.14822097658E+01 -0.55071849266E+00  0.62031487815E+01  0.00000000000E+00 0. -1.
</event>
<event>
 7    1  0.2318319E-009  0.4778727E+02  0.7816164E-02  0.1312668E+00
        -11   -1    0    0    0    0  0.00000000000E+00  0.00000000000E+00  0.45593999997E+02  0.45594000000E+02  0.51100000000E-03 0.  1.
         11   -1    0    0    0    0 -0.00000000000E+00 -0.00000000000E+00 -0.45593999997E+02  0.45594000000E+02  0.51100000000E-03 0. -1.
    9900012    2    1    2    0    0 -0.35960238732E+02  0.89294223376E+01  0.22599783792E+02  0.47787267513E+02  0.19999983899E+02 0.  0.
         12    1    1    2    0    0  0.35960238732E+02 -0.89294223376E+01 -0.22599783792E+02  0.43400732487E+02  0.00000000000E+00 0. -1.
         11    1    3    3    0    0 -0.89127014685E+01 -0.12755282645E+01  0.37776245060E+00  0.90114329909E+01  0.51100000000E-03 0. -1.
        -11    1    3    3    0    0 -0.85473107887E+01  0.24094741130E+01  0.70486793532E-01  0.88807125767E+01  0.51100000000E-03 0.  1.
        -12    1    3    3    0    0 -0.18500226475E+02  0.77954764890E+01  0.22151534547E+02  0.29895121945E+02  0.00000000000E+00 0.  1.
</event>
<event>
 7    1  0.2318319E-009  0.4778727E+02  0.7816164E-02  0.1312668E+00
        -11   -1    0    0    0    0  0.00000000000E+00  0.00000000000E+00  0.45593999997E+02  0.45594000000E+02  0.51100000000E-03 0.  1.
         11   -1    0    0    0    0 -0.00000000000E+00 -0.00000000000E+00 -0.45593999997E+02  0.45594000000E+02  0.51100000000E-03 0. -1.
    9900012    2    1    2    0    0 -0.29021011773E+02  0.25445155079E+02  0.19848138067E+02  0.47787266988E+02  0.19999981503E+02 0.  0.
         12    1    1    2    0    0  0.29021011773E+02 -0.25445155079E+02 -0.19848138067E+02  0.43400733012E+02  0.00000000000E+00 0. -1.
         11    1    3    3    0    0 -0.50927748665E+01  0.15512222275E+02  0.56350892645E+01  0.17271931768E+02  0.51100000000E-03 0. -1.
        -11    1    3    3    0    0 -0.15309555861E+01 -0.46899327279E+00 -0.60976191168E+00  0.17133562229E+01  0.51100000000E-03 0.  1.
        -12    1    3    3    0    0 -0.22397281320E+02  0.10401926077E+02  0.14822810714E+02  0.28801978996E+02  0.00000000000E+00 0.  1.
</event>
<event>
 7    1  0.2318319E-009  0.4778727E+02  0.7816164E-02  0.1312668E+00
        -11   -1    0    0    0    0  0.00000000000E+00  0.00000000000E+00  0.45593999997E+02  0.45594000000E+02  0.51100000000E-03 0.  1.
         11   -1    0    0    0    0 -0.00000000000E+00 -0.00000000000E+00 -0.45593999997E+02  0.45594000000E+02  0.51100000000E-03 0. -1.
    9900012    2    1    2    0    0 -0.24495694704E+01  0.26118835127E+02  0.34574981270E+02  0.47787271103E+02  0.20000000269E+02 0.  0.
         12    1    1    2    0    0  0.24495694704E+01 -0.26118835127E+02 -0.34574981270E+02  0.43400728897E+02  0.00000000000E+00 0. -1.
         11    1    3    3    0    0  0.47110443593E+01  0.97079546223E+01  0.12309779095E+02  0.16369758200E+02  0.51100000000E-03 0. -1.
        -11    1    3    3    0    0 -0.37239232733E+01  0.15366370071E+02  0.10168286168E+02  0.18798589775E+02  0.51100000000E-03 0.  1.
         12    1    3    3    0    0 -0.34366905564E+01  0.10445104337E+01  0.12096916007E+02  0.12618923128E+02  0.00000000000E+00 0. -1.
</event>
<event>
 7    1  0.2318319E-009  0.4778727E+02  0.7816164E-02  0.1312668E+00
        -11   -1    0    0    0    0  0.00000000000E+00  0.00000000000E+00  0.45593999997E+02  0.45594000000E+02  0.51100000000E-03 0. -1.
         11   -1    0    0    0    0 -0.00000000000E+00 -0.00000000000E+00 -0.45593999997E+02  0.45594000000E+02  0.51100000000E-03 0.  1.
    9900012    2    1    2    0    0  0.22806617852E+02 -0.26780127444E+02 -0.25422563190E+02  0.47787265410E+02  0.19999974311E+02 0.  0.
         12    1    1    2    0    0 -0.22806617852E+02  0.26780127444E+02  0.25422563190E+02  0.43400734590E+02  0.00000000000E+00 0. -1.
         11    1    3    3    0    0 -0.32309466646E+00 -0.44411733886E+01 -0.28238818601E+01  0.52728284868E+01  0.51100000000E-03 0. -1.
        -11    1    3    3    0    0  0.24320211587E+00 -0.79948639167E+01 -0.97293539262E+01  0.12595130980E+02  0.51100000000E-03 0.  1.
         12    1    3    3    0    0  0.22886510402E+02 -0.14344090139E+02 -0.12869327404E+02  0.29919305944E+02  0.00000000000E+00 0. -1.
</event>
<event>
 7    1  0.2318319E-009  0.4778727E+02  0.7816164E-02  0.1312668E+00
        -11   -1    0    0    0    0  0.00000000000E+00  0.00000000000E+00  0.45593999997E+02  0.45594000000E+02  0.51100000000E-03 0.  1.
         11   -1    0    0    0    0 -0.00000000000E+00 -0.00000000000E+00 -0.45593999997E+02  0.45594000000E+02  0.51100000000E-03 0. -1.
    9900012    2    1    2    0    0  0.78363068760E+01  0.30162788004E+02  0.30206318258E+02  0.47787272491E+02  0.20000006595E+02 0.  0.
         12    1    1    2    0    0 -0.78363068760E+01 -0.30162788004E+02 -0.30206318258E+02  0.43400727509E+02  0.00000000000E+00 0. -1.
         11    1    3    3    0    0  0.19187094263E+01  0.20359057617E+01  0.73839665101E+01  0.78961585481E+01  0.51100000000E-03 0. -1.
        -11    1    3    3    0    0 -0.32683019842E+01  0.19180659803E+02  0.16879417513E+02  0.25758382018E+02  0.51100000000E-03 0.  1.
         12    1    3    3    0    0  0.91858994339E+01  0.89462224393E+01  0.59429342349E+01  0.14132731925E+02  0.00000000000E+00 0. -1.
</event>
<event>
 7    1  0.2318319E-009  0.4778729E+02  0.7816164E-02  0.1312668E+00
        -11   -1    0    0    0    0  0.00000000000E+00  0.00000000000E+00  0.45593999997E+02  0.45594000000E+02  0.51100000000E-03 0.  1.
         11   -1    0    0    0    0 -0.00000000000E+00 -0.00000000000E+00 -0.45593999997E+02  0.45594000000E+02  0.51100000000E-03 0. -1.
    9900012    2    1    2    0    0  0.21111788493E+02 -0.37838571589E+02 -0.24812680260E+01  0.47787287975E+02  0.20000077194E+02 0.  0.
         12    1    1    2    0    0 -0.21111788493E+02  0.37838571589E+02  0.24812680260E+01  0.43400712025E+02  0.00000000000E+00 0. -1.
         11    1    3    3    0    0  0.32138208283E+01 -0.10048649326E+01  0.17146276712E+01  0.37786698931E+01  0.51100000000E-03 0. -1.
        -11    1    3    3    0    0  0.19980148806E+02 -0.26295327389E+02 -0.23443199919E+01  0.33108102110E+02  0.51100000000E-03 0.  1.
         12    1    3    3    0    0 -0.20821811412E+01 -0.10538379267E+02 -0.18515757054E+01  0.10900515973E+02  0.00000000000E+00 0. -1.
</event>
<event>
 7    1  0.2318319E-009  0.4778727E+02  0.7816164E-02  0.1312668E+00
        -11   -1    0    0    0    0  0.00000000000E+00  0.00000000000E+00  0.45593999997E+02  0.45594000000E+02  0.51100000000E-03 0. -1.
         11   -1    0    0    0    0 -0.00000000000E+00 -0.00000000000E+00 -0.45593999997E+02  0.45594000000E+02  0.51100000000E-03 0.  1.
    9900012    2    1    2    0    0 -0.17359808805E+02  0.52646198442E+01 -0.39427708407E+02  0.47787269890E+02  0.19999994737E+02 0.  0.
         12    1    1    2    0    0  0.17359808805E+02 -0.52646198442E+01  0.39427708407E+02  0.43400730110E+02  0.00000000000E+00 0. -1.
         11    1    3    3    0    0  0.30020101164E+01  0.52381901631E+00 -0.28940172319E+01  0.42025929021E+01  0.51100000000E-03 0. -1.
        -11    1    3    3    0    0 -0.68149388637E+01 -0.34793134939E+00 -0.38366673542E+01  0.78284394733E+01  0.51100000000E-03 0.  1.
        -12    1    3    3    0    0 -0.13546880058E+02  0.50887321773E+01 -0.32697023821E+02  0.35756237515E+02  0.00000000000E+00 0.  1.
</event>
<event>
 7    1  0.2318319E-009  0.4778727E+02  0.7816164E-02  0.1312668E+00
        -11   -1    0    0    0    0  0.00000000000E+00  0.00000000000E+00  0.45593999997E+02  0.45594000000E+02  0.51100000000E-03 0.  1.
         11   -1    0    0    0    0 -0.00000000000E+00 -0.00000000000E+00 -0.45593999997E+02  0.45594000000E+02  0.51100000000E-03 0. -1.
    9900012    2    1    2    0    0 -0.29453146724E+01 -0.58305829045E+00  0.43296748209E+02  0.47787271423E+02  0.20000001728E+02 0.  0.
         12    1    1    2    0    0  0.29453146724E+01  0.58305829045E+00 -0.43296748209E+02  0.43400728577E+02  0.00000000000E+00 0. -1.
         11    1    3    3    0    0  0.13191407039E+01 -0.13538189369E+01 -0.10898919847E-01  0.18902584369E+01  0.51100000000E-03 0. -1.
        -11    1    3    3    0    0  0.94450261179E+00  0.69300388587E+01  0.17068006902E+02  0.18445443438E+02  0.51100000000E-03 0.  1.
         12    1    3    3    0    0 -0.52089579881E+01 -0.61592782122E+01  0.26239640227E+02  0.27451569548E+02  0.00000000000E+00 0. -1.
</event>
<event>
 7    1  0.2318319E-009  0.4778727E+02  0.7816164E-02  0.1312668E+00
        -11   -1    0    0    0    0  0.00000000000E+00  0.00000000000E+00  0.45593999997E+02  0.45594000000E+02  0.51100000000E-03 0.  1.
         11   -1    0    0    0    0 -0.00000000000E+00 -0.00000000000E+00 -0.45593999997E+02  0.45594000000E+02  0.51100000000E-03 0. -1.
    9900012    2    1    2    0    0  0.28933523532E+02  0.18049507362E+02  0.26845664651E+02  0.47787271775E+02  0.20000003329E+02 0.  0.
         12    1    1    2    0    0 -0.28933523532E+02 -0.18049507362E+02 -0.26845664651E+02  0.43400728225E+02  0.00000000000E+00 0. -1.
         11    1    3    3    0    0  0.14273291694E+02  0.40279884606E+01  0.63442861662E+01  0.16130762971E+02  0.51100000000E-03 0. -1.
        -11    1    3    3    0    0  0.21371916704E+01  0.10154542200E+02  0.55293743674E+01  0.11758243775E+02  0.51100000000E-03 0.  1.
         12    1    3    3    0    0  0.12523040168E+02  0.38669767014E+01  0.14972004117E+02  0.19898265028E+02  0.00000000000E+00 0. -1.
</event>
<event>
 7    1  0.2318319E-009  0.4778727E+02  0.7816164E-02  0.1312668E+00
        -11   -1    0    0    0    0  0.00000000000E+00  0.00000000000E+00  0.45593999997E+02  0.45594000000E+02  0.51100000000E-03 0.  1.
         11   -1    0    0    0    0 -0.00000000000E+00 -0.00000000000E+00 -0.45593999997E+02  0.45594000000E+02  0.51100000000E-03 0. -1.
    9900012    2    1    2    0    0 -0.20270085771E+02  0.36697647450E+02  0.11226286235E+02  0.47787271802E+02  0.20000003452E+02 0.  0.
         12    1    1    2    0    0  0.20270085771E+02 -0.36697647450E+02 -0.11226286235E+02  0.43400728198E+02  0.00000000000E+00 0. -1.
         11    1    3    3    0    0 -0.17758608237E+02  0.19141941631E+02  0.13124430365E+02  0.29223839046E+02  0.51100000000E-03 0.  1.
        -11    1    3    3    0    0  0.10353695445E+01  0.72074578280E+00 -0.14223223518E+00  0.12695254416E+01  0.51100000000E-03 0. -1.
        -12    1    3    3    0    0 -0.35468470785E+01  0.16834960036E+02 -0.17559118942E+01  0.17293907314E+02  0.00000000000E+00 0.  1.
</event>
<event>
 7    1  0.2318319E-009  0.4778727E+02  0.7816164E-02  0.1312668E+00
        -11   -1    0    0    0    0  0.00000000000E+00  0.00000000000E+00  0.45593999997E+02  0.45594000000E+02  0.51100000000E-03 0. -1.
         11   -1    0    0    0    0 -0.00000000000E+00 -0.00000000000E+00 -0.45593999997E+02  0.45594000000E+02  0.51100000000E-03 0.  1.
    9900012    2    1    2    0    0  0.25446599064E+01  0.34771961920E+02 -0.25846826463E+02  0.47787273416E+02  0.20000010814E+02 0.  0.
         12    1    1    2    0    0 -0.25446599064E+01 -0.34771961920E+02  0.25846826463E+02  0.43400726584E+02  0.00000000000E+00 0. -1.
         11    1    3    3    0    0 -0.17035882132E+00  0.16924651192E+02 -0.14736383543E+02  0.22441787814E+02  0.51100000000E-03 0.  1.
        -11    1    3    3    0    0  0.23621037871E+01  0.19413456501E+02 -0.67334443043E+01  0.20683353212E+02  0.51100000000E-03 0. -1.
         12    1    3    3    0    0  0.35291494062E+00 -0.15661457739E+01 -0.43769986154E+01  0.46621323898E+01  0.00000000000E+00 0. -1.
</event>
<event>
 7    1  0.2318319E-009  0.4778727E+02  0.7816164E-02  0.1312668E+00
        -11   -1    0    0    0    0  0.00000000000E+00  0.00000000000E+00  0.45593999997E+02  0.45594000000E+02  0.51100000000E-03 0. -1.
         11   -1    0    0    0    0 -0.00000000000E+00 -0.00000000000E+00 -0.45593999997E+02  0.45594000000E+02  0.51100000000E-03 0.  1.
    9900012    2    1    2    0    0  0.13840105032E+02  0.31461717517E+01 -0.41014341722E+02  0.47787272692E+02  0.20000007513E+02 0.  0.
         12    1    1    2    0    0 -0.13840105032E+02 -0.31461717517E+01  0.41014341722E+02  0.43400727308E+02  0.00000000000E+00 0. -1.
         11    1    3    3    0    0 -0.31969653550E+01 -0.15709672619E+01 -0.47429469362E+01  0.59316162654E+01  0.51100000000E-03 0. -1.
        -11    1    3    3    0    0 -0.12360514924E+01  0.17729861863E+01 -0.59634571659E+01  0.63430375168E+01  0.51100000000E-03 0.  1.
        -12    1    3    3    0    0  0.18273121880E+02  0.29441528273E+01 -0.30307937619E+02  0.35512618910E+02  0.00000000000E+00 0.  1.
</event>
<event>
 7    1  0.2318319E-009  0.4778727E+02  0.7816164E-02  0.1312668E+00
        -11   -1    0    0    0    0  0.00000000000E+00  0.00000000000E+00  0.45593999997E+02  0.45594000000E+02  0.51100000000E-03 0.  1.
         11   -1    0    0    0    0 -0.00000000000E+00 -0.00000000000E+00 -0.45593999997E+02  0.45594000000E+02  0.51100000000E-03 0. -1.
    9900012    2    1    2    0    0  0.37476375200E+02  0.33653466717E+01  0.21629135975E+02  0.47787265221E+02  0.19999973447E+02 0.  0.
         12    1    1    2    0    0 -0.37476375200E+02 -0.33653466717E+01 -0.21629135975E+02  0.43400734779E+02  0.00000000000E+00 0. -1.
         11    1    3    3    0    0  0.72411220013E+01 -0.35844281018E+01  0.76596565621E+01  0.11133387246E+02  0.51100000000E-03 0. -1.
        -11    1    3    3    0    0  0.50169413523E+01 -0.31514301859E+01  0.57876924000E+01  0.82824269588E+01  0.51100000000E-03 0.  1.
         12    1    3    3    0    0  0.25218311847E+02  0.10101204959E+02  0.81817870131E+01  0.28371451016E+02  0.00000000000E+00 0. -1.
</event>
<event>
 7    1  0.2318319E-009  0.4778726E+02  0.7816164E-02  0.1312668E+00
        -11   -1    0    0    0    0  0.00000000000E+00  0.00000000000E+00  0.45593999997E+02  0.45594000000E+02  0.51100000000E-03 0.  1.
         11   -1    0    0    0    0 -0.00000000000E+00 -0.00000000000E+00 -0.45593999997E+02  0.45594000000E+02  0.51100000000E-03 0. -1.
    9900012    2    1    2    0    0  0.22184918628E+02  0.80891312865E+01  0.36414553728E+02  0.47787258270E+02  0.19999941758E+02 0.  0.
         12    1    1    2    0    0 -0.22184918628E+02 -0.80891312865E+01 -0.36414553728E+02  0.43400741730E+02  0.00000000000E+00 0. -1.
         11    1    3    3    0    0  0.35612852299E+01  0.68880588119E+01  0.10146712247E+02  0.12770429765E+02  0.51100000000E-03 0.  1.
        -11    1    3    3    0    0 -0.21393259286E+01 -0.47970020402E+00  0.37310841970E+01  0.43275648188E+01  0.51100000000E-03 0. -1.
         12    1    3    3    0    0  0.20762959326E+02  0.16807726786E+01  0.22536757283E+02  0.30689263687E+02  0.00000000000E+00 0. -1.
</event>
<event>
 7    1  0.2318319E-009  0.4778727E+02  0.7816164E-02  0.1312668E+00
        -11   -1    0    0    0    0  0.00000000000E+00  0.00000000000E+00  0.45593999997E+02  0.45594000000E+02  0.51100000000E-03 0. -1.
         11   -1    0    0    0    0 -0.00000000000E+00 -0.00000000000E+00 -0.45593999997E+02  0.45594000000E+02  0.51100000000E-03 0.  1.
    9900012    2    1    2    0    0 -0.39782889676E+02  0.14091024783E+02  0.10118708356E+02  0.47787267872E+02  0.19999985538E+02 0.  0.
         12    1    1    2    0    0  0.39782889676E+02 -0.14091024783E+02 -0.10118708356E+02  0.43400732128E+02  0.00000000000E+00 0. -1.
         11    1    3    3    0    0 -0.20304394181E+02 -0.10096742687E+01  0.15166109345E+01  0.20385974938E+02  0.51100000000E-03 0.  1.
        -11    1    3    3    0    0 -0.11731965029E+02  0.40369447132E+01  0.53359292591E+01  0.13505853078E+02  0.51100000000E-03 0. -1.
        -12    1    3    3    0    0 -0.77465304659E+01  0.11063754338E+02  0.32661681626E+01  0.13895439856E+02  0.00000000000E+00 0.  1.
</event>
<event>
 7    1  0.2318319E-009  0.4778727E+02  0.7816164E-02  0.1312668E+00
        -11   -1    0    0    0    0  0.00000000000E+00  0.00000000000E+00  0.45593999997E+02  0.45594000000E+02  0.51100000000E-03 0.  1.
         11   -1    0    0    0    0 -0.00000000000E+00 -0.00000000000E+00 -0.45593999997E+02  0.45594000000E+02  0.51100000000E-03 0. -1.
    9900012    2    1    2    0    0 -0.21436027566E+02 -0.12219103662E+02  0.35704528686E+02  0.47787272577E+02  0.20000006989E+02 0.  0.
         12    1    1    2    0    0  0.21436027566E+02  0.12219103662E+02 -0.35704528686E+02  0.43400727423E+02  0.00000000000E+00 0. -1.
         11    1    3    3    0    0 -0.92164145667E-01 -0.27865064170E+01  0.15606940349E+02  0.15854012097E+02  0.51100000000E-03 0. -1.
        -11    1    3    3    0    0  0.67678171643E+00  0.25939719101E+00  0.88679358219E+00  0.11453049869E+01  0.51100000000E-03 0.  1.
        -12    1    3    3    0    0 -0.22020645137E+02 -0.96919944356E+01  0.19210794755E+02  0.30787955494E+02  0.00000000000E+00 0.  1.
</event>
<event>
 7    1  0.2318319E-009  0.4778727E+02  0.7816164E-02  0.1312668E+00
        -11   -1    0    0    0    0  0.00000000000E+00  0.00000000000E+00  0.45593999997E+02  0.45594000000E+02  0.51100000000E-03 0.  1.
         11   -1    0    0    0    0 -0.00000000000E+00 -0.00000000000E+00 -0.45593999997E+02  0.45594000000E+02  0.51100000000E-03 0. -1.
    9900012    2    1    2    0    0  0.60520556013E+01 -0.14816196276E+02  0.40341994132E+02  0.47787267983E+02  0.19999986040E+02 0.  0.
         12    1    1    2    0    0 -0.60520556013E+01  0.14816196276E+02 -0.40341994132E+02  0.43400732017E+02  0.00000000000E+00 0. -1.
         11    1    3    3    0    0 -0.34428777838E+00 -0.39630543734E+01 -0.13223312213E+01  0.41920035975E+01  0.51100000000E-03 0. -1.
        -11    1    3    3    0    0  0.22052892372E+01 -0.25335076117E+01  0.82738145153E+01  0.89296118804E+01  0.51100000000E-03 0.  1.
         12    1    3    3    0    0  0.41910541425E+01 -0.83196342909E+01  0.33390510838E+02  0.34665652505E+02  0.00000000000E+00 0. -1.
</event>
<event>
 7    1  0.2318319E-009  0.4778727E+02  0.7816164E-02  0.1312668E+00
        -11   -1    0    0    0    0  0.00000000000E+00  0.00000000000E+00  0.45593999997E+02  0.45594000000E+02  0.51100000000E-03 0.  1.
         11   -1    0    0    0    0 -0.00000000000E+00 -0.00000000000E+00 -0.45593999997E+02  0.45594000000E+02  0.51100000000E-03 0. -1.
    9900012    2    1    2    0    0  0.18382955186E+02 -0.31562017553E+02  0.23442043418E+02  0.47787269672E+02  0.19999993742E+02 0.  0.
         12    1    1    2    0    0 -0.18382955186E+02  0.31562017553E+02 -0.23442043418E+02  0.43400730328E+02  0.00000000000E+00 0. -1.
         11    1    3    3    0    0 -0.12227987864E+01  0.12120623494E+01  0.18951199101E+01  0.25604319451E+01  0.51100000000E-03 0. -1.
        -11    1    3    3    0    0  0.30244448282E+01 -0.29364137560E+01 -0.98062375895E+00  0.43279805317E+01  0.51100000000E-03 0.  1.
        -12    1    3    3    0    0  0.16581309144E+02 -0.29837666146E+02  0.22527547267E+02  0.40898857195E+02  0.00000000000E+00 0.  1.
</event>
<event>
 7    1  0.2318319E-009  0.4778727E+02  0.7816164E-02  0.1312668E+00
        -11   -1    0    0    0    0  0.00000000000E+00  0.00000000000E+00  0.45593999997E+02  0.45594000000E+02  0.51100000000E-03 0.  1.
         11   -1    0    0    0    0 -0.00000000000E+00 -0.00000000000E+00 -0.45593999997E+02  0.45594000000E+02  0.51100000000E-03 0. -1.
    9900012    2    1    2    0    0 -0.18348636742E+02  0.68860983901E+01  0.38723801481E+02  0.47787267029E+02  0.19999981690E+02 0.  0.
         12    1    1    2    0    0  0.18348636742E+02 -0.68860983901E+01 -0.38723801481E+02  0.43400732971E+02  0.00000000000E+00 0. -1.
         11    1    3    3    0    0 -0.78574290014E+01  0.71609435763E+01  0.26170306881E+02  0.28247181557E+02  0.51100000000E-03 0. -1.
        -11    1    3    3    0    0 -0.44451291180E+01  0.49502572169E+01  0.36967643410E+01  0.76111947973E+01  0.51100000000E-03 0.  1.
         12    1    3    3    0    0 -0.60460786228E+01 -0.52251024031E+01  0.88567302585E+01  0.11928890674E+02  0.00000000000E+00 0. -1.
</event>
<event>
 7    1  0.2318319E-009  0.4778727E+02  0.7816164E-02  0.1312668E+00
        -11   -1    0    0    0    0  0.00000000000E+00  0.00000000000E+00  0.45593999997E+02  0.45594000000E+02  0.51100000000E-03 0.  1.
         11   -1    0    0    0    0 -0.00000000000E+00 -0.00000000000E+00 -0.45593999997E+02  0.45594000000E+02  0.51100000000E-03 0. -1.
    9900012    2    1    2    0    0 -0.17138174256E+02  0.37097788544E+01  0.39700679911E+02  0.47787268884E+02  0.19999990150E+02 0.  0.
         12    1    1    2    0    0  0.17138174256E+02 -0.37097788544E+01 -0.39700679911E+02  0.43400731116E+02  0.00000000000E+00 0. -1.
         11    1    3    3    0    0 -0.64529087534E+01 -0.32294839680E+01  0.16964726382E+01  0.74126660354E+01  0.51100000000E-03 0. -1.
        -11    1    3    3    0    0 -0.10419786336E+01  0.13824422620E+01  0.17961449986E+01  0.24945947963E+01  0.51100000000E-03 0.  1.
        -12    1    3    3    0    0 -0.96432868685E+01  0.55568205605E+01  0.36208062275E+02  0.37880008052E+02  0.00000000000E+00 0.  1.
</event>
<event>
 7    1  0.2318319E-009  0.4778727E+02  0.7816164E-02  0.1312668E+00
        -11   -1    0    0    0    0  0.00000000000E+00  0.00000000000E+00  0.45593999997E+02  0.45594000000E+02  0.51100000000E-03 0.  1.
         11   -1    0    0    0    0 -0.00000000000E+00 -0.00000000000E+00 -0.45593999997E+02  0.45594000000E+02  0.51100000000E-03 0. -1.
    9900012    2    1    2    0    0  0.33823735980E+02  0.26168556882E+02  0.74016865237E+01  0.47787269034E+02  0.19999990834E+02 0.  0.
         12    1    1    2    0    0 -0.33823735980E+02 -0.26168556882E+02 -0.74016865237E+01  0.43400730966E+02  0.00000000000E+00 0. -1.
         11    1    3    3    0    0  0.21009526049E+01 -0.19657387967E+01  0.26027317469E+01  0.38797350002E+01  0.51100000000E-03 0. -1.
        -11    1    3    3    0    0  0.14114054363E+02  0.61506496336E+01  0.41206479932E+00  0.15401520027E+02  0.51100000000E-03 0.  1.
        -12    1    3    3    0    0  0.17608729012E+02  0.21983646046E+02  0.43868899775E+01  0.28506014007E+02  0.00000000000E+00 0.  1.
</event>
<event>
 7    1  0.2318319E-009  0.4778726E+02  0.7816164E-02  0.1312668E+00
        -11   -1    0    0    0    0  0.00000000000E+00  0.00000000000E+00  0.45593999997E+02  0.45594000000E+02  0.51100000000E-03 0. -1.
         11   -1    0    0    0    0 -0.00000000000E+00 -0.00000000000E+00 -0.45593999997E+02  0.45594000000E+02  0.51100000000E-03 0.  1.
    9900012    2    1    2    0    0 -0.17146679604E+02  0.39451159074E+02 -0.57638599713E+01  0.47787255127E+02  0.19999927428E+02 0.  0.
         12    1    1    2    0    0  0.17146679604E+02 -0.39451159074E+02  0.57638599713E+01  0.43400744873E+02  0.00000000000E+00 0. -1.
         11    1    3    3    0    0 -0.12359550448E+02  0.25363697637E+02  0.24405456702E+01  0.28320167876E+02  0.51100000000E-03 0. -1.
        -11    1    3    3    0    0 -0.49724709990E+01  0.15102177718E+02 -0.59297520615E+01  0.16969478467E+02  0.51100000000E-03 0.  1.
        -12    1    3    3    0    0  0.18534184294E+00 -0.10147162813E+01 -0.22746535801E+01  0.24976087843E+01  0.00000000000E+00 0.  1.
</event>
<event>
 7    1  0.2318319E-009  0.4778727E+02  0.7816164E-02  0.1312668E+00
        -11   -1    0    0    0    0  0.00000000000E+00  0.00000000000E+00  0.45593999997E+02  0.45594000000E+02  0.51100000000E-03 0. -1.
         11   -1    0    0    0    0 -0.00000000000E+00 -0.00000000000E+00 -0.45593999997E+02  0.45594000000E+02  0.51100000000E-03 0.  1.
    9900012    2    1    2    0    0  0.76753235589E+01 -0.23185867805E+02 -0.35876566864E+02  0.47787272961E+02  0.20000008738E+02 0.  0.
         12    1    1    2    0    0 -0.76753235589E+01  0.23185867805E+02  0.35876566864E+02  0.43400727039E+02  0.00000000000E+00 0. -1.
         11    1    3    3    0    0  0.73612790813E+01 -0.60475180614E+01 -0.18001594377E+02  0.20367088766E+02  0.51100000000E-03 0. -1.
        -11    1    3    3    0    0  0.19971447506E+01 -0.26022152432E-01 -0.65083748636E+01  0.68079518163E+01  0.51100000000E-03 0.  1.
         12    1    3    3    0    0 -0.16831002731E+01 -0.17112327591E+02 -0.11366597623E+02  0.20612232379E+02  0.00000000000E+00 0. -1.
</event>
<event>
 7    1  0.2318319E-009  0.4778727E+02  0.7816164E-02  0.1312668E+00
        -11   -1    0    0    0    0  0.00000000000E+00  0.00000000000E+00  0.45593999997E+02  0.45594000000E+02  0.51100000000E-03 0.  1.
         11   -1    0    0    0    0 -0.00000000000E+00 -0.00000000000E+00 -0.45593999997E+02  0.45594000000E+02  0.51100000000E-03 0. -1.
    9900012    2    1    2    0    0 -0.28212288269E+02  0.23110936783E+02  0.23528164465E+02  0.47787272685E+02  0.20000007480E+02 0.  0.
         12    1    1    2    0    0  0.28212288269E+02 -0.23110936783E+02 -0.23528164465E+02  0.43400727315E+02  0.00000000000E+00 0. -1.
         11    1    3    3    0    0  0.13467941692E+01 -0.72910671125E+00  0.34609792414E+01  0.37846834347E+01  0.51100000000E-03 0. -1.
        -11    1    3    3    0    0 -0.25660846903E+01  0.17901633759E+01 -0.98949565078E+00  0.32815510745E+01  0.51100000000E-03 0.  1.
        -12    1    3    3    0    0 -0.26992997748E+02  0.22049880119E+02  0.21056680875E+02  0.40721038176E+02  0.00000000000E+00 0.  1.
</event>
<event>
 7    1  0.2318319E-009  0.4778729E+02  0.7816164E-02  0.1312668E+00
        -11   -1    0    0    0    0  0.00000000000E+00  0.00000000000E+00  0.45593999997E+02  0.45594000000E+02  0.51100000000E-03 0.  1.
         11   -1    0    0    0    0 -0.00000000000E+00 -0.00000000000E+00 -0.45593999997E+02  0.45594000000E+02  0.51100000000E-03 0. -1.
    9900012    2    1    2    0    0  0.37680991796E+02 -0.32489540795E+01  0.21288709996E+02  0.47787285505E+02  0.20000065933E+02 0.  0.
         12    1    1    2    0    0 -0.37680991796E+02  0.32489540795E+01 -0.21288709996E+02  0.43400714495E+02  0.00000000000E+00 0. -1.
         11    1    3    3    0    0  0.17209209588E-01  0.19469252554E+01 -0.10393915186E+01  0.22070679865E+01  0.51100000000E-03 0. -1.
        -11    1    3    3    0    0  0.49964160664E+01  0.11963470019E+01  0.76163638463E+01  0.91871877176E+01  0.51100000000E-03 0.  1.
         12    1    3    3    0    0  0.32667366520E+02 -0.63922263368E+01  0.14711737669E+02  0.36393029801E+02  0.00000000000E+00 0. -1.
</event>
<event>
 7    1  0.2318319E-009  0.4778730E+02  0.7816164E-02  0.1312668E+00
        -11   -1    0    0    0    0  0.00000000000E+00  0.00000000000E+00  0.45593999997E+02  0.45594000000E+02  0.51100000000E-03 0.  1.
         11   -1    0    0    0    0 -0.00000000000E+00 -0.00000000000E+00 -0.45593999997E+02  0.45594000000E+02  0.51100000000E-03 0. -1.
    9900012    2    1    2    0    0 -0.28388642633E+02  0.24311526310E+02 -0.22060266985E+02  0.47787300449E+02  0.20000134069E+02 0.  0.
         12    1    1    2    0    0  0.28388642633E+02 -0.24311526310E+02  0.22060266985E+02  0.43400699551E+02  0.00000000000E+00 0. -1.
         11    1    3    3    0    0 -0.96350566011E+00  0.19939642210E+00 -0.44174917165E+01  0.45257414218E+01  0.51100000000E-03 0. -1.
        -11    1    3    3    0    0  0.35834431798E+00  0.65897928984E+01 -0.38094097094E+01  0.76200645463E+01  0.51100000000E-03 0.  1.
        -12    1    3    3    0    0 -0.27783481290E+02  0.17522336989E+02 -0.13833365559E+02  0.35641494481E+02  0.00000000000E+00 0.  1.
</event>
<event>
 7    1  0.2318319E-009  0.4778727E+02  0.7816164E-02  0.1312668E+00
        -11   -1    0    0    0    0  0.00000000000E+00  0.00000000000E+00  0.45593999997E+02  0.45594000000E+02  0.51100000000E-03 0. -1.
         11   -1    0    0    0    0 -0.00000000000E+00 -0.00000000000E+00 -0.45593999997E+02  0.45594000000E+02  0.51100000000E-03 0.  1.
    9900012    2    1    2    0    0  0.19831278701E+02 -0.17135747765E+02 -0.34593493972E+02  0.47787270841E+02  0.19999999071E+02 0.  0.
         12    1    1    2    0    0 -0.19831278701E+02  0.17135747765E+02  0.34593493972E+02  0.43400729159E+02  0.00000000000E+00 0. -1.
         11    1    3    3    0    0  0.18135325798E+00 -0.50730651128E+01 -0.26007884589E+01  0.57037688866E+01  0.51100000000E-03 0.  1.
        -11    1    3    3    0    0  0.15219582572E+02 -0.83992453528E+01 -0.11605938780E+02  0.20901694462E+02  0.51100000000E-03 0. -1.
        -12    1    3    3    0    0  0.44303428711E+01 -0.36634372995E+01 -0.20386766733E+02  0.21181807492E+02  0.00000000000E+00 0.  1.
</event>
<event>
 7    1  0.2318319E-009  0.4778727E+02  0.7816164E-02  0.1312668E+00
        -11   -1    0    0    0    0  0.00000000000E+00  0.00000000000E+00  0.45593999997E+02  0.45594000000E+02  0.51100000000E-03 0.  1.
         11   -1    0    0    0    0 -0.00000000000E+00 -0.00000000000E+00 -0.45593999997E+02  0.45594000000E+02  0.51100000000E-03 0. -1.
    9900012    2    1    2    0    0  0.25722474483E+02  0.34181243617E+02  0.73225959605E+01  0.47787268205E+02  0.19999987054E+02 0.  0.
         12    1    1    2    0    0 -0.25722474483E+02 -0.34181243617E+02 -0.73225959605E+01  0.43400731795E+02  0.00000000000E+00 0. -1.
         11    1    3    3    0    0  0.50339881477E+01  0.82256077793E+01 -0.90012270161E+00  0.96856533672E+01  0.51100000000E-03 0. -1.
        -11    1    3    3    0    0  0.23186017313E+02  0.25807482974E+02  0.78738865711E+01  0.35575492496E+02  0.51100000000E-03 0.  1.
         12    1    3    3    0    0 -0.24975309786E+01  0.14815286403E+00  0.34883209110E+00  0.25261223423E+01  0.00000000000E+00 0. -1.
</event>
<event>
 7    1  0.2318319E-009  0.4778727E+02  0.7816164E-02  0.1312668E+00
        -11   -1    0    0    0    0  0.00000000000E+00  0.00000000000E+00  0.45593999997E+02  0.45594000000E+02  0.51100000000E-03 0.  1.
         11   -1    0    0    0    0 -0.00000000000E+00 -0.00000000000E+00 -0.45593999997E+02  0.45594000000E+02  0.51100000000E-03 0. -1.
    9900012    2    1    2    0    0 -0.35031572986E+02  0.22187256676E+02  0.12811630264E+02  0.47787270344E+02  0.19999996806E+02 0.  0.
         12    1    1    2    0    0  0.35031572986E+02 -0.22187256676E+02 -0.12811630264E+02  0.43400729656E+02  0.00000000000E+00 0. -1.
         11    1    3    3    0    0 -0.11200762540E+02  0.55310980186E+01  0.83469851344E+01  0.15024056971E+02  0.51100000000E-03 0. -1.
        -11    1    3    3    0    0 -0.13921734903E+02  0.16635496974E+02  0.65042082236E+01  0.22646394573E+02  0.51100000000E-03 0.  1.
        -12    1    3    3    0    0 -0.99090755419E+01  0.20661683422E-01 -0.20395630944E+01  0.10116818799E+02  0.00000000000E+00 0.  1.
</event>
<event>
 7    1  0.2318319E-009  0.4778727E+02  0.7816164E-02  0.1312668E+00
        -11   -1    0    0    0    0  0.00000000000E+00  0.00000000000E+00  0.45593999997E+02  0.45594000000E+02  0.51100000000E-03 0.  1.
         11   -1    0    0    0    0 -0.00000000000E+00 -0.00000000000E+00 -0.45593999997E+02  0.45594000000E+02  0.51100000000E-03 0. -1.
    9900012    2    1    2    0    0  0.11017792455E+02 -0.39550612029E+02  0.14070558322E+02  0.47787271043E+02  0.19999999995E+02 0.  0.
         12    1    1    2    0    0 -0.11017792455E+02  0.39550612029E+02 -0.14070558322E+02  0.43400728957E+02  0.00000000000E+00 0. -1.
         11    1    3    3    0    0 -0.45427934291E-01 -0.28978625332E+01 -0.20832092120E+01  0.35692340692E+01  0.51100000000E-03 0.  1.
        -11    1    3    3    0    0  0.26123928515E+01 -0.20597500459E+02  0.13587328509E+01  0.20806916561E+02  0.51100000000E-03 0. -1.
        -12    1    3    3    0    0  0.84508275377E+01 -0.16055249037E+02  0.14795034683E+02  0.23411120413E+02  0.00000000000E+00 0.  1.
</event>
<event>
 7    1  0.2318319E-009  0.4778728E+02  0.7816164E-02  0.1312668E+00
        -11   -1    0    0    0    0  0.00000000000E+00  0.00000000000E+00  0.45593999997E+02  0.45594000000E+02  0.51100000000E-03 0.  1.
         11   -1    0    0    0    0 -0.00000000000E+00 -0.00000000000E+00 -0.45593999997E+02  0.45594000000E+02  0.51100000000E-03 0. -1.
    9900012    2    1    2    0    0 -0.29467619057E+02 -0.10248659791E+02  0.30170294646E+02  0.47787282501E+02  0.20000052237E+02 0.  0.
         12    1    1    2    0    0  0.29467619057E+02  0.10248659791E+02 -0.30170294646E+02  0.43400717499E+02  0.00000000000E+00 0. -1.
         11    1    3    3    0    0 -0.16615078251E+01 -0.20237816724E+01 -0.14929130659E+01  0.30141483364E+01  0.51100000000E-03 0. -1.
        -11    1    3    3    0    0 -0.11402132528E+01  0.24365756699E+01  0.45052039351E+01  0.52472707206E+01  0.51100000000E-03 0.  1.
        -12    1    3    3    0    0 -0.26665897979E+02 -0.10661453788E+02  0.27158003776E+02  0.39525863444E+02  0.00000000000E+00 0.  1.
</event>
<event>
 7    1  0.2318319E-009  0.4778727E+02  0.7816164E-02  0.1312668E+00
        -11   -1    0    0    0    0  0.00000000000E+00  0.00000000000E+00  0.45593999997E+02  0.45594000000E+02  0.51100000000E-03 0. -1.
         11   -1    0    0    0    0 -0.00000000000E+00 -0.00000000000E+00 -0.45593999997E+02  0.45594000000E+02  0.51100000000E-03 0.  1.
    9900012    2    1    2    0    0 -0.38049284796E+02 -0.14500642405E+02 -0.15020203849E+02  0.47787271580E+02  0.20000002444E+02 0.  0.
         12    1    1    2    0    0  0.38049284796E+02  0.14500642405E+02  0.15020203849E+02  0.43400728420E+02  0.00000000000E+00 0. -1.
         11    1    3    3    0    0 -0.96137280200E+01 -0.90457483184E+01 -0.10246489428E+02  0.16710472014E+02  0.51100000000E-03 0. -1.
        -11    1    3    3    0    0 -0.80906053135E+01  0.98185132417E-01 -0.58116805099E+01  0.99620863914E+01  0.51100000000E-03 0.  1.
        -12    1    3    3    0    0 -0.20344951463E+02 -0.55530792192E+01  0.10379660891E+01  0.21114713175E+02  0.00000000000E+00 0.  1.
</event>
<event>
 7    1  0.2318319E-009  0.4778727E+02  0.7816164E-02  0.1312668E+00
        -11   -1    0    0    0    0  0.00000000000E+00  0.00000000000E+00  0.45593999997E+02  0.45594000000E+02  0.51100000000E-03 0.  1.
         11   -1    0    0    0    0 -0.00000000000E+00 -0.00000000000E+00 -0.45593999997E+02  0.45594000000E+02  0.51100000000E-03 0. -1.
    9900012    2    1    2    0    0 -0.25465620563E+02 -0.11673699718E+02  0.33148910786E+02  0.47787269798E+02  0.19999994316E+02 0.  0.
         12    1    1    2    0    0  0.25465620563E+02  0.11673699718E+02 -0.33148910786E+02  0.43400730202E+02  0.00000000000E+00 0. -1.
         11    1    3    3    0    0 -0.76599268348E+01 -0.80054882311E+00  0.95843973507E+01  0.12295366215E+02  0.51100000000E-03 0. -1.
        -11    1    3    3    0    0 -0.18427834978E+02 -0.79543037918E+01  0.25097912508E+02  0.32136603170E+02  0.51100000000E-03 0.  1.
         12    1    3    3    0    0  0.62214124976E+00 -0.29188471033E+01 -0.15333990719E+01  0.33553004129E+01  0.00000000000E+00 0. -1.
</event>
<event>
 7    1  0.2318319E-009  0.4778728E+02  0.7816164E-02  0.1312668E+00
        -11   -1    0    0    0    0  0.00000000000E+00  0.00000000000E+00  0.45593999997E+02  0.45594000000E+02  0.51100000000E-03 0. -1.
         11   -1    0    0    0    0 -0.00000000000E+00 -0.00000000000E+00 -0.45593999997E+02  0.45594000000E+02  0.51100000000E-03 0.  1.
    9900012    2    1    2    0    0 -0.37942745759E+02 -0.16669656205E+02 -0.12887715753E+02  0.47787278681E+02  0.20000034817E+02 0.  0.
         12    1    1    2    0    0  0.37942745759E+02  0.16669656205E+02  0.12887715753E+02  0.43400721319E+02  0.00000000000E+00 0. -1.
         11    1    3    3    0    0 -0.50885791452E+01 -0.19612484160E+01 -0.31945647725E+01  0.63202355504E+01  0.51100000000E-03 0.  1.
        -11    1    3    3    0    0 -0.19615673784E+02  0.11417061341E+01 -0.41092412781E+01  0.20073963611E+02  0.51100000000E-03 0. -1.
         12    1    3    3    0    0 -0.13238492829E+02 -0.15850113923E+02 -0.55839097030E+01  0.21393079520E+02  0.00000000000E+00 0. -1.
</event>
<event>
 7    1  0.2318319E-009  0.4778727E+02  0.7816164E-02  0.1312668E+00
        -11   -1    0    0    0    0  0.00000000000E+00  0.00000000000E+00  0.45593999997E+02  0.45594000000E+02  0.51100000000E-03 0.  1.
         11   -1    0    0    0    0 -0.00000000000E+00 -0.00000000000E+00 -0.45593999997E+02  0.45594000000E+02  0.51100000000E-03 0. -1.
    9900012    2    1    2    0    0 -0.56423934323E+00  0.11355184267E+02  0.41885138302E+02  0.47787269749E+02  0.19999994092E+02 0.  0.
         12    1    1    2    0    0  0.56423934323E+00 -0.11355184267E+02 -0.41885138302E+02  0.43400730251E+02  0.00000000000E+00 0. -1.
         11    1    3    3    0    0  0.56225434472E+01 -0.11073162029E+01  0.13819506537E+02  0.14960544950E+02  0.51100000000E-03 0. -1.
        -11    1    3    3    0    0  0.22116742436E+01  0.58448687818E+01  0.11972072715E+02  0.13504981280E+02  0.51100000000E-03 0.  1.
         12    1    3    3    0    0 -0.83984570341E+01  0.66176316882E+01  0.16093559050E+02  0.19321743519E+02  0.00000000000E+00 0. -1.
</event>
<event>
 7    1  0.2318319E-009  0.4778727E+02  0.7816164E-02  0.1312668E+00
        -11   -1    0    0    0    0  0.00000000000E+00  0.00000000000E+00  0.45593999997E+02  0.45594000000E+02  0.51100000000E-03 0.  1.
         11   -1    0    0    0    0 -0.00000000000E+00 -0.00000000000E+00 -0.45593999997E+02  0.45594000000E+02  0.51100000000E-03 0. -1.
    9900012    2    1    2    0    0  0.25506985491E+02 -0.34066092628E+02 -0.85157715156E+01  0.47787270280E+02  0.19999996512E+02 0.  0.
         12    1    1    2    0    0 -0.25506985491E+02  0.34066092628E+02  0.85157715156E+01  0.43400729720E+02  0.00000000000E+00 0. -1.
         11    1    3    3    0    0  0.33812944176E+01 -0.15210627259E+01 -0.40912874645E-01  0.37078912981E+01  0.51100000000E-03 0. -1.
        -11    1    3    3    0    0  0.11733144697E+02 -0.26844563852E+02 -0.12080720649E+02  0.31689763403E+02  0.51100000000E-03 0.  1.
        -12    1    3    3    0    0  0.10392546376E+02 -0.57004660504E+01  0.36058620077E+01  0.12389615579E+02  0.00000000000E+00 0.  1.
</event>
<event>
 7    1  0.2318319E-009  0.4778727E+02  0.7816164E-02  0.1312668E+00
        -11   -1    0    0    0    0  0.00000000000E+00  0.00000000000E+00  0.45593999997E+02  0.45594000000E+02  0.51100000000E-03 0.  1.
         11   -1    0    0    0    0 -0.00000000000E+00 -0.00000000000E+00 -0.45593999997E+02  0.45594000000E+02  0.51100000000E-03 0. -1.
    9900012    2    1    2    0    0  0.10956351121E+02 -0.35415749447E+02  0.22567815927E+02  0.47787271267E+02  0.20000001016E+02 0.  0.
         12    1    1    2    0    0 -0.10956351121E+02  0.35415749447E+02 -0.22567815927E+02  0.43400728733E+02  0.00000000000E+00 0. -1.
         11    1    3    3    0    0  0.30563008589E+01 -0.38352697494E+01  0.30586805737E+01  0.57797747451E+01  0.51100000000E-03 0. -1.
        -11    1    3    3    0    0  0.44427110954E+01 -0.31050300295E+02  0.21457473257E+02  0.38003710202E+02  0.51100000000E-03 0.  1.
         12    1    3    3    0    0  0.34573391663E+01 -0.53017940292E+00 -0.19483379035E+01  0.40037863200E+01  0.00000000000E+00 0. -1.
</event>
<event>
 7    1  0.2318319E-009  0.4778727E+02  0.7816164E-02  0.1312668E+00
        -11   -1    0    0    0    0  0.00000000000E+00  0.00000000000E+00  0.45593999997E+02  0.45594000000E+02  0.51100000000E-03 0.  1.
         11   -1    0    0    0    0 -0.00000000000E+00 -0.00000000000E+00 -0.45593999997E+02  0.45594000000E+02  0.51100000000E-03 0. -1.
    9900012    2    1    2    0    0 -0.34418979371E+02  0.21214326566E+02 -0.15776864321E+02  0.47787271430E+02  0.20000001760E+02 0.  0.
         12    1    1    2    0    0  0.34418979371E+02 -0.21214326566E+02  0.15776864321E+02  0.43400728570E+02  0.00000000000E+00 0. -1.
         11    1    3    3    0    0  0.13771191573E+01  0.18648657357E+01  0.69134980651E-02  0.23182384354E+01  0.51100000000E-03 0. -1.
        -11    1    3    3    0    0 -0.80711311736E+01  0.66840647453E+01  0.12461928966E+01  0.10553334873E+02  0.51100000000E-03 0.  1.
        -12    1    3    3    0    0 -0.27724967355E+02  0.12665396085E+02 -0.17029970715E+02  0.34915698122E+02  0.00000000000E+00 0.  1.
</event>
<event>
 7    1  0.2318319E-009  0.4778727E+02  0.7816164E-02  0.1312668E+00
        -11   -1    0    0    0    0  0.00000000000E+00  0.00000000000E+00  0.45593999997E+02  0.45594000000E+02  0.51100000000E-03 0.  1.
         11   -1    0    0    0    0 -0.00000000000E+00 -0.00000000000E+00 -0.45593999997E+02  0.45594000000E+02  0.51100000000E-03 0. -1.
    9900012    2    1    2    0    0 -0.35121032360E+02  0.25354532819E+02  0.26988832516E+01  0.47787271673E+02  0.20000002865E+02 0.  0.
         12    1    1    2    0    0  0.35121032360E+02 -0.25354532819E+02 -0.26988832516E+01  0.43400728327E+02  0.00000000000E+00 0. -1.
         11    1    3    3    0    0 -0.76670871440E+01  0.60493343921E+01  0.59394116702E+01  0.11430454195E+02  0.51100000000E-03 0. -1.
        -11    1    3    3    0    0 -0.13052864307E+02  0.12831634384E+02  0.43864323910E+01  0.18822032222E+02  0.51100000000E-03 0.  1.
         12    1    3    3    0    0 -0.14401080909E+02  0.64735640435E+01 -0.76269608096E+01  0.17534785256E+02  0.00000000000E+00 0. -1.
</event>
<event>
 7    1  0.2318319E-009  0.4778730E+02  0.7816164E-02  0.1312668E+00
        -11   -1    0    0    0    0  0.00000000000E+00  0.00000000000E+00  0.45593999997E+02  0.45594000000E+02  0.51100000000E-03 0. -1.
         11   -1    0    0    0    0 -0.00000000000E+00 -0.00000000000E+00 -0.45593999997E+02  0.45594000000E+02  0.51100000000E-03 0.  1.
    9900012    2    1    2    0    0  0.38519139193E+02 -0.19711226165E+02 -0.33710957642E+01  0.47787299456E+02  0.20000129537E+02 0.  0.
         12    1    1    2    0    0 -0.38519139193E+02  0.19711226165E+02  0.33710957642E+01  0.43400700544E+02  0.00000000000E+00 0. -1.
         11    1    3    3    0    0  0.13043958653E+01  0.21566435436E+01  0.82620311557E+00  0.26523898275E+01  0.51100000000E-03 0. -1.
        -11    1    3    3    0    0  0.16645676904E+02 -0.29534993001E+01 -0.29690976627E+01  0.17164418397E+02  0.51100000000E-03 0.  1.
        -12    1    3    3    0    0  0.20569066423E+02 -0.18914370408E+02 -0.12282012172E+01  0.27970491231E+02  0.00000000000E+00 0.  1.
</event>
<event>
 7    1  0.2318319E-009  0.4778727E+02  0.7816164E-02  0.1312668E+00
        -11   -1    0    0    0    0  0.00000000000E+00  0.00000000000E+00  0.45593999997E+02  0.45594000000E+02  0.51100000000E-03 0. -1.
         11   -1    0    0    0    0 -0.00000000000E+00 -0.00000000000E+00 -0.45593999997E+02  0.45594000000E+02  0.51100000000E-03 0.  1.
    9900012    2    1    2    0    0 -0.36004670964E+02 -0.95257936391E+01 -0.22283319310E+02  0.47787269647E+02  0.19999993630E+02 0.  0.
         12    1    1    2    0    0  0.36004670964E+02  0.95257936391E+01  0.22283319310E+02  0.43400730353E+02  0.00000000000E+00 0. -1.
         11    1    3    3    0    0 -0.16582175911E+01 -0.47347157356E+01 -0.15624423841E+01  0.52543739057E+01  0.51100000000E-03 0. -1.
        -11    1    3    3    0    0 -0.16135422273E+02  0.37354959090E+01 -0.12754100047E+02  0.20903895567E+02  0.51100000000E-03 0.  1.
         12    1    3    3    0    0 -0.18211031100E+02 -0.85265738125E+01 -0.79667768783E+01  0.21629000174E+02  0.00000000000E+00 0. -1.
</event>
<event>
 7    1  0.2318319E-009  0.4778727E+02  0.7816164E-02  0.1312668E+00
        -11   -1    0    0    0    0  0.00000000000E+00  0.00000000000E+00  0.45593999997E+02  0.45594000000E+02  0.51100000000E-03 0. -1.
         11   -1    0    0    0    0 -0.00000000000E+00 -0.00000000000E+00 -0.45593999997E+02  0.45594000000E+02  0.51100000000E-03 0.  1.
    9900012    2    1    2    0    0  0.14528476840E+02  0.40314878787E+02  0.68743726915E+01  0.47787273153E+02  0.20000009616E+02 0.  0.
         12    1    1    2    0    0 -0.14528476840E+02 -0.40314878787E+02 -0.68743726915E+01  0.43400726847E+02  0.00000000000E+00 0. -1.
         11    1    3    3    0    0  0.12264119676E+01  0.86263623523E+01  0.69241491253E+01  0.11129333094E+02  0.51100000000E-03 0. -1.
        -11    1    3    3    0    0  0.16854275388E+01  0.67184518892E+01  0.51499971088E+01  0.86313806693E+01  0.51100000000E-03 0.  1.
        -12    1    3    3    0    0  0.11616637334E+02  0.24970064546E+02 -0.51997735426E+01  0.28026559390E+02  0.00000000000E+00 0.  1.
</event>
<event>
 7    1  0.2318319E-009  0.4778727E+02  0.7816164E-02  0.1312668E+00
        -11   -1    0    0    0    0  0.00000000000E+00  0.00000000000E+00  0.45593999997E+02  0.45594000000E+02  0.51100000000E-03 0.  1.
         11   -1    0    0    0    0 -0.00000000000E+00 -0.00000000000E+00 -0.45593999997E+02  0.45594000000E+02  0.51100000000E-03 0. -1.
    9900012    2    1    2    0    0 -0.34156949999E+01 -0.66798132555E+01  0.42747356372E+02  0.47787270118E+02  0.19999995776E+02 0.  0.
         12    1    1    2    0    0  0.34156949999E+01  0.66798132555E+01 -0.42747356372E+02  0.43400729882E+02  0.00000000000E+00 0. -1.
         11    1    3    3    0    0  0.35218055327E+01 -0.34413186165E+01  0.99889416185E+01  0.11136639661E+02  0.51100000000E-03 0.  1.
        -11    1    3    3    0    0 -0.21688042997E+01 -0.39968664087E+01  0.11702548239E+01  0.46955457397E+01  0.51100000000E-03 0. -1.
        -12    1    3    3    0    0 -0.47686962329E+01  0.75837176971E+00  0.31588159930E+02  0.31955084717E+02  0.00000000000E+00 0.  1.
</event>
<event>
 7    1  0.2318319E-009  0.4778727E+02  0.7816164E-02  0.1312668E+00
        -11   -1    0    0    0    0  0.00000000000E+00  0.00000000000E+00  0.45593999997E+02  0.45594000000E+02  0.51100000000E-03 0.  1.
         11   -1    0    0    0    0 -0.00000000000E+00 -0.00000000000E+00 -0.45593999997E+02  0.45594000000E+02  0.51100000000E-03 0. -1.
    9900012    2    1    2    0    0  0.67337301070E+01  0.13761819826E+02  0.40606553498E+02  0.47787274280E+02  0.20000014750E+02 0.  0.
         12    1    1    2    0    0 -0.67337301070E+01 -0.13761819826E+02 -0.40606553498E+02  0.43400725720E+02  0.00000000000E+00 0. -1.
         11    1    3    3    0    0  0.88110969168E+01  0.59183709184E-01  0.16074842003E+02  0.18331379579E+02  0.51100000000E-03 0. -1.
        -11    1    3    3    0    0  0.25196002024E+01  0.10082476034E+01  0.30378927341E+01  0.40735415715E+01  0.51100000000E-03 0.  1.
        -12    1    3    3    0    0 -0.45969670122E+01  0.12694388514E+02  0.21493818760E+02  0.25382353129E+02  0.00000000000E+00 0.  1.
</event>
<event>
 7    1  0.2318319E-009  0.4778727E+02  0.7816164E-02  0.1312668E+00
        -11   -1    0    0    0    0  0.00000000000E+00  0.00000000000E+00  0.45593999997E+02  0.45594000000E+02  0.51100000000E-03 0.  1.
         11   -1    0    0    0    0 -0.00000000000E+00 -0.00000000000E+00 -0.45593999997E+02  0.45594000000E+02  0.51100000000E-03 0. -1.
    9900012    2    1    2    0    0 -0.46803873246E+00  0.41092456737E+02 -0.13957578418E+02  0.47787273552E+02  0.20000011435E+02 0.  0.
         12    1    1    2    0    0  0.46803873246E+00 -0.41092456737E+02  0.13957578418E+02  0.43400726448E+02  0.00000000000E+00 0. -1.
         11    1    3    3    0    0 -0.92503750463E+00  0.82465423881E+01  0.30351685129E+01  0.88359155670E+01  0.51100000000E-03 0. -1.
        -11    1    3    3    0    0  0.34877048073E+01  0.21767707389E+02 -0.55380271768E+01  0.22730308292E+02  0.51100000000E-03 0.  1.
         12    1    3    3    0    0 -0.30307060352E+01  0.11078206960E+02 -0.11454719754E+02  0.16221049693E+02  0.00000000000E+00 0. -1.
</event>
<event>
 7    1  0.2318319E-009  0.4778727E+02  0.7816164E-02  0.1312668E+00
        -11   -1    0    0    0    0  0.00000000000E+00  0.00000000000E+00  0.45593999997E+02  0.45594000000E+02  0.51100000000E-03 0.  1.
         11   -1    0    0    0    0 -0.00000000000E+00 -0.00000000000E+00 -0.45593999997E+02  0.45594000000E+02  0.51100000000E-03 0. -1.
    9900012    2    1    2    0    0 -0.32280328230E+02  0.58131159713E+01  0.28422030449E+02  0.47787265873E+02  0.19999976420E+02 0.  0.
         12    1    1    2    0    0  0.32280328230E+02 -0.58131159713E+01 -0.28422030449E+02  0.43400734127E+02  0.00000000000E+00 0. -1.
         11    1    3    3    0    0 -0.93997158441E+01  0.46815122351E+01  0.67003245387E+01  0.12456547031E+02  0.51100000000E-03 0.  1.
        -11    1    3    3    0    0 -0.12899519489E+02  0.61658778539E+01  0.48616960028E+01  0.15101382090E+02  0.51100000000E-03 0. -1.
         12    1    3    3    0    0 -0.99810928975E+01 -0.50342741178E+01  0.16860009907E+02  0.20229336751E+02  0.00000000000E+00 0. -1.
</event>
<event>
 7    1  0.2318319E-009  0.4778726E+02  0.7816164E-02  0.1312668E+00
        -11   -1    0    0    0    0  0.00000000000E+00  0.00000000000E+00  0.45593999997E+02  0.45594000000E+02  0.51100000000E-03 0.  1.
         11   -1    0    0    0    0 -0.00000000000E+00 -0.00000000000E+00 -0.45593999997E+02  0.45594000000E+02  0.51100000000E-03 0. -1.
    9900012    2    1    2    0    0 -0.37624465453E+02 -0.12480312079E+01  0.21597830278E+02  0.47787259738E+02  0.19999948450E+02 0.  0.
         12    1    1    2    0    0  0.37624465453E+02  0.12480312079E+01 -0.21597830278E+02  0.43400740262E+02  0.00000000000E+00 0. -1.
         11    1    3    3    0    0 -0.45023401949E+01  0.20217299284E+01  0.17483970110E+01  0.52359671030E+01  0.51100000000E-03 0. -1.
        -11    1    3    3    0    0 -0.34433031473E+02 -0.43096005675E+01  0.20962416644E+02  0.40541697366E+02  0.51100000000E-03 0.  1.
        -12    1    3    3    0    0  0.13109062152E+01  0.10398394312E+01 -0.11129833770E+01  0.20095952690E+01  0.00000000000E+00 0.  1.
</event>
<event>
 7    1  0.2318319E-009  0.4778729E+02  0.7816164E-02  0.1312668E+00
        -11   -1    0    0    0    0  0.00000000000E+00  0.00000000000E+00  0.45593999997E+02  0.45594000000E+02  0.51100000000E-03 0.  1.
         11   -1    0    0    0    0 -0.00000000000E+00 -0.00000000000E+00 -0.45593999997E+02  0.45594000000E+02  0.51100000000E-03 0. -1.
    9900012    2    1    2    0    0 -0.48180684598E+01  0.42610863059E+02  0.66874948820E+01  0.47787285465E+02  0.20000065751E+02 0.  0.
         12    1    1    2    0    0  0.48180684598E+01 -0.42610863059E+02 -0.66874948820E+01  0.43400714535E+02  0.00000000000E+00 0. -1.
         11    1    3    3    0    0 -0.63887308472E+01  0.57507776771E+01  0.73581442551E+00  0.86272097957E+01  0.51100000000E-03 0. -1.
        -11    1    3    3    0    0  0.80829424028E+00 -0.38818185164E+00 -0.90983368795E+00  0.12774280135E+01  0.51100000000E-03 0.  1.
        -12    1    3    3    0    0  0.76236814712E+00  0.37248267234E+02  0.68615141444E+01  0.37882647656E+02  0.00000000000E+00 0.  1.
</event>
<event>
 7    1  0.2318319E-009  0.4778728E+02  0.7816164E-02  0.1312668E+00
        -11   -1    0    0    0    0  0.00000000000E+00  0.00000000000E+00  0.45593999997E+02  0.45594000000E+02  0.51100000000E-03 0.  1.
         11   -1    0    0    0    0 -0.00000000000E+00 -0.00000000000E+00 -0.45593999997E+02  0.45594000000E+02  0.51100000000E-03 0. -1.
    9900012    2    1    2    0    0 -0.19565835796E+02 -0.31899217886E+02  0.21982737532E+02  0.47787276717E+02  0.20000025863E+02 0.  0.
         12    1    1    2    0    0  0.19565835796E+02  0.31899217886E+02 -0.21982737532E+02  0.43400723283E+02  0.00000000000E+00 0. -1.
         11    1    3    3    0    0 -0.42953194746E+01 -0.20968958260E+01 -0.14470058053E+01  0.49940532192E+01  0.51100000000E-03 0. -1.
        -11    1    3    3    0    0  0.97084313582E+00 -0.52743216344E+00  0.38592630970E+01  0.40143035503E+01  0.51100000000E-03 0.  1.
        -12    1    3    3    0    0 -0.16241359457E+02 -0.29274889896E+02  0.19570480240E+02  0.38778919947E+02  0.00000000000E+00 0.  1.
</event>
<event>
 7    1  0.2318319E-009  0.4778728E+02  0.7816164E-02  0.1312668E+00
        -11   -1    0    0    0    0  0.00000000000E+00  0.00000000000E+00  0.45593999997E+02  0.45594000000E+02  0.51100000000E-03 0. -1.
         11   -1    0    0    0    0 -0.00000000000E+00 -0.00000000000E+00 -0.45593999997E+02  0.45594000000E+02  0.51100000000E-03 0.  1.
    9900012    2    1    2    0    0 -0.31680326833E+02 -0.34048046963E+01 -0.29468403229E+02  0.47787278898E+02  0.20000035809E+02 0.  0.
         12    1    1    2    0    0  0.31680326833E+02  0.34048046963E+01  0.29468403229E+02  0.43400721102E+02  0.00000000000E+00 0. -1.
         11    1    3    3    0    0 -0.27750684345E+02 -0.60253672869E+01 -0.23114774225E+02  0.36615547521E+02  0.51100000000E-03 0. -1.
        -11    1    3    3    0    0 -0.30122031725E+01 -0.67352906199E+00  0.84676919329E+00  0.32006292628E+01  0.51100000000E-03 0.  1.
        -12    1    3    3    0    0 -0.91743931600E+00  0.32940916525E+01 -0.72003981977E+01  0.79711021144E+01  0.00000000000E+00 0.  1.
</event>
<event>
 7    1  0.2318319E-009  0.4778727E+02  0.7816164E-02  0.1312668E+00
        -11   -1    0    0    0    0  0.00000000000E+00  0.00000000000E+00  0.45593999997E+02  0.45594000000E+02  0.51100000000E-03 0.  1.
         11   -1    0    0    0    0 -0.00000000000E+00 -0.00000000000E+00 -0.45593999997E+02  0.45594000000E+02  0.51100000000E-03 0. -1.
    9900012    2    1    2    0    0 -0.35689656235E+02 -0.24530999972E+02  0.28463738251E+01  0.47787269986E+02  0.19999995175E+02 0.  0.
         12    1    1    2    0    0  0.35689656235E+02  0.24530999972E+02 -0.28463738251E+01  0.43400730014E+02  0.00000000000E+00 0. -1.
         11    1    3    3    0    0  0.10452907524E+01 -0.16457245093E+01  0.17245054582E+01  0.26028755741E+01  0.51100000000E-03 0. -1.
        -11    1    3    3    0    0 -0.18496812209E+02 -0.41163081476E+01  0.15255994456E+01  0.19010615682E+02  0.51100000000E-03 0.  1.
         12    1    3    3    0    0 -0.18238134778E+02 -0.18768967315E+02 -0.40373107879E+00  0.26173778730E+02  0.00000000000E+00 0. -1.
</event>
<event>
 7    1  0.2318319E-009  0.4778726E+02  0.7816164E-02  0.1312668E+00
        -11   -1    0    0    0    0  0.00000000000E+00  0.00000000000E+00  0.45593999997E+02  0.45594000000E+02  0.51100000000E-03 0.  1.
         11   -1    0    0    0    0 -0.00000000000E+00 -0.00000000000E+00 -0.45593999997E+02  0.45594000000E+02  0.51100000000E-03 0. -1.
    9900012    2    1    2    0    0  0.12467654145E+02  0.34957023737E+02  0.22498620203E+02  0.47787264759E+02  0.19999971341E+02 0.  0.
         12    1    1    2    0    0 -0.12467654145E+02 -0.34957023737E+02 -0.22498620203E+02  0.43400735241E+02  0.00000000000E+00 0. -1.
         11    1    3    3    0    0  0.92618329712E+01  0.94771390964E+01  0.19286984862E+01  0.13390951928E+02  0.51100000000E-03 0. -1.
        -11    1    3    3    0    0  0.36534783876E+01  0.22039245654E+01  0.27131087950E+01  0.50562977971E+01  0.51100000000E-03 0.  1.
        -12    1    3    3    0    0 -0.44765721402E+00  0.23275960075E+02  0.17856812922E+02  0.29340015033E+02  0.00000000000E+00 0.  1.
</event>
<event>
 7    1  0.2318319E-009  0.4778727E+02  0.7816164E-02  0.1312668E+00
        -11   -1    0    0    0    0  0.00000000000E+00  0.00000000000E+00  0.45593999997E+02  0.45594000000E+02  0.51100000000E-03 0.  1.
         11   -1    0    0    0    0 -0.00000000000E+00 -0.00000000000E+00 -0.45593999997E+02  0.45594000000E+02  0.51100000000E-03 0. -1.
    9900012    2    1    2    0    0  0.11891082284E+02  0.25711427288E+02  0.32880814528E+02  0.47787270800E+02  0.19999998885E+02 0.  0.
         12    1    1    2    0    0 -0.11891082284E+02 -0.25711427288E+02 -0.32880814528E+02  0.43400729200E+02  0.00000000000E+00 0. -1.
         11    1    3    3    0    0  0.70498573090E+01  0.72164550299E+01  0.16904448593E+02  0.19685987244E+02  0.51100000000E-03 0. -1.
        -11    1    3    3    0    0  0.32020335602E+01  0.57738142832E+01  0.13514253664E+02  0.15040777993E+02  0.51100000000E-03 0.  1.
        -12    1    3    3    0    0  0.16391914148E+01  0.12721157975E+02  0.24621122714E+01  0.13060505563E+02  0.00000000000E+00 0.  1.
</event>
<event>
 7    1  0.2318319E-009  0.4778727E+02  0.7816164E-02  0.1312668E+00
        -11   -1    0    0    0    0  0.00000000000E+00  0.00000000000E+00  0.45593999997E+02  0.45594000000E+02  0.51100000000E-03 0.  1.
         11   -1    0    0    0    0 -0.00000000000E+00 -0.00000000000E+00 -0.45593999997E+02  0.45594000000E+02  0.51100000000E-03 0. -1.
    9900012    2    1    2    0    0 -0.20104584053E+02  0.15512142867E+02  0.35196623125E+02  0.47787272406E+02  0.20000006208E+02 0.  0.
         12    1    1    2    0    0  0.20104584053E+02 -0.15512142867E+02 -0.35196623125E+02  0.43400727594E+02  0.00000000000E+00 0. -1.
         11    1    3    3    0    0 -0.18326599776E+01 -0.19770760548E+01  0.81829397557E-02  0.26958374471E+01  0.51100000000E-03 0. -1.
        -11    1    3    3    0    0 -0.13192563525E+02  0.47350710015E+01  0.13755116641E+02  0.19638428242E+02  0.51100000000E-03 0.  1.
        -12    1    3    3    0    0 -0.50793605506E+01  0.12754147920E+02  0.21433323545E+02  0.25453006717E+02  0.00000000000E+00 0.  1.
</event>
<event>
 7    1  0.2318319E-009  0.4778726E+02  0.7816164E-02  0.1312668E+00
        -11   -1    0    0    0    0  0.00000000000E+00  0.00000000000E+00  0.45593999997E+02  0.45594000000E+02  0.51100000000E-03 0.  1.
         11   -1    0    0    0    0 -0.00000000000E+00 -0.00000000000E+00 -0.45593999997E+02  0.45594000000E+02  0.51100000000E-03 0. -1.
    9900012    2    1    2    0    0  0.11843148464E+02 -0.40848732314E+02 -0.86455470049E+01  0.47787255995E+02  0.19999931382E+02 0.  0.
         12    1    1    2    0    0 -0.11843148464E+02  0.40848732314E+02  0.86455470049E+01  0.43400744005E+02  0.00000000000E+00 0. -1.
         11    1    3    3    0    0 -0.29123114131E+01 -0.11271154104E+02 -0.69327759402E+00  0.11661951238E+02  0.51100000000E-03 0. -1.
        -11    1    3    3    0    0  0.39124948825E+00 -0.10116542730E+02  0.13427534259E+01  0.10212761624E+02  0.51100000000E-03 0.  1.
         12    1    3    3    0    0  0.14364210388E+02 -0.19461035480E+02 -0.92950228368E+01  0.25912543132E+02  0.00000000000E+00 0. -1.
</event>
<event>
 7    1  0.2318319E-009  0.4778727E+02  0.7816164E-02  0.1312668E+00
        -11   -1    0    0    0    0  0.00000000000E+00  0.00000000000E+00  0.45593999997E+02  0.45594000000E+02  0.51100000000E-03 0. -1.
         11   -1    0    0    0    0 -0.00000000000E+00 -0.00000000000E+00 -0.45593999997E+02  0.45594000000E+02  0.51100000000E-03 0.  1.
    9900012    2    1    2    0    0  0.42265579611E+02 -0.98611855706E+01 -0.35271875846E-01  0.47787269075E+02  0.19999991022E+02 0.  0.
         12    1    1    2    0    0 -0.42265579611E+02  0.98611855706E+01  0.35271875846E-01  0.43400730925E+02  0.00000000000E+00 0. -1.
         11    1    3    3    0    0  0.12425521766E+02  0.81864198695E+00  0.42145073041E+01  0.13146324122E+02  0.51100000000E-03 0. -1.
        -11    1    3    3    0    0  0.28485582582E+02 -0.12620025392E+02 -0.17592490045E+01  0.31205583046E+02  0.51100000000E-03 0.  1.
         12    1    3    3    0    0  0.13544752627E+01  0.19401978342E+01 -0.24905301754E+01  0.34353619063E+01  0.00000000000E+00 0. -1.
</event>
<event>
 7    1  0.2318319E-009  0.4778727E+02  0.7816164E-02  0.1312668E+00
        -11   -1    0    0    0    0  0.00000000000E+00  0.00000000000E+00  0.45593999997E+02  0.45594000000E+02  0.51100000000E-03 0.  1.
         11   -1    0    0    0    0 -0.00000000000E+00 -0.00000000000E+00 -0.45593999997E+02  0.45594000000E+02  0.51100000000E-03 0. -1.
    9900012    2    1    2    0    0  0.27624347825E+02 -0.33444570238E+02  0.14068812409E+01  0.47787272057E+02  0.20000004616E+02 0.  0.
         12    1    1    2    0    0 -0.27624347825E+02  0.33444570238E+02 -0.14068812409E+01  0.43400727943E+02  0.00000000000E+00 0. -1.
         11    1    3    3    0    0  0.13053369161E+02 -0.10270210400E+02  0.50327671257E+01  0.17355011188E+02  0.51100000000E-03 0. -1.
        -11    1    3    3    0    0  0.15710327753E+02 -0.14256992200E+02 -0.21772144817E+01  0.21326426983E+02  0.51100000000E-03 0.  1.
        -12    1    3    3    0    0 -0.11393490890E+01 -0.89173676373E+01 -0.14486714032E+01  0.91058338860E+01  0.00000000000E+00 0.  1.
</event>
<event>
 7    1  0.2318319E-009  0.4778728E+02  0.7816164E-02  0.1312668E+00
        -11   -1    0    0    0    0  0.00000000000E+00  0.00000000000E+00  0.45593999997E+02  0.45594000000E+02  0.51100000000E-03 0.  1.
         11   -1    0    0    0    0 -0.00000000000E+00 -0.00000000000E+00 -0.45593999997E+02  0.45594000000E+02  0.51100000000E-03 0. -1.
    9900012    2    1    2    0    0 -0.32113009359E+02  0.26329486120E+02  0.12614895496E+02  0.47787276529E+02  0.20000025007E+02 0.  0.
         12    1    1    2    0    0  0.32113009359E+02 -0.26329486120E+02 -0.12614895496E+02  0.43400723471E+02  0.00000000000E+00 0. -1.
         11    1    3    3    0    0 -0.26391419443E+01  0.67080936680E+01 -0.28125854992E+00  0.72140624820E+01  0.51100000000E-03 0. -1.
        -11    1    3    3    0    0 -0.23955350234E+02  0.21938386497E+02  0.10987556968E+02  0.34291077780E+02  0.51100000000E-03 0.  1.
        -12    1    3    3    0    0 -0.55185171806E+01 -0.23169940448E+01  0.19085970778E+01  0.62821362674E+01  0.00000000000E+00 0.  1.
</event>
<event>
 7    1  0.2318319E-009  0.4778727E+02  0.7816164E-02  0.1312668E+00
        -11   -1    0    0    0    0  0.00000000000E+00  0.00000000000E+00  0.45593999997E+02  0.45594000000E+02  0.51100000000E-03 0.  1.
         11   -1    0    0    0    0 -0.00000000000E+00 -0.00000000000E+00 -0.45593999997E+02  0.45594000000E+02  0.51100000000E-03 0. -1.
    9900012    2    1    2    0    0 -0.17235489761E+01  0.29334561076E+02  0.31939574116E+02  0.47787268563E+02  0.19999988686E+02 0.  0.
         12    1    1    2    0    0  0.17235489761E+01 -0.29334561076E+02 -0.31939574116E+02  0.43400731437E+02  0.00000000000E+00 0. -1.
         11    1    3    3    0    0 -0.25843178187E+01  0.14928990953E+02  0.32217256219E+01  0.15489770356E+02  0.51100000000E-03 0. -1.
        -11    1    3    3    0    0 -0.35743396312E-01  0.13628750522E+01  0.53519425204E+01  0.55228611245E+01  0.51100000000E-03 0.  1.
        -12    1    3    3    0    0  0.89651223892E+00  0.13042695071E+02  0.23365905973E+02  0.26774637082E+02  0.00000000000E+00 0.  1.
</event>
<event>
 7    1  0.2318319E-009  0.4778727E+02  0.7816164E-02  0.1312668E+00
        -11   -1    0    0    0    0  0.00000000000E+00  0.00000000000E+00  0.45593999997E+02  0.45594000000E+02  0.51100000000E-03 0.  1.
         11   -1    0    0    0    0 -0.00000000000E+00 -0.00000000000E+00 -0.45593999997E+02  0.45594000000E+02  0.51100000000E-03 0. -1.
    9900012    2    1    2    0    0 -0.23153572752E+02 -0.17040453262E+02  0.32513969132E+02  0.47787272272E+02  0.20000005598E+02 0.  0.
         12    1    1    2    0    0  0.23153572752E+02  0.17040453262E+02 -0.32513969132E+02  0.43400727728E+02  0.00000000000E+00 0. -1.
         11    1    3    3    0    0  0.30765073444E+01 -0.26983961710E+01  0.38070280115E+01  0.55892487758E+01  0.51100000000E-03 0. -1.
        -11    1    3    3    0    0 -0.11892673030E+02 -0.62402375601E+01  0.18364516050E+02  0.22751520534E+02  0.51100000000E-03 0.  1.
         12    1    3    3    0    0 -0.14337407067E+02 -0.81018195311E+01  0.10342425070E+02  0.19446502962E+02  0.00000000000E+00 0. -1.
</event>
<event>
 7    1  0.2318319E-009  0.4778727E+02  0.7816164E-02  0.1312668E+00
        -11   -1    0    0    0    0  0.00000000000E+00  0.00000000000E+00  0.45593999997E+02  0.45594000000E+02  0.51100000000E-03 0.  1.
         11   -1    0    0    0    0 -0.00000000000E+00 -0.00000000000E+00 -0.45593999997E+02  0.45594000000E+02  0.51100000000E-03 0. -1.
    9900012    2    1    2    0    0 -0.59920243163E+01 -0.29922837279E+02  0.30860048199E+02  0.47787272805E+02  0.20000008025E+02 0.  0.
         12    1    1    2    0    0  0.59920243163E+01  0.29922837279E+02 -0.30860048199E+02  0.43400727195E+02  0.00000000000E+00 0. -1.
         11    1    3    3    0    0 -0.59218054457E+01 -0.90250573986E+01  0.99825541207E+00  0.10840477615E+02  0.51100000000E-03 0. -1.
        -11    1    3    3    0    0 -0.27180504785E+01 -0.70648816811E+01  0.87714274026E+01  0.11586124914E+02  0.51100000000E-03 0.  1.
         12    1    3    3    0    0  0.26478316080E+01 -0.13832898200E+02  0.21090365384E+02  0.25360670276E+02  0.00000000000E+00 0. -1.
</event>
<event>
 7    1  0.2318319E-009  0.4778727E+02  0.7816164E-02  0.1312668E+00
        -11   -1    0    0    0    0  0.00000000000E+00  0.00000000000E+00  0.45593999997E+02  0.45594000000E+02  0.51100000000E-03 0. -1.
         11   -1    0    0    0    0 -0.00000000000E+00 -0.00000000000E+00 -0.45593999997E+02  0.45594000000E+02  0.51100000000E-03 0.  1.
    9900012    2    1    2    0    0 -0.37688579880E+02 -0.21465947879E+02  0.15514601973E+01  0.47787274195E+02  0.20000014363E+02 0.  0.
         12    1    1    2    0    0  0.37688579880E+02  0.21465947879E+02 -0.15514601973E+01  0.43400725805E+02  0.00000000000E+00 0. -1.
         11    1    3    3    0    0 -0.13347645923E+02 -0.78424710979E+01  0.53100459142E+01  0.16366447155E+02  0.51100000000E-03 0. -1.
        -11    1    3    3    0    0 -0.18540058593E+02 -0.16293437833E+02 -0.18290794549E+01  0.24749856989E+02  0.51100000000E-03 0.  1.
        -12    1    3    3    0    0 -0.58008753628E+01  0.26699610518E+01 -0.19295062620E+01  0.66709700500E+01  0.00000000000E+00 0.  1.
</event>
<event>
 7    1  0.2318319E-009  0.4778727E+02  0.7816164E-02  0.1312668E+00
        -11   -1    0    0    0    0  0.00000000000E+00  0.00000000000E+00  0.45593999997E+02  0.45594000000E+02  0.51100000000E-03 0.  1.
         11   -1    0    0    0    0 -0.00000000000E+00 -0.00000000000E+00 -0.45593999997E+02  0.45594000000E+02  0.51100000000E-03 0. -1.
    9900012    2    1    2    0    0 -0.18519446423E+02  0.28552558335E+01  0.39147168209E+02  0.47787272351E+02  0.20000005958E+02 0.  0.
         12    1    1    2    0    0  0.18519446423E+02 -0.28552558335E+01 -0.39147168209E+02  0.43400727649E+02  0.00000000000E+00 0. -1.
         11    1    3    3    0    0 -0.49526193886E+01 -0.28789758371E+00  0.11299761087E+02  0.12340823502E+02  0.51100000000E-03 0.  1.
        -11    1    3    3    0    0 -0.10831619402E+02 -0.27981072747E+01  0.61113308442E+01  0.12747617351E+02  0.51100000000E-03 0. -1.
         12    1    3    3    0    0 -0.27352076319E+01  0.59412606920E+01  0.21736076278E+02  0.22698831498E+02  0.00000000000E+00 0. -1.
</event>
<event>
 7    1  0.2318319E-009  0.4778727E+02  0.7816164E-02  0.1312668E+00
        -11   -1    0    0    0    0  0.00000000000E+00  0.00000000000E+00  0.45593999997E+02  0.45594000000E+02  0.51100000000E-03 0.  1.
         11   -1    0    0    0    0 -0.00000000000E+00 -0.00000000000E+00 -0.45593999997E+02  0.45594000000E+02  0.51100000000E-03 0. -1.
    9900012    2    1    2    0    0  0.20885701696E+01 -0.18732494382E+01  0.43309953783E+02  0.47787270911E+02  0.19999999389E+02 0.  0.
         12    1    1    2    0    0 -0.20885701696E+01  0.18732494382E+01 -0.43309953783E+02  0.43400729089E+02  0.00000000000E+00 0. -1.
         11    1    3    3    0    0 -0.31189766277E+01 -0.37487652003E+01  0.57157865503E+01  0.75134194532E+01  0.51100000000E-03 0. -1.
        -11    1    3    3    0    0  0.19862676583E+01 -0.16623373297E+01  0.22526021494E+00  0.25998782729E+01  0.51100000000E-03 0.  1.
        -12    1    3    3    0    0  0.32212791389E+01  0.35378530918E+01  0.37368907018E+02  0.37673973184E+02  0.00000000000E+00 0.  1.
</event>
<event>
 7    1  0.2318319E-009  0.4778727E+02  0.7816164E-02  0.1312668E+00
        -11   -1    0    0    0    0  0.00000000000E+00  0.00000000000E+00  0.45593999997E+02  0.45594000000E+02  0.51100000000E-03 0.  1.
         11   -1    0    0    0    0 -0.00000000000E+00 -0.00000000000E+00 -0.45593999997E+02  0.45594000000E+02  0.51100000000E-03 0. -1.
    9900012    2    1    2    0    0 -0.24865769011E+00 -0.38206062608E+02  0.20587817919E+02  0.47787270774E+02  0.19999998769E+02 0.  0.
         12    1    1    2    0    0  0.24865769011E+00  0.38206062608E+02 -0.20587817919E+02  0.43400729226E+02  0.00000000000E+00 0. -1.
         11    1    3    3    0    0  0.13074708103E+01 -0.11440663905E+02  0.11506269972E+02  0.16278590831E+02  0.51100000000E-03 0. -1.
        -11    1    3    3    0    0 -0.62747602005E+01 -0.20592738515E+02  0.32002072125E+01  0.21764071806E+02  0.51100000000E-03 0.  1.
         12    1    3    3    0    0  0.47186317001E+01 -0.61726601874E+01  0.58813407349E+01  0.97446081373E+01  0.00000000000E+00 0. -1.
</event>
<event>
 7    1  0.2318319E-009  0.4778727E+02  0.7816164E-02  0.1312668E+00
        -11   -1    0    0    0    0  0.00000000000E+00  0.00000000000E+00  0.45593999997E+02  0.45594000000E+02  0.51100000000E-03 0. -1.
         11   -1    0    0    0    0 -0.00000000000E+00 -0.00000000000E+00 -0.45593999997E+02  0.45594000000E+02  0.51100000000E-03 0.  1.
    9900012    2    1    2    0    0  0.37474474868E+02 -0.67060754483E+01 -0.20840240422E+02  0.47787270336E+02  0.19999996768E+02 0.  0.
         12    1    1    2    0    0 -0.37474474868E+02  0.67060754483E+01  0.20840240422E+02  0.43400729664E+02  0.00000000000E+00 0. -1.
         11    1    3    3    0    0  0.15998268566E+02 -0.93487876901E+01 -0.10412072511E+02  0.21254544988E+02  0.51100000000E-03 0. -1.
        -11    1    3    3    0    0  0.17327306190E+02 -0.26694769819E+01 -0.63036873733E+01  0.18630569554E+02  0.51100000000E-03 0.  1.
         12    1    3    3    0    0  0.41489001123E+01  0.53121892237E+01 -0.41244805376E+01  0.79021557942E+01  0.00000000000E+00 0. -1.
</event>
<event>
 7    1  0.2318319E-009  0.4778728E+02  0.7816164E-02  0.1312668E+00
        -11   -1    0    0    0    0  0.00000000000E+00  0.00000000000E+00  0.45593999997E+02  0.45594000000E+02  0.51100000000E-03 0.  1.
         11   -1    0    0    0    0 -0.00000000000E+00 -0.00000000000E+00 -0.45593999997E+02  0.45594000000E+02  0.51100000000E-03 0. -1.
    9900012    2    1    2    0    0  0.35063244224E+02 -0.25125600886E+02 -0.47849441512E+01  0.47787278739E+02  0.20000035083E+02 0.  0.
         12    1    1    2    0    0 -0.35063244224E+02  0.25125600886E+02  0.47849441512E+01  0.43400721261E+02  0.00000000000E+00 0. -1.
         11    1    3    3    0    0  0.11084235620E+02 -0.80638824564E+01  0.77841756081E+01  0.15763244263E+02  0.51100000000E-03 0. -1.
        -11    1    3    3    0    0  0.11102616870E+02 -0.86391053720E+01 -0.60473323565E+01  0.15312493980E+02  0.51100000000E-03 0.  1.
         12    1    3    3    0    0  0.12876391735E+02 -0.84226130577E+01 -0.65217874029E+01  0.16711540496E+02  0.00000000000E+00 0. -1.
</event>
<event>
 7    1  0.2318319E-009  0.4778726E+02  0.7816164E-02  0.1312668E+00
        -11   -1    0    0    0    0  0.00000000000E+00  0.00000000000E+00  0.45593999997E+02  0.45594000000E+02  0.51100000000E-03 0.  1.
         11   -1    0    0    0    0 -0.00000000000E+00 -0.00000000000E+00 -0.45593999997E+02  0.45594000000E+02  0.51100000000E-03 0. -1.
    9900012    2    1    2    0    0  0.40652835212E+02  0.11409876874E+02  0.10039220296E+02  0.47787259854E+02  0.19999948976E+02 0.  0.
         12    1    1    2    0    0 -0.40652835212E+02 -0.11409876874E+02 -0.10039220296E+02  0.43400740146E+02  0.00000000000E+00 0. -1.
         11    1    3    3    0    0  0.25016140362E+02  0.13383185513E+02  0.66572806223E+00  0.28378867617E+02  0.51100000000E-03 0. -1.
        -11    1    3    3    0    0  0.85966352238E+01  0.21070177686E+01  0.46118560568E+01  0.99805249160E+01  0.51100000000E-03 0.  1.
        -12    1    3    3    0    0  0.70400596268E+01 -0.40803264073E+01  0.47616361772E+01  0.94278673211E+01  0.00000000000E+00 0.  1.
</event>
<event>
 7    1  0.2318319E-009  0.4778729E+02  0.7816164E-02  0.1312668E+00
        -11   -1    0    0    0    0  0.00000000000E+00  0.00000000000E+00  0.45593999997E+02  0.45594000000E+02  0.51100000000E-03 0. -1.
         11   -1    0    0    0    0 -0.00000000000E+00 -0.00000000000E+00 -0.45593999997E+02  0.45594000000E+02  0.51100000000E-03 0.  1.
    9900012    2    1    2    0    0 -0.39583709503E+02  0.17103042199E+02  0.49231930435E+01  0.47787286409E+02  0.20000070053E+02 0.  0.
         12    1    1    2    0    0  0.39583709503E+02 -0.17103042199E+02 -0.49231930435E+01  0.43400713591E+02  0.00000000000E+00 0. -1.
         11    1    3    3    0    0 -0.94547306658E+01  0.47339568009E+01  0.59639033194E+01  0.12139621988E+02  0.51100000000E-03 0. -1.
        -11    1    3    3    0    0 -0.25037329079E+02  0.15631564844E+02 -0.28565361618E-01  0.29516342645E+02  0.51100000000E-03 0.  1.
        -12    1    3    3    0    0 -0.50916497580E+01 -0.32624794456E+01 -0.10121449143E+01  0.61313217758E+01  0.00000000000E+00 0.  1.
</event>
<event>
 7    1  0.2318319E-009  0.4778727E+02  0.7816164E-02  0.1312668E+00
        -11   -1    0    0    0    0  0.00000000000E+00  0.00000000000E+00  0.45593999997E+02  0.45594000000E+02  0.51100000000E-03 0.  1.
         11   -1    0    0    0    0 -0.00000000000E+00 -0.00000000000E+00 -0.45593999997E+02  0.45594000000E+02  0.51100000000E-03 0. -1.
    9900012    2    1    2    0    0 -0.20185763241E+02 -0.33155699767E+02  0.19412822189E+02  0.47787272702E+02  0.20000007558E+02 0.  0.
         12    1    1    2    0    0  0.20185763241E+02  0.33155699767E+02 -0.19412822189E+02  0.43400727298E+02  0.00000000000E+00 0. -1.
         11    1    3    3    0    0  0.12814737101E+01 -0.36735108868E+01 -0.81008752452E-01  0.38914547131E+01  0.51100000000E-03 0. -1.
        -11    1    3    3    0    0 -0.11202138531E+02 -0.22327190549E+02  0.18980285091E+02  0.31372640435E+02  0.51100000000E-03 0.  1.
         12    1    3    3    0    0 -0.10265098420E+02 -0.71549983311E+01  0.51354584995E+00  0.12523177554E+02  0.00000000000E+00 0. -1.
</event>
<event>
 7    1  0.2318319E-009  0.4778727E+02  0.7816164E-02  0.1312668E+00
        -11   -1    0    0    0    0  0.00000000000E+00  0.00000000000E+00  0.45593999997E+02  0.45594000000E+02  0.51100000000E-03 0. -1.
         11   -1    0    0    0    0 -0.00000000000E+00 -0.00000000000E+00 -0.45593999997E+02  0.45594000000E+02  0.51100000000E-03 0.  1.
    9900012    2    1    2    0    0 -0.18963417315E+02  0.25161241559E+02 -0.29848351122E+02  0.47787270309E+02  0.19999996646E+02 0.  0.
         12    1    1    2    0    0  0.18963417315E+02 -0.25161241559E+02  0.29848351122E+02  0.43400729691E+02  0.00000000000E+00 0. -1.
         11    1    3    3    0    0 -0.70082155140E+01  0.97706666606E+01 -0.18604734226E+02  0.22152136411E+02  0.51100000000E-03 0. -1.
        -11    1    3    3    0    0 -0.51999148032E+01  0.15379338255E+02 -0.86831043579E+01  0.18410851709E+02  0.51100000000E-03 0.  1.
         12    1    3    3    0    0 -0.67552869974E+01  0.11236643365E-01 -0.25605125378E+01  0.72242821883E+01  0.00000000000E+00 0. -1.
</event>
<event>
 7    1  0.2318319E-009  0.4778725E+02  0.7816164E-02  0.1312668E+00
        -11   -1    0    0    0    0  0.00000000000E+00  0.00000000000E+00  0.45593999997E+02  0.45594000000E+02  0.51100000000E-03 0.  1.
         11   -1    0    0    0    0 -0.00000000000E+00 -0.00000000000E+00 -0.45593999997E+02  0.45594000000E+02  0.51100000000E-03 0. -1.
    9900012    2    1    2    0    0  0.27700941400E+02 -0.22172512522E+02  0.24993246256E+02  0.47787253182E+02  0.19999918556E+02 0.  0.
         12    1    1    2    0    0 -0.27700941400E+02  0.22172512522E+02 -0.24993246256E+02  0.43400746818E+02  0.00000000000E+00 0. -1.
         11    1    3    3    0    0 -0.13612428792E+01 -0.12591246477E+01  0.96983383526E+00  0.20925952747E+01  0.51100000000E-03 0.  1.
        -11    1    3    3    0    0  0.14620221882E+02 -0.19432543382E+02  0.15963876360E+02  0.29089860413E+02  0.51100000000E-03 0. -1.
        -12    1    3    3    0    0  0.14441962397E+02 -0.14808444921E+01  0.80595360609E+01  0.16604797494E+02  0.00000000000E+00 0.  1.
</event>
<event>
 7    1  0.2318319E-009  0.4778727E+02  0.7816164E-02  0.1312668E+00
        -11   -1    0    0    0    0  0.00000000000E+00  0.00000000000E+00  0.45593999997E+02  0.45594000000E+02  0.51100000000E-03 0. -1.
         11   -1    0    0    0    0 -0.00000000000E+00 -0.00000000000E+00 -0.45593999997E+02  0.45594000000E+02  0.51100000000E-03 0.  1.
    9900012    2    1    2    0    0  0.16324219493E+02 -0.22327861969E+02 -0.33445619685E+02  0.47787273759E+02  0.20000012375E+02 0.  0.
         12    1    1    2    0    0 -0.16324219493E+02  0.22327861969E+02  0.33445619685E+02  0.43400726241E+02  0.00000000000E+00 0. -1.
         11    1    3    3    0    0 -0.62081109113E-02 -0.10881626228E+02 -0.15247563805E+02  0.18732272423E+02  0.51100000000E-03 0. -1.
        -11    1    3    3    0    0  0.10805221691E+02 -0.10624894832E+02 -0.17911201480E+02  0.23461720839E+02  0.51100000000E-03 0.  1.
        -12    1    3    3    0    0  0.55252059126E+01 -0.82134090924E+00 -0.28685440026E+00  0.55932804965E+01  0.00000000000E+00 0.  1.
</event>
<event>
 7    1  0.2318319E-009  0.4778727E+02  0.7816164E-02  0.1312668E+00
        -11   -1    0    0    0    0  0.00000000000E+00  0.00000000000E+00  0.45593999997E+02  0.45594000000E+02  0.51100000000E-03 0.  1.
         11   -1    0    0    0    0 -0.00000000000E+00 -0.00000000000E+00 -0.45593999997E+02  0.45594000000E+02  0.51100000000E-03 0. -1.
    9900012    2    1    2    0    0 -0.25161926396E+01  0.72430580208E+01  0.42718034360E+02  0.47787267581E+02  0.19999984208E+02 0.  0.
         12    1    1    2    0    0  0.25161926396E+01 -0.72430580208E+01 -0.42718034360E+02  0.43400732419E+02  0.00000000000E+00 0. -1.
         11    1    3    3    0    0  0.17308511073E+01 -0.26136499769E+01  0.11126357359E+01  0.33264050113E+01  0.51100000000E-03 0. -1.
        -11    1    3    3    0    0 -0.16669645029E+01 -0.59022651166E+00  0.22210211037E+02  0.22280498481E+02  0.51100000000E-03 0.  1.
        -12    1    3    3    0    0 -0.25800792440E+01  0.10446934509E+02  0.19395187588E+02  0.22180364089E+02  0.00000000000E+00 0.  1.
</event>
<event>
 7    1  0.2318319E-009  0.4778727E+02  0.7816164E-02  0.1312668E+00
        -11   -1    0    0    0    0  0.00000000000E+00  0.00000000000E+00  0.45593999997E+02  0.45594000000E+02  0.51100000000E-03 0.  1.
         11   -1    0    0    0    0 -0.00000000000E+00 -0.00000000000E+00 -0.45593999997E+02  0.45594000000E+02  0.51100000000E-03 0. -1.
    9900012    2    1    2    0    0 -0.36812026455E+01  0.79400396889E+01  0.42509149141E+02  0.47787271391E+02  0.20000001578E+02 0.  0.
         12    1    1    2    0    0  0.36812026455E+01 -0.79400396889E+01 -0.42509149141E+02  0.43400728609E+02  0.00000000000E+00 0. -1.
         11    1    3    3    0    0 -0.35536901352E+01  0.20648256307E+01  0.99105493222E+01  0.10728989076E+02  0.51100000000E-03 0. -1.
        -11    1    3    3    0    0  0.58996460544E+01  0.80460045582E+01  0.26059338628E+02  0.27903998691E+02  0.51100000000E-03 0.  1.
         12    1    3    3    0    0 -0.60271585648E+01 -0.21707905000E+01  0.65392611899E+01  0.91542836241E+01  0.00000000000E+00 0. -1.
</event>
<event>
 7    1  0.2318319E-009  0.4778727E+02  0.7816164E-02  0.1312668E+00
        -11   -1    0    0    0    0  0.00000000000E+00  0.00000000000E+00  0.45593999997E+02  0.45594000000E+02  0.51100000000E-03 0.  1.
         11   -1    0    0    0    0 -0.00000000000E+00 -0.00000000000E+00 -0.45593999997E+02  0.45594000000E+02  0.51100000000E-03 0. -1.
    9900012    2    1    2    0    0 -0.30102511153E+02  0.16132061331E+02  0.26780933625E+02  0.47787274357E+02  0.20000015102E+02 0.  0.
         12    1    1    2    0    0  0.30102511153E+02 -0.16132061331E+02 -0.26780933625E+02  0.43400725643E+02  0.00000000000E+00 0. -1.
         11    1    3    3    0    0 -0.67845825052E+01  0.99939479055E+01  0.49058660098E+01  0.13037525688E+02  0.51100000000E-03 0. -1.
        -11    1    3    3    0    0 -0.20434389372E+02  0.84946198858E+01  0.14411157693E+02  0.26408413476E+02  0.51100000000E-03 0.  1.
        -12    1    3    3    0    0 -0.28835392765E+01 -0.23565064606E+01  0.74639099227E+01  0.83413351924E+01  0.00000000000E+00 0.  1.
</event>
<event>
 7    1  0.2318319E-009  0.4778727E+02  0.7816164E-02  0.1312668E+00
        -11   -1    0    0    0    0  0.00000000000E+00  0.00000000000E+00  0.45593999997E+02  0.45594000000E+02  0.51100000000E-03 0.  1.
         11   -1    0    0    0    0 -0.00000000000E+00 -0.00000000000E+00 -0.45593999997E+02  0.45594000000E+02  0.51100000000E-03 0. -1.
    9900012    2    1    2    0    0  0.15957389495E+02  0.43975305390E+01  0.40120399497E+02  0.47787274083E+02  0.20000013855E+02 0.  0.
         12    1    1    2    0    0 -0.15957389495E+02 -0.43975305390E+01 -0.40120399497E+02  0.43400725917E+02  0.00000000000E+00 0. -1.
         11    1    3    3    0    0 -0.28020391488E+01 -0.24240471038E+00  0.42192747031E+01  0.50707457751E+01  0.51100000000E-03 0. -1.
        -11    1    3    3    0    0  0.65287920111E+01 -0.36187353443E+01  0.68474135790E+01  0.10129533237E+02  0.51100000000E-03 0.  1.
         12    1    3    3    0    0  0.12230636633E+02  0.82586705937E+01  0.29053711215E+02  0.32586995071E+02  0.00000000000E+00 0. -1.
</event>
<event>
 7    1  0.2318319E-009  0.4778726E+02  0.7816164E-02  0.1312668E+00
        -11   -1    0    0    0    0  0.00000000000E+00  0.00000000000E+00  0.45593999997E+02  0.45594000000E+02  0.51100000000E-03 0.  1.
         11   -1    0    0    0    0 -0.00000000000E+00 -0.00000000000E+00 -0.45593999997E+02  0.45594000000E+02  0.51100000000E-03 0. -1.
    9900012    2    1    2    0    0  0.57620551170E+01  0.38100404862E+02  0.19969526748E+02  0.47787261201E+02  0.19999955118E+02 0.  0.
         12    1    1    2    0    0 -0.57620551170E+01 -0.38100404862E+02 -0.19969526748E+02  0.43400738799E+02  0.00000000000E+00 0. -1.
         11    1    3    3    0    0 -0.31257582007E+01  0.83521929195E+01  0.62215685975E+01  0.10873702542E+02  0.51100000000E-03 0. -1.
        -11    1    3    3    0    0 -0.12052264861E+01  0.79846702159E+01 -0.18685098428E+01  0.82884774617E+01  0.51100000000E-03 0.  1.
         12    1    3    3    0    0  0.10093039804E+02  0.21763541726E+02  0.15616467993E+02  0.28625081197E+02  0.00000000000E+00 0. -1.
</event>
<event>
 7    1  0.2318319E-009  0.4778727E+02  0.7816164E-02  0.1312668E+00
        -11   -1    0    0    0    0  0.00000000000E+00  0.00000000000E+00  0.45593999997E+02  0.45594000000E+02  0.51100000000E-03 0.  1.
         11   -1    0    0    0    0 -0.00000000000E+00 -0.00000000000E+00 -0.45593999997E+02  0.45594000000E+02  0.51100000000E-03 0. -1.
    9900012    2    1    2    0    0 -0.37760280144E+02 -0.92170981697E+01  0.19308793362E+02  0.47787272399E+02  0.20000006174E+02 0.  0.
         12    1    1    2    0    0  0.37760280144E+02  0.92170981697E+01 -0.19308793362E+02  0.43400727601E+02  0.00000000000E+00 0. -1.
         11    1    3    3    0    0 -0.69217134909E+01  0.57370245036E+01  0.20783844862E+01  0.92273100164E+01  0.51100000000E-03 0. -1.
        -11    1    3    3    0    0 -0.56573089628E+01 -0.12233178746E+01  0.23364766113E+01  0.62418566580E+01  0.51100000000E-03 0.  1.
         12    1    3    3    0    0 -0.25181257690E+02 -0.13730804799E+02  0.14893932265E+02  0.32318105724E+02  0.00000000000E+00 0. -1.
</event>
<event>
 7    1  0.2318319E-009  0.4778727E+02  0.7816164E-02  0.1312668E+00
        -11   -1    0    0    0    0  0.00000000000E+00  0.00000000000E+00  0.45593999997E+02  0.45594000000E+02  0.51100000000E-03 0. -1.
         11   -1    0    0    0    0 -0.00000000000E+00 -0.00000000000E+00 -0.45593999997E+02  0.45594000000E+02  0.51100000000E-03 0.  1.
    9900012    2    1    2    0    0 -0.33537776872E+02 -0.15169535093E+01 -0.27505274590E+02  0.47787265493E+02  0.19999974690E+02 0.  0.
         12    1    1    2    0    0  0.33537776872E+02  0.15169535093E+01  0.27505274590E+02  0.43400734507E+02  0.00000000000E+00 0. -1.
         11    1    3    3    0    0 -0.78328400975E+00 -0.54896835395E+00 -0.43992380994E+01  0.45020213471E+01  0.51100000000E-03 0. -1.
        -11    1    3    3    0    0 -0.75774057212E+01  0.38723709482E+01 -0.13395321933E+02  0.15869687589E+02  0.51100000000E-03 0.  1.
         12    1    3    3    0    0 -0.25177087141E+02 -0.48403561036E+01 -0.97107145571E+01  0.27415556557E+02  0.00000000000E+00 0. -1.
</event>
<event>
 7    1  0.2318319E-009  0.4778728E+02  0.7816164E-02  0.1312668E+00
        -11   -1    0    0    0    0  0.00000000000E+00  0.00000000000E+00  0.45593999997E+02  0.45594000000E+02  0.51100000000E-03 0.  1.
         11   -1    0    0    0    0 -0.00000000000E+00 -0.00000000000E+00 -0.45593999997E+02  0.45594000000E+02  0.51100000000E-03 0. -1.
    9900012    2    1    2    0    0 -0.38277729313E+02 -0.18448031902E+02  0.88378557026E+01  0.47787284156E+02  0.20000059779E+02 0.  0.
         12    1    1    2    0    0  0.38277729313E+02  0.18448031902E+02 -0.88378557026E+01  0.43400715844E+02  0.00000000000E+00 0. -1.
         11    1    3    3    0    0 -0.26382052215E+02 -0.12104100572E+02  0.12859580417E+02  0.31747294979E+02  0.51100000000E-03 0.  1.
        -11    1    3    3    0    0 -0.35873114444E+01  0.14760285392E+01  0.17478113012E+00  0.38830416367E+01  0.51100000000E-03 0. -1.
         12    1    3    3    0    0 -0.83083656538E+01 -0.78199598684E+01 -0.41965058447E+01  0.12156947540E+02  0.00000000000E+00 0. -1.
</event>
<event>
 7    1  0.2318319E-009  0.4778727E+02  0.7816164E-02  0.1312668E+00
        -11   -1    0    0    0    0  0.00000000000E+00  0.00000000000E+00  0.45593999997E+02  0.45594000000E+02  0.51100000000E-03 0.  1.
         11   -1    0    0    0    0 -0.00000000000E+00 -0.00000000000E+00 -0.45593999997E+02  0.45594000000E+02  0.51100000000E-03 0. -1.
    9900012    2    1    2    0    0  0.27936741788E+02  0.32947245359E+02  0.42000777933E+01  0.47787272219E+02  0.20000005355E+02 0.  0.
         12    1    1    2    0    0 -0.27936741788E+02 -0.32947245359E+02 -0.42000777933E+01  0.43400727781E+02  0.00000000000E+00 0. -1.
         11    1    3    3    0    0  0.69277896812E+01  0.89345262486E+01 -0.41073354064E+01  0.12028725350E+02  0.51100000000E-03 0. -1.
        -11    1    3    3    0    0  0.13527524997E+02  0.75619648491E+01 -0.80610655470E+00  0.15518603448E+02  0.51100000000E-03 0.  1.
         12    1    3    3    0    0  0.74814271095E+01  0.16450754261E+02  0.91135197545E+01  0.20239943421E+02  0.00000000000E+00 0. -1.
</event>
<event>
 7    1  0.2318319E-009  0.4778727E+02  0.7816164E-02  0.1312668E+00
        -11   -1    0    0    0    0  0.00000000000E+00  0.00000000000E+00  0.45593999997E+02  0.45594000000E+02  0.51100000000E-03 0.  1.
         11   -1    0    0    0    0 -0.00000000000E+00 -0.00000000000E+00 -0.45593999997E+02  0.45594000000E+02  0.51100000000E-03 0. -1.
    9900012    2    1    2    0    0  0.17150626569E+02 -0.18553866718E+02  0.35287862959E+02  0.47787271502E+02  0.20000002087E+02 0.  0.
         12    1    1    2    0    0 -0.17150626569E+02  0.18553866718E+02 -0.35287862959E+02  0.43400728498E+02  0.00000000000E+00 0. -1.
         11    1    3    3    0    0  0.68143590419E+00 -0.39556960582E+01 -0.16806623182E+00  0.40174784027E+01  0.51100000000E-03 0. -1.
        -11    1    3    3    0    0  0.52254750860E+01 -0.11974187512E+02  0.12537420861E+02  0.18107282473E+02  0.51100000000E-03 0.  1.
         12    1    3    3    0    0  0.11243715579E+02 -0.26239831477E+01  0.22918508330E+02  0.25662510627E+02  0.00000000000E+00 0. -1.
</event>
<event>
 7    1  0.2318319E-009  0.4778727E+02  0.7816164E-02  0.1312668E+00
        -11   -1    0    0    0    0  0.00000000000E+00  0.00000000000E+00  0.45593999997E+02  0.45594000000E+02  0.51100000000E-03 0.  1.
         11   -1    0    0    0    0 -0.00000000000E+00 -0.00000000000E+00 -0.45593999997E+02  0.45594000000E+02  0.51100000000E-03 0. -1.
    9900012    2    1    2    0    0 -0.15163283343E+02 -0.30960217635E+02  0.26365947048E+02  0.47787269574E+02  0.19999993295E+02 0.  0.
         12    1    1    2    0    0  0.15163283343E+02  0.30960217635E+02 -0.26365947048E+02  0.43400730426E+02  0.00000000000E+00 0. -1.
         11    1    3    3    0    0 -0.30450189844E+01 -0.12617773873E+01 -0.46709476903E+00  0.33290239673E+01  0.51100000000E-03 0. -1.
        -11    1    3    3    0    0 -0.15328537166E+02 -0.19800981351E+02  0.18764800019E+02  0.31291542533E+02  0.51100000000E-03 0.  1.
        -12    1    3    3    0    0  0.32102728065E+01 -0.98974588973E+01  0.80682417981E+01  0.13166703074E+02  0.00000000000E+00 0.  1.
</event>
<event>
 7    1  0.2318319E-009  0.4778727E+02  0.7816164E-02  0.1312668E+00
        -11   -1    0    0    0    0  0.00000000000E+00  0.00000000000E+00  0.45593999997E+02  0.45594000000E+02  0.51100000000E-03 0.  1.
         11   -1    0    0    0    0 -0.00000000000E+00 -0.00000000000E+00 -0.45593999997E+02  0.45594000000E+02  0.51100000000E-03 0. -1.
    9900012    2    1    2    0    0 -0.41932027163E+02 -0.11038266333E+02  0.18667685139E+01  0.47787273620E+02  0.20000011742E+02 0.  0.
         12    1    1    2    0    0  0.41932027163E+02  0.11038266333E+02 -0.18667685139E+01  0.43400726380E+02  0.00000000000E+00 0. -1.
         11    1    3    3    0    0 -0.15993480448E+02 -0.70023167580E+01  0.25553099833E+01  0.17645210857E+02  0.51100000000E-03 0. -1.
        -11    1    3    3    0    0 -0.14901918595E+02 -0.87214635402E+01 -0.39578689596E+01  0.17714283250E+02  0.51100000000E-03 0.  1.
         12    1    3    3    0    0 -0.11036628121E+02  0.46855139650E+01  0.32693274903E+01  0.12427779513E+02  0.00000000000E+00 0. -1.
</event>
<event>
 7    1  0.2318319E-009  0.4778729E+02  0.7816164E-02  0.1312668E+00
        -11   -1    0    0    0    0  0.00000000000E+00  0.00000000000E+00  0.45593999997E+02  0.45594000000E+02  0.51100000000E-03 0. -1.
         11   -1    0    0    0    0 -0.00000000000E+00 -0.00000000000E+00 -0.45593999997E+02  0.45594000000E+02  0.51100000000E-03 0.  1.
    9900012    2    1    2    0    0  0.18384608511E+02  0.38446132910E+02  0.82172423300E+01  0.47787285290E+02  0.20000064950E+02 0.  0.
         12    1    1    2    0    0 -0.18384608511E+02 -0.38446132910E+02 -0.82172423300E+01  0.43400714710E+02  0.00000000000E+00 0. -1.
         11    1    3    3    0    0  0.13036331285E+02  0.11907926070E+02 -0.80911449627E+00  0.17674821165E+02  0.51100000000E-03 0. -1.
        -11    1    3    3    0    0  0.25864204669E+01  0.10618739119E+02 -0.11937698184E+01  0.10994192919E+02  0.51100000000E-03 0.  1.
         12    1    3    3    0    0  0.27618567589E+01  0.15919467721E+02  0.10220126645E+02  0.19118271206E+02  0.00000000000E+00 0. -1.
</event>
<event>
 7    1  0.2318319E-009  0.4778726E+02  0.7816164E-02  0.1312668E+00
        -11   -1    0    0    0    0  0.00000000000E+00  0.00000000000E+00  0.45593999997E+02  0.45594000000E+02  0.51100000000E-03 0. -1.
         11   -1    0    0    0    0 -0.00000000000E+00 -0.00000000000E+00 -0.45593999997E+02  0.45594000000E+02  0.51100000000E-03 0.  1.
    9900012    2    1    2    0    0  0.31009971397E+02  0.67931665309E+01 -0.29594914585E+02  0.47787257991E+02  0.19999940485E+02 0.  0.
         12    1    1    2    0    0 -0.31009971397E+02 -0.67931665309E+01  0.29594914585E+02  0.43400742009E+02  0.00000000000E+00 0. -1.
         11    1    3    3    0    0  0.33421534759E+01  0.27927152559E+01 -0.73250433139E+01  0.85220600894E+01  0.51100000000E-03 0. -1.
        -11    1    3    3    0    0  0.18722029319E+02  0.52517854282E+01 -0.23099751345E+02  0.30194273372E+02  0.51100000000E-03 0.  1.
         12    1    3    3    0    0  0.89457886028E+01 -0.12513341531E+01  0.82988007357E+00  0.90709245298E+01  0.00000000000E+00 0. -1.
</event>
<event>
 7    1  0.2318319E-009  0.4778727E+02  0.7816164E-02  0.1312668E+00
        -11   -1    0    0    0    0  0.00000000000E+00  0.00000000000E+00  0.45593999997E+02  0.45594000000E+02  0.51100000000E-03 0. -1.
         11   -1    0    0    0    0 -0.00000000000E+00 -0.00000000000E+00 -0.45593999997E+02  0.45594000000E+02  0.51100000000E-03 0.  1.
    9900012    2    1    2    0    0  0.18782046805E+02 -0.38104088561E+02 -0.88846257094E+01  0.47787269346E+02  0.19999992258E+02 0.  0.
         12    1    1    2    0    0 -0.18782046805E+02  0.38104088561E+02  0.88846257094E+01  0.43400730654E+02  0.00000000000E+00 0. -1.
         11    1    3    3    0    0  0.42044193599E+01 -0.18765117026E+02 -0.10439870954E+02  0.21881445678E+02  0.51100000000E-03 0. -1.
        -11    1    3    3    0    0  0.25812022279E+01 -0.10813095190E+02  0.10906709895E+00  0.11117442530E+02  0.51100000000E-03 0.  1.
        -12    1    3    3    0    0  0.11996425217E+02 -0.85258763451E+01  0.14461781460E+01  0.14788381138E+02  0.00000000000E+00 0.  1.
</event>
<event>
 7    1  0.2318319E-009  0.4778728E+02  0.7816164E-02  0.1312668E+00
        -11   -1    0    0    0    0  0.00000000000E+00  0.00000000000E+00  0.45593999997E+02  0.45594000000E+02  0.51100000000E-03 0.  1.
         11   -1    0    0    0    0 -0.00000000000E+00 -0.00000000000E+00 -0.45593999997E+02  0.45594000000E+02  0.51100000000E-03 0. -1.
    9900012    2    1    2    0    0  0.37051364903E+02 -0.81715312771E+01  0.21072382056E+02  0.47787275927E+02  0.20000022261E+02 0.  0.
         12    1    1    2    0    0 -0.37051364903E+02  0.81715312771E+01 -0.21072382056E+02  0.43400724073E+02  0.00000000000E+00 0. -1.
         11    1    3    3    0    0 -0.50899196719E+00  0.71141794325E+00 -0.13385696077E+01  0.15990488324E+01  0.51100000000E-03 0. -1.
        -11    1    3    3    0    0  0.31913791148E+02 -0.84313120270E+01  0.23368398272E+02  0.40443282829E+02  0.51100000000E-03 0.  1.
        -12    1    3    3    0    0  0.56465657219E+01 -0.45163719337E+00 -0.95744660846E+00  0.57449442655E+01  0.00000000000E+00 0.  1.
</event>
<event>
 7    1  0.2318319E-009  0.4778721E+02  0.7816164E-02  0.1312668E+00
        -11   -1    0    0    0    0  0.00000000000E+00  0.00000000000E+00  0.45593999997E+02  0.45594000000E+02  0.51100000000E-03 0. -1.
         11   -1    0    0    0    0 -0.00000000000E+00 -0.00000000000E+00 -0.45593999997E+02  0.45594000000E+02  0.51100000000E-03 0.  1.
    9900012    2    1    2    0    0 -0.17507265769E+02 -0.28658602145E+02  0.27491972174E+02  0.47787212385E+02  0.19999732546E+02 0.  0.
         12    1    1    2    0    0  0.17507265769E+02  0.28658602145E+02 -0.27491972174E+02  0.43400787615E+02  0.00000000000E+00 0. -1.
         11    1    3    3    0    0 -0.13692632541E+01 -0.57716130402E+01  0.21123814105E+00  0.59355724878E+01  0.51100000000E-03 0. -1.
        -11    1    3    3    0    0 -0.12034592259E+02 -0.20622789969E+02  0.13797697083E+02  0.27577297221E+02  0.51100000000E-03 0.  1.
        -12    1    3    3    0    0 -0.41034102561E+01 -0.22641991355E+01  0.13483036949E+02  0.14274342676E+02  0.00000000000E+00 0.  1.
</event>
<event>
 7    1  0.2318319E-009  0.4778727E+02  0.7816164E-02  0.1312668E+00
        -11   -1    0    0    0    0  0.00000000000E+00  0.00000000000E+00  0.45593999997E+02  0.45594000000E+02  0.51100000000E-03 0.  1.
         11   -1    0    0    0    0 -0.00000000000E+00 -0.00000000000E+00 -0.45593999997E+02  0.45594000000E+02  0.51100000000E-03 0. -1.
    9900012    2    1    2    0    0  0.71460916129E+01  0.29371752563E+02  0.31142526279E+02  0.47787269395E+02  0.19999992480E+02 0.  0.
         12    1    1    2    0    0 -0.71460916129E+01 -0.29371752563E+02 -0.31142526279E+02  0.43400730605E+02  0.00000000000E+00 0. -1.
         11    1    3    3    0    0  0.69902245782E+01  0.12707774960E+02  0.10393393722E+02  0.17843021532E+02  0.51100000000E-03 0. -1.
        -11    1    3    3    0    0 -0.19902449272E+01  0.41523745109E+01  0.15565564229E+02  0.16232377490E+02  0.51100000000E-03 0.  1.
        -12    1    3    3    0    0  0.21461119620E+01  0.12511603092E+02  0.51835683278E+01  0.13711870372E+02  0.00000000000E+00 0.  1.
</event>
<event>
 7    1  0.2318319E-009  0.4778727E+02  0.7816164E-02  0.1312668E+00
        -11   -1    0    0    0    0  0.00000000000E+00  0.00000000000E+00  0.45593999997E+02  0.45594000000E+02  0.51100000000E-03 0. -1.
         11   -1    0    0    0    0 -0.00000000000E+00 -0.00000000000E+00 -0.45593999997E+02  0.45594000000E+02  0.51100000000E-03 0.  1.
    9900012    2    1    2    0    0  0.12886806598E+02  0.41257290854E+02 -0.39229015209E+01  0.47787274323E+02  0.20000014950E+02 0.  0.
         12    1    1    2    0    0 -0.12886806598E+02 -0.41257290854E+02  0.39229015209E+01  0.43400725677E+02  0.00000000000E+00 0. -1.
         11    1    3    3    0    0  0.35191427722E+01  0.11862755729E+02 -0.20590603616E+01  0.12543885728E+02  0.51100000000E-03 0.  1.
        -11    1    3    3    0    0  0.12115513136E+02  0.27905405241E+02 -0.49834908618E+01  0.30827463107E+02  0.51100000000E-03 0. -1.
         12    1    3    3    0    0 -0.27478493107E+01  0.14891298846E+01  0.31196497025E+01  0.44159254878E+01  0.00000000000E+00 0. -1.
</event>
<event>
 7    1  0.2318319E-009  0.4778727E+02  0.7816164E-02  0.1312668E+00
        -11   -1    0    0    0    0  0.00000000000E+00  0.00000000000E+00  0.45593999997E+02  0.45594000000E+02  0.51100000000E-03 0.  1.
         11   -1    0    0    0    0 -0.00000000000E+00 -0.00000000000E+00 -0.45593999997E+02  0.45594000000E+02  0.51100000000E-03 0. -1.
    9900012    2    1    2    0    0  0.59381147476E+01 -0.38997508580E+02  0.18098517506E+02  0.47787271686E+02  0.20000002927E+02 0.  0.
         12    1    1    2    0    0 -0.59381147476E+01  0.38997508580E+02 -0.18098517506E+02  0.43400728314E+02  0.00000000000E+00 0. -1.
         11    1    3    3    0    0 -0.25088702239E+00 -0.22116846831E+02  0.96070964787E+01  0.24114604725E+02  0.51100000000E-03 0.  1.
        -11    1    3    3    0    0  0.85550291433E+01 -0.15125201245E+02  0.10314916720E+02  0.20207863409E+02  0.51100000000E-03 0. -1.
         12    1    3    3    0    0 -0.23660273733E+01 -0.17554605048E+01 -0.18234956932E+01  0.34648035526E+01  0.00000000000E+00 0. -1.
</event>
<event>
 7    1  0.2318319E-009  0.4778727E+02  0.7816164E-02  0.1312668E+00
        -11   -1    0    0    0    0  0.00000000000E+00  0.00000000000E+00  0.45593999997E+02  0.45594000000E+02  0.51100000000E-03 0.  1.
         11   -1    0    0    0    0 -0.00000000000E+00 -0.00000000000E+00 -0.45593999997E+02  0.45594000000E+02  0.51100000000E-03 0. -1.
    9900012    2    1    2    0    0 -0.16502085235E+01  0.59863427643E+01  0.42954207227E+02  0.47787269518E+02  0.19999993042E+02 0.  0.
         12    1    1    2    0    0  0.16502085235E+01 -0.59863427643E+01 -0.42954207227E+02  0.43400730482E+02  0.00000000000E+00 0. -1.
         11    1    3    3    0    0  0.71213588174E+01  0.53861811481E+01  0.20075841961E+02  0.21971894081E+02  0.51100000000E-03 0. -1.
        -11    1    3    3    0    0 -0.14487186953E+01  0.17580569802E+01  0.14286691266E+02  0.14467173110E+02  0.51100000000E-03 0.  1.
        -12    1    3    3    0    0 -0.73228486457E+01 -0.11578953640E+01  0.85916739998E+01  0.11348202328E+02  0.00000000000E+00 0.  1.
</event>
<event>
 7    1  0.2318319E-009  0.4778727E+02  0.7816164E-02  0.1312668E+00
        -11   -1    0    0    0    0  0.00000000000E+00  0.00000000000E+00  0.45593999997E+02  0.45594000000E+02  0.51100000000E-03 0. -1.
         11   -1    0    0    0    0 -0.00000000000E+00 -0.00000000000E+00 -0.45593999997E+02  0.45594000000E+02  0.51100000000E-03 0.  1.
    9900012    2    1    2    0    0 -0.26197799281E+02  0.78939947336E+01 -0.33689511783E+02  0.47787273690E+02  0.20000012063E+02 0.  0.
         12    1    1    2    0    0  0.26197799281E+02 -0.78939947336E+01  0.33689511783E+02  0.43400726310E+02  0.00000000000E+00 0. -1.
         11    1    3    3    0    0 -0.81560757094E+01 -0.34244282864E+01 -0.12139161895E+02  0.15020237410E+02  0.51100000000E-03 0. -1.
        -11    1    3    3    0    0 -0.15339084867E+02  0.26485849172E+01 -0.12750508677E+02  0.20121580415E+02  0.51100000000E-03 0.  1.
        -12    1    3    3    0    0 -0.27026387046E+01  0.86698381028E+01 -0.87998412112E+01  0.12645455865E+02  0.00000000000E+00 0.  1.
</event>
<event>
 7    1  0.2318319E-009  0.4778727E+02  0.7816164E-02  0.1312668E+00
        -11   -1    0    0    0    0  0.00000000000E+00  0.00000000000E+00  0.45593999997E+02  0.45594000000E+02  0.51100000000E-03 0.  1.
         11   -1    0    0    0    0 -0.00000000000E+00 -0.00000000000E+00 -0.45593999997E+02  0.45594000000E+02  0.51100000000E-03 0. -1.
    9900012    2    1    2    0    0 -0.32399656956E+02 -0.49097742606E+01  0.28456629000E+02  0.47787269727E+02  0.19999993993E+02 0.  0.
         12    1    1    2    0    0  0.32399656956E+02  0.49097742606E+01 -0.28456629000E+02  0.43400730273E+02  0.00000000000E+00 0. -1.
         11    1    3    3    0    0  0.54602379296E+00  0.13819619014E+01  0.28749831476E+01  0.32362770338E+01  0.51100000000E-03 0. -1.
        -11    1    3    3    0    0  0.14495847120E+01 -0.71164602577E+00  0.14005399961E+01  0.21375800442E+01  0.51100000000E-03 0.  1.
        -12    1    3    3    0    0 -0.34395265461E+02 -0.55800901362E+01  0.24181105857E+02  0.42413412649E+02  0.00000000000E+00 0.  1.
</event>
<event>
 7    1  0.2318319E-009  0.4778727E+02  0.7816164E-02  0.1312668E+00
        -11   -1    0    0    0    0  0.00000000000E+00  0.00000000000E+00  0.45593999997E+02  0.45594000000E+02  0.51100000000E-03 0.  1.
         11   -1    0    0    0    0 -0.00000000000E+00 -0.00000000000E+00 -0.45593999997E+02  0.45594000000E+02  0.51100000000E-03 0. -1.
    9900012    2    1    2    0    0  0.21332534302E+02 -0.13134793067E+02  0.35440422351E+02  0.47787270224E+02  0.19999996261E+02 0.  0.
         12    1    1    2    0    0 -0.21332534302E+02  0.13134793067E+02 -0.35440422351E+02  0.43400729776E+02  0.00000000000E+00 0. -1.
         11    1    3    3    0    0  0.13075489160E+02 -0.61063476776E+01  0.25921451032E+02  0.29667785940E+02  0.51100000000E-03 0. -1.
        -11    1    3    3    0    0  0.16313160578E+01 -0.72569120642E+01  0.86894604224E+01  0.11438124299E+02  0.51100000000E-03 0.  1.
         12    1    3    3    0    0  0.66257290847E+01  0.22846667482E+00  0.82951089635E+00  0.66813599853E+01  0.00000000000E+00 0. -1.
</event>
<event>
 7    1  0.2318319E-009  0.4778727E+02  0.7816164E-02  0.1312668E+00
        -11   -1    0    0    0    0  0.00000000000E+00  0.00000000000E+00  0.45593999997E+02  0.45594000000E+02  0.51100000000E-03 0.  1.
         11   -1    0    0    0    0 -0.00000000000E+00 -0.00000000000E+00 -0.45593999997E+02  0.45594000000E+02  0.51100000000E-03 0. -1.
    9900012    2    1    2    0    0  0.45519621511E+01  0.34619969792E+02  0.25775190138E+02  0.47787273111E+02  0.20000009422E+02 0.  0.
         12    1    1    2    0    0 -0.45519621511E+01 -0.34619969792E+02 -0.25775190138E+02  0.43400726889E+02  0.00000000000E+00 0. -1.
         11    1    3    3    0    0  0.48334415811E+01  0.52917631669E+01  0.36581820610E+01  0.80465651794E+01  0.51100000000E-03 0. -1.
        -11    1    3    3    0    0  0.38313230650E+01  0.13903770089E+01  0.59170756246E+01  0.71849821755E+01  0.51100000000E-03 0.  1.
         12    1    3    3    0    0 -0.41128024950E+01  0.27937829617E+02  0.16199932452E+02  0.32555725756E+02  0.00000000000E+00 0. -1.
</event>
<event>
 7    1  0.2318319E-009  0.4778724E+02  0.7816164E-02  0.1312668E+00
        -11   -1    0    0    0    0  0.00000000000E+00  0.00000000000E+00  0.45593999997E+02  0.45594000000E+02  0.51100000000E-03 0. -1.
         11   -1    0    0    0    0 -0.00000000000E+00 -0.00000000000E+00 -0.45593999997E+02  0.45594000000E+02  0.51100000000E-03 0.  1.
    9900012    2    1    2    0    0 -0.35440547916E+02  0.21272354704E+02 -0.13231797376E+02  0.47787239948E+02  0.19999858220E+02 0.  0.
         12    1    1    2    0    0  0.35440547916E+02 -0.21272354704E+02  0.13231797376E+02  0.43400760052E+02  0.00000000000E+00 0. -1.
         11    1    3    3    0    0 -0.13985582665E+02  0.91766009933E+01 -0.87231165646E+01  0.18865293296E+02  0.51100000000E-03 0. -1.
        -11    1    3    3    0    0 -0.16631612604E+02  0.12534856700E+02 -0.86483759851E+01  0.22550556040E+02  0.51100000000E-03 0.  1.
         12    1    3    3    0    0 -0.48233526477E+01 -0.43910298906E+00  0.41396951741E+01  0.63713906122E+01  0.00000000000E+00 0. -1.
</event>
<event>
 7    1  0.2318319E-009  0.4778727E+02  0.7816164E-02  0.1312668E+00
        -11   -1    0    0    0    0  0.00000000000E+00  0.00000000000E+00  0.45593999997E+02  0.45594000000E+02  0.51100000000E-03 0. -1.
         11   -1    0    0    0    0 -0.00000000000E+00 -0.00000000000E+00 -0.45593999997E+02  0.45594000000E+02  0.51100000000E-03 0.  1.
    9900012    2    1    2    0    0  0.25337734789E+02 -0.29591726089E+02 -0.19129873902E+02  0.47787272671E+02  0.20000007418E+02 0.  0.
         12    1    1    2    0    0 -0.25337734789E+02  0.29591726089E+02  0.19129873902E+02  0.43400727329E+02  0.00000000000E+00 0. -1.
         11    1    3    3    0    0  0.81356988542E+01 -0.11257110940E+02 -0.18193783188E+01  0.14007936332E+02  0.51100000000E-03 0. -1.
        -11    1    3    3    0    0  0.26140362488E+00 -0.64982737101E+01  0.46530396766E+00  0.65201534575E+01  0.51100000000E-03 0.  1.
        -12    1    3    3    0    0  0.16940632310E+02 -0.11836341439E+02 -0.17775799550E+02  0.27259182882E+02  0.00000000000E+00 0.  1.
</event>
<event>
 7    1  0.2318319E-009  0.4778727E+02  0.7816164E-02  0.1312668E+00
        -11   -1    0    0    0    0  0.00000000000E+00  0.00000000000E+00  0.45593999997E+02  0.45594000000E+02  0.51100000000E-03 0. -1.
         11   -1    0    0    0    0 -0.00000000000E+00 -0.00000000000E+00 -0.45593999997E+02  0.45594000000E+02  0.51100000000E-03 0.  1.
    9900012    2    1    2    0    0  0.58208979574E+01 -0.30397959042E+02 -0.30425389895E+02  0.47787272849E+02  0.20000008229E+02 0.  0.
         12    1    1    2    0    0 -0.58208979574E+01  0.30397959042E+02  0.30425389895E+02  0.43400727151E+02  0.00000000000E+00 0. -1.
         11    1    3    3    0    0  0.75322420720E-01 -0.12474407143E+01 -0.99552481242E+00  0.15977645997E+01  0.51100000000E-03 0. -1.
        -11    1    3    3    0    0  0.35215408842E+01 -0.23965154303E+02 -0.10435372864E+02  0.26374739393E+02  0.51100000000E-03 0.  1.
        -12    1    3    3    0    0  0.22240346525E+01 -0.51853640245E+01 -0.18994492218E+02  0.19814768856E+02  0.00000000000E+00 0.  1.
</event>
<event>
 7    1  0.2318319E-009  0.4778727E+02  0.7816164E-02  0.1312668E+00
        -11   -1    0    0    0    0  0.00000000000E+00  0.00000000000E+00  0.45593999997E+02  0.45594000000E+02  0.51100000000E-03 0. -1.
         11   -1    0    0    0    0 -0.00000000000E+00 -0.00000000000E+00 -0.45593999997E+02  0.45594000000E+02  0.51100000000E-03 0.  1.
    9900012    2    1    2    0    0  0.28732870597E+01 -0.84776455371E+01 -0.42467602559E+02  0.47787268214E+02  0.19999987097E+02 0.  0.
         12    1    1    2    0    0 -0.28732870597E+01  0.84776455371E+01  0.42467602559E+02  0.43400731786E+02  0.00000000000E+00 0. -1.
         11    1    3    3    0    0  0.65334441239E+00 -0.84222070226E+00  0.23568157436E+00  0.10916687676E+01  0.51100000000E-03 0. -1.
        -11    1    3    3    0    0  0.55228345097E+01  0.36984745258E+01 -0.10838900438E+02  0.12714644226E+02  0.51100000000E-03 0.  1.
         12    1    3    3    0    0 -0.33028918623E+01 -0.11333899361E+02 -0.31864383696E+02  0.33980955220E+02  0.00000000000E+00 0. -1.
</event>
<event>
 7    1  0.2318319E-009  0.4778727E+02  0.7816164E-02  0.1312668E+00
        -11   -1    0    0    0    0  0.00000000000E+00  0.00000000000E+00  0.45593999997E+02  0.45594000000E+02  0.51100000000E-03 0.  1.
         11   -1    0    0    0    0 -0.00000000000E+00 -0.00000000000E+00 -0.45593999997E+02  0.45594000000E+02  0.51100000000E-03 0. -1.
    9900012    2    1    2    0    0  0.39098983156E+02 -0.16582308936E+02  0.89397965903E+01  0.47787269401E+02  0.19999992506E+02 0.  0.
         12    1    1    2    0    0 -0.39098983156E+02  0.16582308936E+02 -0.89397965903E+01  0.43400730599E+02  0.00000000000E+00 0. -1.
         11    1    3    3    0    0  0.79699665980E+01  0.29340266013E+01  0.46844493559E+01  0.96991208725E+01  0.51100000000E-03 0. -1.
        -11    1    3    3    0    0  0.19645067180E+02 -0.77134752389E+01  0.46679195597E+01  0.21615176105E+02  0.51100000000E-03 0.  1.
        -12    1    3    3    0    0  0.11483949377E+02 -0.11802860299E+02 -0.41257232529E+00  0.16472972423E+02  0.00000000000E+00 0.  1.
</event>
<event>
 7    1  0.2318319E-009  0.4778727E+02  0.7816164E-02  0.1312668E+00
        -11   -1    0    0    0    0  0.00000000000E+00  0.00000000000E+00  0.45593999997E+02  0.45594000000E+02  0.51100000000E-03 0.  1.
         11   -1    0    0    0    0 -0.00000000000E+00 -0.00000000000E+00 -0.45593999997E+02  0.45594000000E+02  0.51100000000E-03 0. -1.
    9900012    2    1    2    0    0  0.74773053658E+01 -0.24313693990E+02  0.35164719537E+02  0.47787270616E+02  0.19999998046E+02 0.  0.
         12    1    1    2    0    0 -0.74773053658E+01  0.24313693990E+02 -0.35164719537E+02  0.43400729384E+02  0.00000000000E+00 0. -1.
         11    1    3    3    0    0  0.14879034610E+01  0.94415276330E+00  0.76838491500E+00  0.19224195142E+01  0.51100000000E-03 0. -1.
        -11    1    3    3    0    0  0.87084632347E-01 -0.15538655243E+02  0.29784382540E+02  0.33594148807E+02  0.51100000000E-03 0.  1.
         12    1    3    3    0    0  0.59023172724E+01 -0.97191915107E+01  0.46119520817E+01  0.12270702295E+02  0.00000000000E+00 0. -1.
</event>
<event>
 7    1  0.2318319E-009  0.4778723E+02  0.7816164E-02  0.1312668E+00
        -11   -1    0    0    0    0  0.00000000000E+00  0.00000000000E+00  0.45593999997E+02  0.45594000000E+02  0.51100000000E-03 0. -1.
         11   -1    0    0    0    0 -0.00000000000E+00 -0.00000000000E+00 -0.45593999997E+02  0.45594000000E+02  0.51100000000E-03 0.  1.
    9900012    2    1    2    0    0 -0.12702756776E+02  0.38285113370E+02 -0.16016143511E+02  0.47787230555E+02  0.19999815391E+02 0.  0.
         12    1    1    2    0    0  0.12702756776E+02 -0.38285113370E+02  0.16016143511E+02  0.43400769445E+02  0.00000000000E+00 0. -1.
         11    1    3    3    0    0 -0.33193986147E+01  0.10267816735E+02 -0.21546445309E+01  0.11004042938E+02  0.51100000000E-03 0. -1.
        -11    1    3    3    0    0 -0.82700030522E+01  0.16781825516E+02  0.25034953272E+00  0.18710566353E+02  0.51100000000E-03 0.  1.
         12    1    3    3    0    0 -0.11133551087E+01  0.11235471119E+02 -0.14111848513E+02  0.18072621263E+02  0.00000000000E+00 0. -1.
</event>
<event>
 7    1  0.2318319E-009  0.4778727E+02  0.7816164E-02  0.1312668E+00
        -11   -1    0    0    0    0  0.00000000000E+00  0.00000000000E+00  0.45593999997E+02  0.45594000000E+02  0.51100000000E-03 0. -1.
         11   -1    0    0    0    0 -0.00000000000E+00 -0.00000000000E+00 -0.45593999997E+02  0.45594000000E+02  0.51100000000E-03 0.  1.
    9900012    2    1    2    0    0 -0.34035303882E+02  0.77194488002E+01  0.25799842336E+02  0.47787266543E+02  0.19999979474E+02 0.  0.
         12    1    1    2    0    0  0.34035303882E+02 -0.77194488002E+01 -0.25799842336E+02  0.43400733457E+02  0.00000000000E+00 0. -1.
         11    1    3    3    0    0 -0.16964912962E+02  0.11343329280E+02  0.14691258110E+02  0.25145823830E+02  0.51100000000E-03 0. -1.
        -11    1    3    3    0    0 -0.16040161203E+01  0.25903244542E+01  0.20328129937E+01  0.36626462320E+01  0.51100000000E-03 0.  1.
         12    1    3    3    0    0 -0.15466374799E+02 -0.62142049344E+01  0.90757712317E+01  0.18978796480E+02  0.00000000000E+00 0. -1.
</event>
<event>
 7    1  0.2318319E-009  0.4778727E+02  0.7816164E-02  0.1312668E+00
        -11   -1    0    0    0    0  0.00000000000E+00  0.00000000000E+00  0.45593999997E+02  0.45594000000E+02  0.51100000000E-03 0. -1.
         11   -1    0    0    0    0 -0.00000000000E+00 -0.00000000000E+00 -0.45593999997E+02  0.45594000000E+02  0.51100000000E-03 0.  1.
    9900012    2    1    2    0    0  0.12356087929E+01 -0.35229516664E+02 -0.25317543511E+02  0.47787267484E+02  0.19999983767E+02 0.  0.
         12    1    1    2    0    0 -0.12356087929E+01  0.35229516664E+02  0.25317543511E+02  0.43400732516E+02  0.00000000000E+00 0. -1.
         11    1    3    3    0    0 -0.47186018188E+01 -0.28816919883E+02 -0.17412664726E+02  0.33998249481E+02  0.51100000000E-03 0. -1.
        -11    1    3    3    0    0  0.96314746986E+00  0.95804732610E+00  0.59317604509E+00  0.14823514460E+01  0.51100000000E-03 0.  1.
         12    1    3    3    0    0  0.49910631418E+01 -0.73706441076E+01 -0.84980548306E+01  0.12306666557E+02  0.00000000000E+00 0. -1.
</event>
<event>
 7    1  0.2318319E-009  0.4778727E+02  0.7816164E-02  0.1312668E+00
        -11   -1    0    0    0    0  0.00000000000E+00  0.00000000000E+00  0.45593999997E+02  0.45594000000E+02  0.51100000000E-03 0. -1.
         11   -1    0    0    0    0 -0.00000000000E+00 -0.00000000000E+00 -0.45593999997E+02  0.45594000000E+02  0.51100000000E-03 0.  1.
    9900012    2    1    2    0    0 -0.21513400019E+02 -0.22961409770E+02 -0.29892650625E+02  0.47787270969E+02  0.19999999657E+02 0.  0.
         12    1    1    2    0    0  0.21513400019E+02  0.22961409770E+02  0.29892650625E+02  0.43400729031E+02  0.00000000000E+00 0. -1.
         11    1    3    3    0    0 -0.35628356586E+01 -0.45724462866E+01 -0.60976874561E+01  0.84132547535E+01  0.51100000000E-03 0. -1.
        -11    1    3    3    0    0 -0.15025427910E+02 -0.22049931022E+02 -0.20085433537E+02  0.33397418801E+02  0.51100000000E-03 0.  1.
         12    1    3    3    0    0 -0.29251364507E+01  0.36609675378E+01 -0.37095296315E+01  0.59765974145E+01  0.00000000000E+00 0. -1.
</event>
<event>
 7    1  0.2318319E-009  0.4778727E+02  0.7816164E-02  0.1312668E+00
        -11   -1    0    0    0    0  0.00000000000E+00  0.00000000000E+00  0.45593999997E+02  0.45594000000E+02  0.51100000000E-03 0.  1.
         11   -1    0    0    0    0 -0.00000000000E+00 -0.00000000000E+00 -0.45593999997E+02  0.45594000000E+02  0.51100000000E-03 0. -1.
    9900012    2    1    2    0    0 -0.13518432426E+02 -0.38156419527E+02  0.15651289920E+02  0.47787271406E+02  0.20000001646E+02 0.  0.
         12    1    1    2    0    0  0.13518432426E+02  0.38156419527E+02 -0.15651289920E+02  0.43400728594E+02  0.00000000000E+00 0. -1.
         11    1    3    3    0    0  0.26205693254E+01 -0.15570916394E+01 -0.65648642780E+00  0.31181553287E+01  0.51100000000E-03 0. -1.
        -11    1    3    3    0    0 -0.20794962432E+00 -0.19096757095E+01 -0.16041603000E+01  0.25026855358E+01  0.51100000000E-03 0.  1.
        -12    1    3    3    0    0 -0.15931052127E+02 -0.34689652178E+02  0.17911936647E+02  0.42166430541E+02  0.00000000000E+00 0.  1.
</event>
<event>
 7    1  0.2318319E-009  0.4778732E+02  0.7816164E-02  0.1312668E+00
        -11   -1    0    0    0    0  0.00000000000E+00  0.00000000000E+00  0.45593999997E+02  0.45594000000E+02  0.51100000000E-03 0.  1.
         11   -1    0    0    0    0 -0.00000000000E+00 -0.00000000000E+00 -0.45593999997E+02  0.45594000000E+02  0.51100000000E-03 0. -1.
    9900012    2    1    2    0    0  0.21415075351E+00 -0.26955523811E+02  0.34014302561E+02  0.47787321397E+02  0.20000229578E+02 0.  0.
         12    1    1    2    0    0 -0.21415075351E+00  0.26955523811E+02 -0.34014302561E+02  0.43400678603E+02  0.00000000000E+00 0. -1.
         11    1    3    3    0    0 -0.17020202546E+00 -0.81252457754E+01  0.13459874335E+01  0.82377345231E+01  0.51100000000E-03 0. -1.
        -11    1    3    3    0    0  0.45228255680E+01 -0.22005389335E+01  0.92737402345E+01  0.10549909048E+02  0.51100000000E-03 0.  1.
         12    1    3    3    0    0 -0.41384727890E+01 -0.16629739102E+02  0.23394574893E+02  0.28999677827E+02  0.00000000000E+00 0. -1.
</event>
<event>
 7    1  0.2318319E-009  0.4778726E+02  0.7816164E-02  0.1312668E+00
        -11   -1    0    0    0    0  0.00000000000E+00  0.00000000000E+00  0.45593999997E+02  0.45594000000E+02  0.51100000000E-03 0.  1.
         11   -1    0    0    0    0 -0.00000000000E+00 -0.00000000000E+00 -0.45593999997E+02  0.45594000000E+02  0.51100000000E-03 0. -1.
    9900012    2    1    2    0    0 -0.27578662853E+02  0.27057869551E+02  0.19771525755E+02  0.47787260604E+02  0.19999952400E+02 0.  0.
         12    1    1    2    0    0  0.27578662853E+02 -0.27057869551E+02 -0.19771525755E+02  0.43400739396E+02  0.00000000000E+00 0. -1.
         11    1    3    3    0    0 -0.46891378092E+01  0.21615131546E+01  0.63131801170E+01  0.81557584541E+01  0.51100000000E-03 0. -1.
        -11    1    3    3    0    0 -0.11243126211E+02  0.19585826967E+02  0.14421382058E+02  0.26795312383E+02  0.51100000000E-03 0.  1.
         12    1    3    3    0    0 -0.11646398833E+02  0.53105294294E+01 -0.96303641996E+00  0.12836189768E+02  0.00000000000E+00 0. -1.
</event>
<event>
 7    1  0.2318319E-009  0.4778727E+02  0.7816164E-02  0.1312668E+00
        -11   -1    0    0    0    0  0.00000000000E+00  0.00000000000E+00  0.45593999997E+02  0.45594000000E+02  0.51100000000E-03 0.  1.
         11   -1    0    0    0    0 -0.00000000000E+00 -0.00000000000E+00 -0.45593999997E+02  0.45594000000E+02  0.51100000000E-03 0. -1.
    9900012    2    1    2    0    0 -0.29340904170E+01  0.43260562140E+02  0.18809886558E+01  0.47787271417E+02  0.20000001697E+02 0.  0.
         12    1    1    2    0    0  0.29340904170E+01 -0.43260562140E+02 -0.18809886558E+01  0.43400728583E+02  0.00000000000E+00 0. -1.
         11    1    3    3    0    0 -0.42272710487E+01  0.15008933809E+02 -0.47522358534E+01  0.16300971151E+02  0.51100000000E-03 0. -1.
        -11    1    3    3    0    0  0.14716120130E+01  0.23621361013E+02  0.33798426616E+00  0.23669570584E+02  0.51100000000E-03 0.  1.
         12    1    3    3    0    0 -0.17843138131E+00  0.46302673181E+01  0.62952402430E+01  0.78167296814E+01  0.00000000000E+00 0. -1.
</event>
<event>
 7    1  0.2318319E-009  0.4778727E+02  0.7816164E-02  0.1312668E+00
        -11   -1    0    0    0    0  0.00000000000E+00  0.00000000000E+00  0.45593999997E+02  0.45594000000E+02  0.51100000000E-03 0. -1.
         11   -1    0    0    0    0 -0.00000000000E+00 -0.00000000000E+00 -0.45593999997E+02  0.45594000000E+02  0.51100000000E-03 0.  1.
    9900012    2    1    2    0    0 -0.18848728367E+02  0.36724657617E+02  0.13403290970E+02  0.47787271354E+02  0.20000001412E+02 0.  0.
         12    1    1    2    0    0  0.18848728367E+02 -0.36724657617E+02 -0.13403290970E+02  0.43400728646E+02  0.00000000000E+00 0. -1.
         11    1    3    3    0    0 -0.58525195961E+01  0.28530172928E+01 -0.14046170655E+01  0.66606788436E+01  0.51100000000E-03 0. -1.
        -11    1    3    3    0    0 -0.62266307737E+01  0.20822629703E+02  0.23555685765E+01  0.21860959314E+02  0.51100000000E-03 0.  1.
         12    1    3    3    0    0 -0.67695779975E+01  0.13049010622E+02  0.12452339459E+02  0.19265633197E+02  0.00000000000E+00 0. -1.
</event>
<event>
 7    1  0.2318319E-009  0.4778727E+02  0.7816164E-02  0.1312668E+00
        -11   -1    0    0    0    0  0.00000000000E+00  0.00000000000E+00  0.45593999997E+02  0.45594000000E+02  0.51100000000E-03 0.  1.
         11   -1    0    0    0    0 -0.00000000000E+00 -0.00000000000E+00 -0.45593999997E+02  0.45594000000E+02  0.51100000000E-03 0. -1.
    9900012    2    1    2    0    0  0.13320568490E+02 -0.30081511460E+02  0.28307042914E+02  0.47787267804E+02  0.19999985227E+02 0.  0.
         12    1    1    2    0    0 -0.13320568490E+02  0.30081511460E+02 -0.28307042914E+02  0.43400732196E+02  0.00000000000E+00 0. -1.
         11    1    3    3    0    0 -0.21650068267E+01 -0.66066881525E+01  0.33089885247E+01  0.76996745530E+01  0.51100000000E-03 0. -1.
        -11    1    3    3    0    0 -0.11296262319E+00 -0.10614323715E+02  0.12150522869E+02  0.16134182184E+02  0.51100000000E-03 0.  1.
         12    1    3    3    0    0  0.15598537939E+02 -0.12860499592E+02  0.12847531521E+02  0.23953411068E+02  0.00000000000E+00 0. -1.
</event>
<event>
 7    1  0.2318319E-009  0.4778727E+02  0.7816164E-02  0.1312668E+00
        -11   -1    0    0    0    0  0.00000000000E+00  0.00000000000E+00  0.45593999997E+02  0.45594000000E+02  0.51100000000E-03 0. -1.
         11   -1    0    0    0    0 -0.00000000000E+00 -0.00000000000E+00 -0.45593999997E+02  0.45594000000E+02  0.51100000000E-03 0.  1.
    9900012    2    1    2    0    0 -0.10821784832E+02  0.43064084889E+01 -0.41808695538E+02  0.47787271854E+02  0.20000003689E+02 0.  0.
         12    1    1    2    0    0  0.10821784832E+02 -0.43064084889E+01  0.41808695538E+02  0.43400728146E+02  0.00000000000E+00 0. -1.
         11    1    3    3    0    0 -0.65965572678E+01 -0.60499762671E+00 -0.69791134457E+01  0.96222977851E+01  0.51100000000E-03 0. -1.
        -11    1    3    3    0    0 -0.84272386333E+01  0.23343670226E+01 -0.12233565009E+02  0.15037544131E+02  0.51100000000E-03 0.  1.
        -12    1    3    3    0    0  0.42020110692E+01  0.25770390930E+01 -0.22596017083E+02  0.23127429938E+02  0.00000000000E+00 0.  1.
</event>
<event>
 7    1  0.2318319E-009  0.4778727E+02  0.7816164E-02  0.1312668E+00
        -11   -1    0    0    0    0  0.00000000000E+00  0.00000000000E+00  0.45593999997E+02  0.45594000000E+02  0.51100000000E-03 0.  1.
         11   -1    0    0    0    0 -0.00000000000E+00 -0.00000000000E+00 -0.45593999997E+02  0.45594000000E+02  0.51100000000E-03 0. -1.
    9900012    2    1    2    0    0  0.36902523638E+02  0.10951177471E+02  0.20047412006E+02  0.47787271123E+02  0.20000000360E+02 0.  0.
         12    1    1    2    0    0 -0.36902523638E+02 -0.10951177471E+02 -0.20047412006E+02  0.43400728877E+02  0.00000000000E+00 0. -1.
         11    1    3    3    0    0  0.19234742239E+01  0.49752234599E+00  0.74465654867E+01  0.77070499793E+01  0.51100000000E-03 0. -1.
        -11    1    3    3    0    0  0.12558972184E+02  0.46636400984E+01 -0.62894835351E+00  0.13411670201E+02  0.51100000000E-03 0.  1.
        -12    1    3    3    0    0  0.22420077230E+02  0.57900150269E+01  0.13229794873E+02  0.26668550943E+02  0.00000000000E+00 0.  1.
</event>
<event>
 7    1  0.2318319E-009  0.4778727E+02  0.7816164E-02  0.1312668E+00
        -11   -1    0    0    0    0  0.00000000000E+00  0.00000000000E+00  0.45593999997E+02  0.45594000000E+02  0.51100000000E-03 0.  1.
         11   -1    0    0    0    0 -0.00000000000E+00 -0.00000000000E+00 -0.45593999997E+02  0.45594000000E+02  0.51100000000E-03 0. -1.
    9900012    2    1    2    0    0 -0.57161479738E+01 -0.42485263925E+02  0.67787442844E+01  0.47787269908E+02  0.19999994819E+02 0.  0.
         12    1    1    2    0    0  0.57161479738E+01  0.42485263925E+02 -0.67787442844E+01  0.43400730092E+02  0.00000000000E+00 0. -1.
         11    1    3    3    0    0 -0.50153827414E+01 -0.17459143845E+01 -0.15871486829E+00  0.53129532043E+01  0.51100000000E-03 0. -1.
        -11    1    3    3    0    0  0.33549157332E+01 -0.65309515510E+01  0.24232856785E+01  0.77318239426E+01  0.51100000000E-03 0.  1.
        -12    1    3    3    0    0 -0.40556809657E+01 -0.34208397990E+02  0.45141734741E+01  0.34742492761E+02  0.00000000000E+00 0.  1.
</event>
<event>
 7    1  0.2318319E-009  0.4778726E+02  0.7816164E-02  0.1312668E+00
        -11   -1    0    0    0    0  0.00000000000E+00  0.00000000000E+00  0.45593999997E+02  0.45594000000E+02  0.51100000000E-03 0.  1.
         11   -1    0    0    0    0 -0.00000000000E+00 -0.00000000000E+00 -0.45593999997E+02  0.45594000000E+02  0.51100000000E-03 0. -1.
    9900012    2    1    2    0    0 -0.20616484430E+02  0.34527759105E+02  0.16322327859E+02  0.47787263073E+02  0.19999963657E+02 0.  0.
         12    1    1    2    0    0  0.20616484430E+02 -0.34527759105E+02 -0.16322327859E+02  0.43400736927E+02  0.00000000000E+00 0. -1.
         11    1    3    3    0    0 -0.37150949410E+01  0.19584172488E+02  0.69946552673E+01  0.21125031243E+02  0.51100000000E-03 0. -1.
        -11    1    3    3    0    0 -0.10790078506E+02  0.14347445727E+02  0.98903353511E+01  0.20496188101E+02  0.51100000000E-03 0.  1.
         12    1    3    3    0    0 -0.61113109828E+01  0.59614088961E+00 -0.56266275958E+00  0.61660437292E+01  0.00000000000E+00 0. -1.
</event>
<event>
 7    1  0.2318319E-009  0.4778727E+02  0.7816164E-02  0.1312668E+00
        -11   -1    0    0    0    0  0.00000000000E+00  0.00000000000E+00  0.45593999997E+02  0.45594000000E+02  0.51100000000E-03 0.  1.
         11   -1    0    0    0    0 -0.00000000000E+00 -0.00000000000E+00 -0.45593999997E+02  0.45594000000E+02  0.51100000000E-03 0. -1.
    9900012    2    1    2    0    0  0.26232728294E+02  0.21037257295E+02  0.27439041236E+02  0.47787271755E+02  0.20000003241E+02 0.  0.
         12    1    1    2    0    0 -0.26232728294E+02 -0.21037257295E+02 -0.27439041236E+02  0.43400728245E+02  0.00000000000E+00 0. -1.
         11    1    3    3    0    0  0.86511784605E+01  0.86375315979E+01  0.93762216190E+01  0.15406601604E+02  0.51100000000E-03 0. -1.
        -11    1    3    3    0    0  0.45071823679E+01  0.22072653391E-01  0.12879439849E+02  0.13645334411E+02  0.51100000000E-03 0.  1.
         12    1    3    3    0    0  0.13074367466E+02  0.12377653044E+02  0.51833797671E+01  0.18735335741E+02  0.00000000000E+00 0. -1.
</event>
<event>
 7    1  0.2318319E-009  0.4778727E+02  0.7816164E-02  0.1312668E+00
        -11   -1    0    0    0    0  0.00000000000E+00  0.00000000000E+00  0.45593999997E+02  0.45594000000E+02  0.51100000000E-03 0.  1.
         11   -1    0    0    0    0 -0.00000000000E+00 -0.00000000000E+00 -0.45593999997E+02  0.45594000000E+02  0.51100000000E-03 0. -1.
    9900012    2    1    2    0    0  0.36826541250E+02  0.22667322055E+02  0.36907379945E+01  0.47787272166E+02  0.20000005112E+02 0.  0.
         12    1    1    2    0    0 -0.36826541250E+02 -0.22667322055E+02 -0.36907379945E+01  0.43400727834E+02  0.00000000000E+00 0. -1.
         11    1    3    3    0    0  0.44389262391E+01  0.75711135177E+01 -0.51633812339E+01  0.10182648579E+02  0.51100000000E-03 0. -1.
        -11    1    3    3    0    0  0.58712625088E+01  0.17160387513E-01  0.28036749611E+01  0.65063516255E+01  0.51100000000E-03 0.  1.
         12    1    3    3    0    0  0.26516352502E+02  0.15079048150E+02  0.60504442673E+01  0.31098271961E+02  0.00000000000E+00 0. -1.
</event>
<event>
 7    1  0.2318319E-009  0.4778727E+02  0.7816164E-02  0.1312668E+00
        -11   -1    0    0    0    0  0.00000000000E+00  0.00000000000E+00  0.45593999997E+02  0.45594000000E+02  0.51100000000E-03 0. -1.
         11   -1    0    0    0    0 -0.00000000000E+00 -0.00000000000E+00 -0.45593999997E+02  0.45594000000E+02  0.51100000000E-03 0.  1.
    9900012    2    1    2    0    0 -0.38120192806E+02 -0.20659006883E+02 -0.19183112431E+01  0.47787267483E+02  0.19999983763E+02 0.  0.
         12    1    1    2    0    0  0.38120192806E+02  0.20659006883E+02  0.19183112431E+01  0.43400732517E+02  0.00000000000E+00 0. -1.
         11    1    3    3    0    0 -0.53308501192E+00  0.15063964786E+01 -0.17158304310E+01  0.23446714716E+01  0.51100000000E-03 0. -1.
        -11    1    3    3    0    0 -0.60271503117E+01  0.49580532757E+00 -0.24491452002E+01  0.65246207764E+01  0.51100000000E-03 0.  1.
        -12    1    3    3    0    0 -0.31559957482E+02 -0.22661208689E+02  0.22466643880E+01  0.38917975235E+02  0.00000000000E+00 0.  1.
</event>
<event>
 7    1  0.2318319E-009  0.4778727E+02  0.7816164E-02  0.1312668E+00
        -11   -1    0    0    0    0  0.00000000000E+00  0.00000000000E+00  0.45593999997E+02  0.45594000000E+02  0.51100000000E-03 0.  1.
         11   -1    0    0    0    0 -0.00000000000E+00 -0.00000000000E+00 -0.45593999997E+02  0.45594000000E+02  0.51100000000E-03 0. -1.
    9900012    2    1    2    0    0  0.21301432736E+02 -0.26987730449E+02 -0.26486495821E+02  0.47787273137E+02  0.20000009541E+02 0.  0.
         12    1    1    2    0    0 -0.21301432736E+02  0.26987730449E+02  0.26486495821E+02  0.43400726863E+02  0.00000000000E+00 0. -1.
         11    1    3    3    0    0  0.73397012147E+01 -0.11408655201E+02 -0.23896737157E+01  0.13774584137E+02  0.51100000000E-03 0. -1.
        -11    1    3    3    0    0  0.44242593658E+01 -0.83560454191E+01 -0.32893038372E+01  0.10010848414E+02  0.51100000000E-03 0.  1.
         12    1    3    3    0    0  0.95374721551E+01 -0.72230298284E+01 -0.20807518268E+02  0.24001840586E+02  0.00000000000E+00 0. -1.
</event>
<event>
 7    1  0.2318319E-009  0.4778727E+02  0.7816164E-02  0.1312668E+00
        -11   -1    0    0    0    0  0.00000000000E+00  0.00000000000E+00  0.45593999997E+02  0.45594000000E+02  0.51100000000E-03 0.  1.
         11   -1    0    0    0    0 -0.00000000000E+00 -0.00000000000E+00 -0.45593999997E+02  0.45594000000E+02  0.51100000000E-03 0. -1.
    9900012    2    1    2    0    0 -0.40560491275E+02  0.10660325213E+02 -0.11172617127E+02  0.47787270057E+02  0.19999995498E+02 0.  0.
         12    1    1    2    0    0  0.40560491275E+02 -0.10660325213E+02  0.11172617127E+02  0.43400729943E+02  0.00000000000E+00 0. -1.
         11    1    3    3    0    0 -0.38937230562E+00 -0.23469278536E+01 -0.14652763713E+01  0.27940501512E+01  0.51100000000E-03 0. -1.
        -11    1    3    3    0    0 -0.17346076403E+02 -0.59007905657E+00 -0.33852400891E+01  0.17683167436E+02  0.51100000000E-03 0.  1.
         12    1    3    3    0    0 -0.22825042567E+02  0.13597332123E+02 -0.63221006666E+01  0.27310052469E+02  0.00000000000E+00 0. -1.
</event>
<event>
 7    1  0.2318319E-009  0.4778726E+02  0.7816164E-02  0.1312668E+00
        -11   -1    0    0    0    0  0.00000000000E+00  0.00000000000E+00  0.45593999997E+02  0.45594000000E+02  0.51100000000E-03 0.  1.
         11   -1    0    0    0    0 -0.00000000000E+00 -0.00000000000E+00 -0.45593999997E+02  0.45594000000E+02  0.51100000000E-03 0. -1.
    9900012    2    1    2    0    0 -0.19276361950E+02  0.12286502796E+02  0.36892922438E+02  0.47787262598E+02  0.19999961491E+02 0.  0.
         12    1    1    2    0    0  0.19276361950E+02 -0.12286502796E+02 -0.36892922438E+02  0.43400737402E+02  0.00000000000E+00 0. -1.
         11    1    3    3    0    0 -0.55196618763E+01  0.97515184760E+01  0.89467062667E+01  0.14338840019E+02  0.51100000000E-03 0. -1.
        -11    1    3    3    0    0  0.56658756608E+00  0.39406915548E+01  0.64182967204E+01  0.75527878596E+01  0.51100000000E-03 0.  1.
        -12    1    3    3    0    0 -0.14323287639E+02 -0.14057072344E+01  0.21527919451E+02  0.25895634719E+02  0.00000000000E+00 0.  1.
</event>
<event>
 7    1  0.2318319E-009  0.4778727E+02  0.7816164E-02  0.1312668E+00
        -11   -1    0    0    0    0  0.00000000000E+00  0.00000000000E+00  0.45593999997E+02  0.45594000000E+02  0.51100000000E-03 0.  1.
         11   -1    0    0    0    0 -0.00000000000E+00 -0.00000000000E+00 -0.45593999997E+02  0.45594000000E+02  0.51100000000E-03 0. -1.
    9900012    2    1    2    0    0  0.90960366957E+01 -0.42436221980E+02  0.22878534115E+00  0.47787272330E+02  0.20000005863E+02 0.  0.
         12    1    1    2    0    0 -0.90960366957E+01  0.42436221980E+02 -0.22878534115E+00  0.43400727670E+02  0.00000000000E+00 0. -1.
         11    1    3    3    0    0 -0.63036062685E+00 -0.74565085452E+01 -0.36553194798E+01  0.83281591583E+01  0.51100000000E-03 0. -1.
        -11    1    3    3    0    0  0.27347556818E+01 -0.29126595997E+02 -0.67955716149E+00  0.29262591840E+02  0.51100000000E-03 0.  1.
         12    1    3    3    0    0  0.69916416407E+01 -0.58531174379E+01  0.45636619825E+01  0.10196521332E+02  0.00000000000E+00 0. -1.
</event>
<event>
 7    1  0.2318319E-009  0.4778727E+02  0.7816164E-02  0.1312668E+00
        -11   -1    0    0    0    0  0.00000000000E+00  0.00000000000E+00  0.45593999997E+02  0.45594000000E+02  0.51100000000E-03 0.  1.
         11   -1    0    0    0    0 -0.00000000000E+00 -0.00000000000E+00 -0.45593999997E+02  0.45594000000E+02  0.51100000000E-03 0. -1.
    9900012    2    1    2    0    0 -0.98621332630E+01 -0.23389899655E+02  0.35203333518E+02  0.47787265339E+02  0.19999973985E+02 0.  0.
         12    1    1    2    0    0  0.98621332630E+01  0.23389899655E+02 -0.35203333518E+02  0.43400734661E+02  0.00000000000E+00 0. -1.
         11    1    3    3    0    0  0.82659659298E+00 -0.11404763332E+02  0.13462616134E+02  0.17663349683E+02  0.51100000000E-03 0. -1.
        -11    1    3    3    0    0  0.44008368734E-01 -0.95993929085E+01  0.12506293821E+02  0.15765711730E+02  0.51100000000E-03 0.  1.
        -12    1    3    3    0    0 -0.10732738225E+02 -0.23857434145E+01  0.92344235630E+01  0.14358203926E+02  0.00000000000E+00 0.  1.
</event>
<event>
 7    1  0.2318319E-009  0.4778728E+02  0.7816164E-02  0.1312668E+00
        -11   -1    0    0    0    0  0.00000000000E+00  0.00000000000E+00  0.45593999997E+02  0.45594000000E+02  0.51100000000E-03 0.  1.
         11   -1    0    0    0    0 -0.00000000000E+00 -0.00000000000E+00 -0.45593999997E+02  0.45594000000E+02  0.51100000000E-03 0. -1.
    9900012    2    1    2    0    0  0.12807357584E+02  0.41162972845E+02  0.50203283756E+01  0.47787280666E+02  0.20000043867E+02 0.  0.
         12    1    1    2    0    0 -0.12807357584E+02 -0.41162972845E+02 -0.50203283756E+01  0.43400719334E+02  0.00000000000E+00 0. -1.
         11    1    3    3    0    0  0.62791644058E+01  0.21592101848E+02 -0.65401551401E+01  0.23418377343E+02  0.51100000000E-03 0. -1.
        -11    1    3    3    0    0  0.19187918716E+01  0.10762703977E+02  0.32325826367E+01  0.11400313588E+02  0.51100000000E-03 0.  1.
         12    1    3    3    0    0  0.46094013068E+01  0.88081670197E+01  0.83279008790E+01  0.12968589735E+02  0.00000000000E+00 0. -1.
</event>
<event>
 7    1  0.2318319E-009  0.4778727E+02  0.7816164E-02  0.1312668E+00
        -11   -1    0    0    0    0  0.00000000000E+00  0.00000000000E+00  0.45593999997E+02  0.45594000000E+02  0.51100000000E-03 0. -1.
         11   -1    0    0    0    0 -0.00000000000E+00 -0.00000000000E+00 -0.45593999997E+02  0.45594000000E+02  0.51100000000E-03 0.  1.
    9900012    2    1    2    0    0  0.62343727738E+01  0.40016298542E+02 -0.15602937835E+02  0.47787271643E+02  0.20000002727E+02 0.  0.
         12    1    1    2    0    0 -0.62343727738E+01 -0.40016298542E+02  0.15602937835E+02  0.43400728357E+02  0.00000000000E+00 0. -1.
         11    1    3    3    0    0 -0.17255953409E+01  0.63380861288E+00 -0.29936614769E+01  0.35130331535E+01  0.51100000000E-03 0. -1.
        -11    1    3    3    0    0  0.76890005742E+00  0.11057834569E+01  0.22229707816E+01  0.25991467271E+01  0.51100000000E-03 0.  1.
        -12    1    3    3    0    0  0.71910680572E+01  0.38276706472E+02 -0.14832247140E+02  0.41675091762E+02  0.00000000000E+00 0.  1.
</event>
<event>
 7    1  0.2318319E-009  0.4778727E+02  0.7816164E-02  0.1312668E+00
        -11   -1    0    0    0    0  0.00000000000E+00  0.00000000000E+00  0.45593999997E+02  0.45594000000E+02  0.51100000000E-03 0. -1.
         11   -1    0    0    0    0 -0.00000000000E+00 -0.00000000000E+00 -0.45593999997E+02  0.45594000000E+02  0.51100000000E-03 0.  1.
    9900012    2    1    2    0    0 -0.26908899092E+02  0.31891648553E+02  0.11935536782E+02  0.47787272632E+02  0.20000007240E+02 0.  0.
         12    1    1    2    0    0  0.26908899092E+02 -0.31891648553E+02 -0.11935536782E+02  0.43400727368E+02  0.00000000000E+00 0. -1.
         11    1    3    3    0    0 -0.25870614297E+01  0.33127180691E+01  0.32018768562E+01  0.52838436304E+01  0.51100000000E-03 0. -1.
        -11    1    3    3    0    0 -0.18814294365E+01  0.54631698693E+01  0.85097902146E+01  0.10286035753E+02  0.51100000000E-03 0.  1.
         12    1    3    3    0    0 -0.22440408226E+02  0.23115760615E+02  0.22386971084E+00  0.32217393249E+02  0.00000000000E+00 0. -1.
</event>
<event>
 7    1  0.2318319E-009  0.4778727E+02  0.7816164E-02  0.1312668E+00
        -11   -1    0    0    0    0  0.00000000000E+00  0.00000000000E+00  0.45593999997E+02  0.45594000000E+02  0.51100000000E-03 0.  1.
         11   -1    0    0    0    0 -0.00000000000E+00 -0.00000000000E+00 -0.45593999997E+02  0.45594000000E+02  0.51100000000E-03 0. -1.
    9900012    2    1    2    0    0 -0.25536452111E+02  0.14956344613E+02  0.31746194861E+02  0.47787268223E+02  0.19999987137E+02 0.  0.
         12    1    1    2    0    0  0.25536452111E+02 -0.14956344613E+02 -0.31746194861E+02  0.43400731777E+02  0.00000000000E+00 0. -1.
         11    1    3    3    0    0 -0.23353558826E+01 -0.27626503176E+01  0.30526550209E+01  0.47333737242E+01  0.51100000000E-03 0. -1.
        -11    1    3    3    0    0 -0.58929022202E+01  0.88075775286E+01  0.17880465209E+02  0.20784868411E+02  0.51100000000E-03 0.  1.
         12    1    3    3    0    0 -0.17308194008E+02  0.89114174023E+01  0.10813074631E+02  0.22269026088E+02  0.00000000000E+00 0. -1.
</event>
<event>
 7    1  0.2318319E-009  0.4778727E+02  0.7816164E-02  0.1312668E+00
        -11   -1    0    0    0    0  0.00000000000E+00  0.00000000000E+00  0.45593999997E+02  0.45594000000E+02  0.51100000000E-03 0.  1.
         11   -1    0    0    0    0 -0.00000000000E+00 -0.00000000000E+00 -0.45593999997E+02  0.45594000000E+02  0.51100000000E-03 0. -1.
    9900012    2    1    2    0    0  0.35024095249E+02  0.98324878674E+01  0.23669774348E+02  0.47787270935E+02  0.19999999501E+02 0.  0.
         12    1    1    2    0    0 -0.35024095249E+02 -0.98324878674E+01 -0.23669774348E+02  0.43400729065E+02  0.00000000000E+00 0. -1.
         11    1    3    3    0    0  0.11971409565E+02  0.91969079411E+01  0.53558521222E+01  0.16018205732E+02  0.51100000000E-03 0. -1.
        -11    1    3    3    0    0  0.36744510830E+01  0.32369897939E+00 -0.15641959591E+01  0.40066296373E+01  0.51100000000E-03 0.  1.
        -12    1    3    3    0    0  0.19378234601E+02  0.31188094684E+00  0.19878118185E+02  0.27762435566E+02  0.00000000000E+00 0.  1.
</event>
<event>
 7    1  0.2318319E-009  0.4778727E+02  0.7816164E-02  0.1312668E+00
        -11   -1    0    0    0    0  0.00000000000E+00  0.00000000000E+00  0.45593999997E+02  0.45594000000E+02  0.51100000000E-03 0. -1.
         11   -1    0    0    0    0 -0.00000000000E+00 -0.00000000000E+00 -0.45593999997E+02  0.45594000000E+02  0.51100000000E-03 0.  1.
    9900012    2    1    2    0    0 -0.55614728233E+01 -0.39345751730E+02 -0.17452940038E+02  0.47787271030E+02  0.19999999936E+02 0.  0.
         12    1    1    2    0    0  0.55614728233E+01  0.39345751730E+02  0.17452940038E+02  0.43400728970E+02  0.00000000000E+00 0. -1.
         11    1    3    3    0    0 -0.45397996497E+01 -0.26212090760E+02 -0.71490406683E+01  0.27546184229E+02  0.51100000000E-03 0. -1.
        -11    1    3    3    0    0  0.25854659487E-01 -0.13642446269E+02 -0.45661328497E+01  0.14386333033E+02  0.51100000000E-03 0.  1.
        -12    1    3    3    0    0 -0.10475278331E+01  0.50878529978E+00 -0.57377665200E+01  0.58547537677E+01  0.00000000000E+00 0.  1.
</event>
<event>
 7    1  0.2318319E-009  0.4778727E+02  0.7816164E-02  0.1312668E+00
        -11   -1    0    0    0    0  0.00000000000E+00  0.00000000000E+00  0.45593999997E+02  0.45594000000E+02  0.51100000000E-03 0.  1.
         11   -1    0    0    0    0 -0.00000000000E+00 -0.00000000000E+00 -0.45593999997E+02  0.45594000000E+02  0.51100000000E-03 0. -1.
    9900012    2    1    2    0    0  0.33811395146E+01 -0.24072963879E+02  0.35953910380E+02  0.47787269984E+02  0.19999995165E+02 0.  0.
         12    1    1    2    0    0 -0.33811395146E+01  0.24072963879E+02 -0.35953910380E+02  0.43400730016E+02  0.00000000000E+00 0. -1.
         11    1    3    3    0    0 -0.20616020731E+01 -0.70887335025E+01  0.14067079109E+02  0.15886568563E+02  0.51100000000E-03 0. -1.
        -11    1    3    3    0    0 -0.43290256735E+01 -0.94271497908E+01  0.13250194929E+02  0.16827931613E+02  0.51100000000E-03 0.  1.
         12    1    3    3    0    0  0.97717672612E+01 -0.75570805857E+01  0.86366363416E+01  0.15072769808E+02  0.00000000000E+00 0. -1.
</event>
<event>
 7    1  0.2318319E-009  0.4778728E+02  0.7816164E-02  0.1312668E+00
        -11   -1    0    0    0    0  0.00000000000E+00  0.00000000000E+00  0.45593999997E+02  0.45594000000E+02  0.51100000000E-03 0.  1.
         11   -1    0    0    0    0 -0.00000000000E+00 -0.00000000000E+00 -0.45593999997E+02  0.45594000000E+02  0.51100000000E-03 0. -1.
    9900012    2    1    2    0    0  0.28339939048E+02 -0.13470658536E+01  0.32842897632E+02  0.47787278157E+02  0.20000032428E+02 0.  0.
         12    1    1    2    0    0 -0.28339939048E+02  0.13470658536E+01 -0.32842897632E+02  0.43400721843E+02  0.00000000000E+00 0. -1.
         11    1    3    3    0    0  0.37666106344E+01  0.63215450104E+01  0.84507348945E+01  0.11205543606E+02  0.51100000000E-03 0. -1.
        -11    1    3    3    0    0  0.17951594566E+01  0.17657506437E+01  0.14597108728E+01  0.29105375627E+01  0.51100000000E-03 0.  1.
        -12    1    3    3    0    0  0.22778168957E+02 -0.94343615077E+01  0.22932451865E+02  0.33671196988E+02  0.00000000000E+00 0.  1.
</event>
<event>
 7    1  0.2318319E-009  0.4778727E+02  0.7816164E-02  0.1312668E+00
        -11   -1    0    0    0    0  0.00000000000E+00  0.00000000000E+00  0.45593999997E+02  0.45594000000E+02  0.51100000000E-03 0.  1.
         11   -1    0    0    0    0 -0.00000000000E+00 -0.00000000000E+00 -0.45593999997E+02  0.45594000000E+02  0.51100000000E-03 0. -1.
    9900012    2    1    2    0    0 -0.12536726087E+02 -0.23981683141E+02  0.33931290231E+02  0.47787273232E+02  0.20000009976E+02 0.  0.
         12    1    1    2    0    0  0.12536726087E+02  0.23981683141E+02 -0.33931290231E+02  0.43400726768E+02  0.00000000000E+00 0. -1.
         11    1    3    3    0    0 -0.50634268954E+01 -0.55355707478E+00  0.82344034326E+01  0.96824644338E+01  0.51100000000E-03 0. -1.
        -11    1    3    3    0    0 -0.83158290198E+01 -0.67489088030E+01  0.14384575393E+02  0.17933677587E+02  0.51100000000E-03 0.  1.
         12    1    3    3    0    0  0.84252982841E+00 -0.16679217263E+02  0.11312311405E+02  0.20171131211E+02  0.00000000000E+00 0. -1.
</event>
<event>
 7    1  0.2318319E-009  0.4778727E+02  0.7816164E-02  0.1312668E+00
        -11   -1    0    0    0    0  0.00000000000E+00  0.00000000000E+00  0.45593999997E+02  0.45594000000E+02  0.51100000000E-03 0.  1.
         11   -1    0    0    0    0 -0.00000000000E+00 -0.00000000000E+00 -0.45593999997E+02  0.45594000000E+02  0.51100000000E-03 0. -1.
    9900012    2    1    2    0    0  0.28544929654E+02  0.15123675134E+02  0.28984219727E+02  0.47787267844E+02  0.19999985407E+02 0.  0.
         12    1    1    2    0    0 -0.28544929654E+02 -0.15123675134E+02 -0.28984219727E+02  0.43400732156E+02  0.00000000000E+00 0. -1.
         11    1    3    3    0    0  0.25540409601E+02  0.72013148103E+01  0.28152774945E+02  0.38687855910E+02  0.51100000000E-03 0. -1.
        -11    1    3    3    0    0  0.29995204871E+01  0.51151661026E+01  0.16864142300E+01  0.61649039430E+01  0.51100000000E-03 0.  1.
         12    1    3    3    0    0  0.49995664393E-02  0.28071942207E+01 -0.85496944834E+00  0.29345079904E+01  0.00000000000E+00 0. -1.
</event>
<event>
 7    1  0.2318319E-009  0.4778728E+02  0.7816164E-02  0.1312668E+00
        -11   -1    0    0    0    0  0.00000000000E+00  0.00000000000E+00  0.45593999997E+02  0.45594000000E+02  0.51100000000E-03 0. -1.
         11   -1    0    0    0    0 -0.00000000000E+00 -0.00000000000E+00 -0.45593999997E+02  0.45594000000E+02  0.51100000000E-03 0.  1.
    9900012    2    1    2    0    0  0.22780568690E+01  0.27573804425E+02 -0.33438281373E+02  0.47787275413E+02  0.20000019916E+02 0.  0.
         12    1    1    2    0    0 -0.22780568690E+01 -0.27573804425E+02  0.33438281373E+02  0.43400724587E+02  0.00000000000E+00 0. -1.
         11    1    3    3    0    0 -0.22412402125E+01  0.58830443131E+01  0.12469141118E+01  0.64178004911E+01  0.51100000000E-03 0. -1.
        -11    1    3    3    0    0  0.43106620118E+00  0.81990422856E+01 -0.99616909937E+01  0.12909120814E+02  0.51100000000E-03 0.  1.
        -12    1    3    3    0    0  0.40882308804E+01  0.13491717826E+02 -0.24723504491E+02  0.28460354108E+02  0.00000000000E+00 0.  1.
</event>
<event>
 7    1  0.2318319E-009  0.4778726E+02  0.7816164E-02  0.1312668E+00
        -11   -1    0    0    0    0  0.00000000000E+00  0.00000000000E+00  0.45593999997E+02  0.45594000000E+02  0.51100000000E-03 0.  1.
         11   -1    0    0    0    0 -0.00000000000E+00 -0.00000000000E+00 -0.45593999997E+02  0.45594000000E+02  0.51100000000E-03 0. -1.
    9900012    2    1    2    0    0 -0.24020260292E+02 -0.30354704394E+01  0.36019957530E+02  0.47787258927E+02  0.19999944750E+02 0.  0.
         12    1    1    2    0    0  0.24020260292E+02  0.30354704394E+01 -0.36019957530E+02  0.43400741073E+02  0.00000000000E+00 0. -1.
         11    1    3    3    0    0 -0.12070794503E+02  0.13497585444E+01  0.11147980353E+02  0.16486460938E+02  0.51100000000E-03 0. -1.
        -11    1    3    3    0    0 -0.10013461176E+02  0.32790345519E+01  0.10367004723E+02  0.14781618974E+02  0.51100000000E-03 0.  1.
         12    1    3    3    0    0 -0.19360046126E+01 -0.76642635357E+01  0.14504972454E+02  0.16519179014E+02  0.00000000000E+00 0. -1.
</event>
<event>
 7    1  0.2318319E-009  0.4778726E+02  0.7816164E-02  0.1312668E+00
        -11   -1    0    0    0    0  0.00000000000E+00  0.00000000000E+00  0.45593999997E+02  0.45594000000E+02  0.51100000000E-03 0. -1.
         11   -1    0    0    0    0 -0.00000000000E+00 -0.00000000000E+00 -0.45593999997E+02  0.45594000000E+02  0.51100000000E-03 0.  1.
    9900012    2    1    2    0    0 -0.25158950461E+02 -0.18839475734E+02  0.29928680305E+02  0.47787256469E+02  0.19999933545E+02 0.  0.
         12    1    1    2    0    0  0.25158950461E+02  0.18839475734E+02 -0.29928680305E+02  0.43400743531E+02  0.00000000000E+00 0. -1.
         11    1    3    3    0    0 -0.12774290364E+01 -0.27758856499E+01  0.49619595199E+01  0.58273843723E+01  0.51100000000E-03 0. -1.
        -11    1    3    3    0    0 -0.21117674959E+02 -0.13431353314E+02  0.10747339481E+02  0.27237157593E+02  0.51100000000E-03 0.  1.
        -12    1    3    3    0    0 -0.27638464651E+01 -0.26322367697E+01  0.14219381304E+02  0.14722714504E+02  0.00000000000E+00 0.  1.
</event>
<event>
 7    1  0.2318319E-009  0.4778727E+02  0.7816164E-02  0.1312668E+00
        -11   -1    0    0    0    0  0.00000000000E+00  0.00000000000E+00  0.45593999997E+02  0.45594000000E+02  0.51100000000E-03 0.  1.
         11   -1    0    0    0    0 -0.00000000000E+00 -0.00000000000E+00 -0.45593999997E+02  0.45594000000E+02  0.51100000000E-03 0. -1.
    9900012    2    1    2    0    0  0.59099974374E+01  0.43325729810E+01  0.42777609842E+02  0.47787272331E+02  0.20000005867E+02 0.  0.
         12    1    1    2    0    0 -0.59099974374E+01 -0.43325729810E+01 -0.42777609842E+02  0.43400727669E+02  0.00000000000E+00 0. -1.
         11    1    3    3    0    0  0.34981084052E+01 -0.21521950924E+01  0.15059491512E+02  0.15609516039E+02  0.51100000000E-03 0. -1.
        -11    1    3    3    0    0  0.12425370144E+01  0.90353547251E-01  0.25161959016E+02  0.25192781581E+02  0.51100000000E-03 0.  1.
        -12    1    3    3    0    0  0.11693520178E+01  0.63944145262E+01  0.25561593150E+01  0.69849747113E+01  0.00000000000E+00 0.  1.
</event>
<event>
 7    1  0.2318319E-009  0.4778727E+02  0.7816164E-02  0.1312668E+00
        -11   -1    0    0    0    0  0.00000000000E+00  0.00000000000E+00  0.45593999997E+02  0.45594000000E+02  0.51100000000E-03 0.  1.
         11   -1    0    0    0    0 -0.00000000000E+00 -0.00000000000E+00 -0.45593999997E+02  0.45594000000E+02  0.51100000000E-03 0. -1.
    9900012    2    1    2    0    0  0.50995243589E+01  0.20967955259E+02  0.37655850451E+02  0.47787269941E+02  0.19999994970E+02 0.  0.
         12    1    1    2    0    0 -0.50995243589E+01 -0.20967955259E+02 -0.37655850451E+02  0.43400730059E+02  0.00000000000E+00 0. -1.
         11    1    3    3    0    0  0.10377974488E+00 -0.54257462467E+00 -0.30538905672E+00  0.63120535158E+00  0.51100000000E-03 0. -1.
        -11    1    3    3    0    0  0.32371868270E+01  0.22731539478E+02  0.24702508101E+02  0.33725601141E+02  0.51100000000E-03 0.  1.
        -12    1    3    3    0    0  0.17585577870E+01 -0.12210095944E+01  0.13258731407E+02  0.13430463448E+02  0.00000000000E+00 0.  1.
</event>
<event>
 7    1  0.2318319E-009  0.4778728E+02  0.7816164E-02  0.1312668E+00
        -11   -1    0    0    0    0  0.00000000000E+00  0.00000000000E+00  0.45593999997E+02  0.45594000000E+02  0.51100000000E-03 0.  1.
         11   -1    0    0    0    0 -0.00000000000E+00 -0.00000000000E+00 -0.45593999997E+02  0.45594000000E+02  0.51100000000E-03 0. -1.
    9900012    2    1    2    0    0  0.59114795960E+01 -0.13605204687E+02  0.40786952664E+02  0.47787277734E+02  0.20000030501E+02 0.  0.
         12    1    1    2    0    0 -0.59114795960E+01  0.13605204687E+02 -0.40786952664E+02  0.43400722266E+02  0.00000000000E+00 0. -1.
         11    1    3    3    0    0 -0.61122903778E-01  0.22672769723E+01  0.15867987738E+01  0.27680699934E+01  0.51100000000E-03 0. -1.
        -11    1    3    3    0    0  0.32318749189E+01 -0.68195013561E+01  0.39415344187E+01  0.85138891273E+01  0.51100000000E-03 0.  1.
        -12    1    3    3    0    0  0.27407275809E+01 -0.90529803031E+01  0.35258619472E+02  0.36505318614E+02  0.00000000000E+00 0.  1.
</event>
<event>
 7    1  0.2318319E-009  0.4778727E+02  0.7816164E-02  0.1312668E+00
        -11   -1    0    0    0    0  0.00000000000E+00  0.00000000000E+00  0.45593999997E+02  0.45594000000E+02  0.51100000000E-03 0.  1.
         11   -1    0    0    0    0 -0.00000000000E+00 -0.00000000000E+00 -0.45593999997E+02  0.45594000000E+02  0.51100000000E-03 0. -1.
    9900012    2    1    2    0    0 -0.30590017267E+02  0.29065237064E+02 -0.10153128129E+02  0.47787272209E+02  0.20000005309E+02 0.  0.
         12    1    1    2    0    0  0.30590017267E+02 -0.29065237064E+02  0.10153128129E+02  0.43400727791E+02  0.00000000000E+00 0. -1.
         11    1    3    3    0    0 -0.41484829697E+01 -0.17235559219E+01  0.46169628641E+00  0.45159406205E+01  0.51100000000E-03 0. -1.
        -11    1    3    3    0    0 -0.20870326129E+01  0.20404353741E+00  0.12154391229E+01  0.24237638943E+01  0.51100000000E-03 0.  1.
        -12    1    3    3    0    0 -0.24354501685E+02  0.30584749449E+02 -0.11830263539E+02  0.40847567694E+02  0.00000000000E+00 0.  1.
</event>
<event>
 7    1  0.2318319E-009  0.4778727E+02  0.7816164E-02  0.1312668E+00
        -11   -1    0    0    0    0  0.00000000000E+00  0.00000000000E+00  0.45593999997E+02  0.45594000000E+02  0.51100000000E-03 0.  1.
         11   -1    0    0    0    0 -0.00000000000E+00 -0.00000000000E+00 -0.45593999997E+02  0.45594000000E+02  0.51100000000E-03 0. -1.
    9900012    2    1    2    0    0  0.32474921514E+02  0.28065306211E+02  0.64297449050E+01  0.47787267753E+02  0.19999984993E+02 0.  0.
         12    1    1    2    0    0 -0.32474921514E+02 -0.28065306211E+02 -0.64297449050E+01  0.43400732247E+02  0.00000000000E+00 0. -1.
         11    1    3    3    0    0  0.61150402794E+01  0.54139812053E+01  0.53190159277E+01  0.97466322804E+01  0.51100000000E-03 0. -1.
        -11    1    3    3    0    0  0.11936756190E+02  0.10956250860E+02  0.82063005195E+01  0.18162294726E+02  0.51100000000E-03 0.  1.
         12    1    3    3    0    0  0.14423125044E+02  0.11695074146E+02 -0.70955715422E+01  0.19878340746E+02  0.00000000000E+00 0. -1.
</event>
<event>
 7    1  0.2318319E-009  0.4778726E+02  0.7816164E-02  0.1312668E+00
        -11   -1    0    0    0    0  0.00000000000E+00  0.00000000000E+00  0.45593999997E+02  0.45594000000E+02  0.51100000000E-03 0. -1.
         11   -1    0    0    0    0 -0.00000000000E+00 -0.00000000000E+00 -0.45593999997E+02  0.45594000000E+02  0.51100000000E-03 0.  1.
    9900012    2    1    2    0    0  0.15340585190E+02  0.25735401196E+02 -0.31400310834E+02  0.47787263265E+02  0.19999964530E+02 0.  0.
         12    1    1    2    0    0 -0.15340585190E+02 -0.25735401196E+02  0.31400310834E+02  0.43400736735E+02  0.00000000000E+00 0. -1.
         11    1    3    3    0    0  0.86887530452E+01  0.92822477447E+01 -0.13529153048E+01  0.12786122663E+02  0.51100000000E-03 0. -1.
        -11    1    3    3    0    0 -0.35781786950E-01  0.66250591002E+00 -0.47345001071E+00  0.81507643252E+00  0.51100000000E-03 0.  1.
        -12    1    3    3    0    0  0.66876139321E+01  0.15790647541E+02 -0.29573945518E+02  0.34186064169E+02  0.00000000000E+00 0.  1.
</event>
<event>
 7    1  0.2318319E-009  0.4778727E+02  0.7816164E-02  0.1312668E+00
        -11   -1    0    0    0    0  0.00000000000E+00  0.00000000000E+00  0.45593999997E+02  0.45594000000E+02  0.51100000000E-03 0.  1.
         11   -1    0    0    0    0 -0.00000000000E+00 -0.00000000000E+00 -0.45593999997E+02  0.45594000000E+02  0.51100000000E-03 0. -1.
    9900012    2    1    2    0    0 -0.60886559340E+01 -0.34797619498E+01  0.42830397547E+02  0.47787269265E+02  0.19999991888E+02 0.  0.
         12    1    1    2    0    0  0.60886559340E+01  0.34797619498E+01 -0.42830397547E+02  0.43400730735E+02  0.00000000000E+00 0. -1.
         11    1    3    3    0    0  0.87088835009E+00 -0.18856661234E+01  0.14386855480E+02  0.14536017134E+02  0.51100000000E-03 0.  1.
        -11    1    3    3    0    0 -0.83679402913E+01 -0.64196029581E+01  0.25067806819E+02  0.27196114904E+02  0.51100000000E-03 0. -1.
         12    1    3    3    0    0  0.14083960072E+01  0.48255071317E+01  0.33757352475E+01  0.60551372281E+01  0.00000000000E+00 0. -1.
</event>
<event>
 7    1  0.2318319E-009  0.4778727E+02  0.7816164E-02  0.1312668E+00
        -11   -1    0    0    0    0  0.00000000000E+00  0.00000000000E+00  0.45593999997E+02  0.45594000000E+02  0.51100000000E-03 0. -1.
         11   -1    0    0    0    0 -0.00000000000E+00 -0.00000000000E+00 -0.45593999997E+02  0.45594000000E+02  0.51100000000E-03 0.  1.
    9900012    2    1    2    0    0 -0.28721642983E+02 -0.27776663853E+02 -0.16945426683E+02  0.47787270560E+02  0.19999997792E+02 0.  0.
         12    1    1    2    0    0  0.28721642983E+02  0.27776663853E+02  0.16945426683E+02  0.43400729440E+02  0.00000000000E+00 0. -1.
         11    1    3    3    0    0  0.84283531325E+00  0.23568892457E+00  0.17714279801E+01  0.19758233687E+01  0.51100000000E-03 0. -1.
        -11    1    3    3    0    0 -0.42346012143E+01 -0.36252136040E+01  0.74367333540E+00  0.56237951073E+01  0.51100000000E-03 0.  1.
        -12    1    3    3    0    0 -0.25329877082E+02 -0.24387139174E+02 -0.19460527998E+02  0.40187652084E+02  0.00000000000E+00 0.  1.
</event>
<event>
 7    1  0.2318319E-009  0.4778727E+02  0.7816164E-02  0.1312668E+00
        -11   -1    0    0    0    0  0.00000000000E+00  0.00000000000E+00  0.45593999997E+02  0.45594000000E+02  0.51100000000E-03 0.  1.
         11   -1    0    0    0    0 -0.00000000000E+00 -0.00000000000E+00 -0.45593999997E+02  0.45594000000E+02  0.51100000000E-03 0. -1.
    9900012    2    1    2    0    0 -0.21468140110E+02 -0.79976758616E+01  0.36861622689E+02  0.47787273207E+02  0.20000009858E+02 0.  0.
         12    1    1    2    0    0  0.21468140110E+02  0.79976758616E+01 -0.36861622689E+02  0.43400726793E+02  0.00000000000E+00 0. -1.
         11    1    3    3    0    0 -0.64153383855E+01 -0.25772894358E+01  0.35095320883E+01  0.77534381519E+01  0.51100000000E-03 0. -1.
        -11    1    3    3    0    0 -0.16980271860E+02 -0.78343278262E+01  0.30773776891E+02  0.36010160640E+02  0.51100000000E-03 0.  1.
         12    1    3    3    0    0  0.19274701362E+01  0.24139414004E+01  0.25783137092E+01  0.40236744144E+01  0.00000000000E+00 0. -1.
</event>
<event>
 7    1  0.2318319E-009  0.4778728E+02  0.7816164E-02  0.1312668E+00
        -11   -1    0    0    0    0  0.00000000000E+00  0.00000000000E+00  0.45593999997E+02  0.45594000000E+02  0.51100000000E-03 0.  1.
         11   -1    0    0    0    0 -0.00000000000E+00 -0.00000000000E+00 -0.45593999997E+02  0.45594000000E+02  0.51100000000E-03 0. -1.
    9900012    2    1    2    0    0 -0.97881389210E+01 -0.27831374650E+02  0.31831269132E+02  0.47787276814E+02  0.20000026307E+02 0.  0.
         12    1    1    2    0    0  0.97881389210E+01  0.27831374650E+02 -0.31831269132E+02  0.43400723186E+02  0.00000000000E+00 0. -1.
         11    1    3    3    0    0 -0.54166370030E+01 -0.87725181136E+01  0.47534227462E+01  0.11353063839E+02  0.51100000000E-03 0. -1.
        -11    1    3    3    0    0 -0.94700798201E+01 -0.15321894929E+02  0.20973466291E+02  0.27646503658E+02  0.51100000000E-03 0.  1.
         12    1    3    3    0    0  0.50985779022E+01 -0.37369616081E+01  0.61043800952E+01  0.87877093165E+01  0.00000000000E+00 0. -1.
</event>
<event>
 7    1  0.2318319E-009  0.4778727E+02  0.7816164E-02  0.1312668E+00
        -11   -1    0    0    0    0  0.00000000000E+00  0.00000000000E+00  0.45593999997E+02  0.45594000000E+02  0.51100000000E-03 0. -1.
         11   -1    0    0    0    0 -0.00000000000E+00 -0.00000000000E+00 -0.45593999997E+02  0.45594000000E+02  0.51100000000E-03 0.  1.
    9900012    2    1    2    0    0  0.14167779139E+02 -0.27808940401E+02 -0.30158916969E+02  0.47787269538E+02  0.19999993129E+02 0.  0.
         12    1    1    2    0    0 -0.14167779139E+02  0.27808940401E+02  0.30158916969E+02  0.43400730462E+02  0.00000000000E+00 0. -1.
         11    1    3    3    0    0  0.75541051141E+01 -0.81265598382E+01 -0.66595107164E+01  0.12940423568E+02  0.51100000000E-03 0. -1.
        -11    1    3    3    0    0 -0.45639278450E+01 -0.74847928083E+01 -0.11244279291E+02  0.14257818129E+02  0.51100000000E-03 0.  1.
        -12    1    3    3    0    0  0.11177601870E+02 -0.12197587755E+02 -0.12255126962E+02  0.20589027841E+02  0.00000000000E+00 0.  1.
</event>
<event>
 7    1  0.2318319E-009  0.4778727E+02  0.7816164E-02  0.1312668E+00
        -11   -1    0    0    0    0  0.00000000000E+00  0.00000000000E+00  0.45593999997E+02  0.45594000000E+02  0.51100000000E-03 0.  1.
         11   -1    0    0    0    0 -0.00000000000E+00 -0.00000000000E+00 -0.45593999997E+02  0.45594000000E+02  0.51100000000E-03 0. -1.
    9900012    2    1    2    0    0 -0.41724101308E+01  0.39740270574E+02  0.16938871269E+02  0.47787268768E+02  0.19999989623E+02 0.  0.
         12    1    1    2    0    0  0.41724101308E+01 -0.39740270574E+02 -0.16938871269E+02  0.43400731232E+02  0.00000000000E+00 0. -1.
         11    1    3    3    0    0 -0.41661126589E+00  0.59241327146E+01  0.38632528491E+00  0.59513158927E+01  0.51100000000E-03 0. -1.
        -11    1    3    3    0    0  0.46325090162E+01  0.12546249549E+02  0.13084496766E+02  0.18710226439E+02  0.51100000000E-03 0.  1.
        -12    1    3    3    0    0 -0.83883078811E+01  0.21269888310E+02  0.34680492177E+01  0.23125726436E+02  0.00000000000E+00 0.  1.
</event>
<event>
 7    1  0.2318319E-009  0.4778727E+02  0.7816164E-02  0.1312668E+00
        -11   -1    0    0    0    0  0.00000000000E+00  0.00000000000E+00  0.45593999997E+02  0.45594000000E+02  0.51100000000E-03 0.  1.
         11   -1    0    0    0    0 -0.00000000000E+00 -0.00000000000E+00 -0.45593999997E+02  0.45594000000E+02  0.51100000000E-03 0. -1.
    9900012    2    1    2    0    0 -0.16740379579E+02  0.88865829233E+01  0.39043715515E+02  0.47787269756E+02  0.19999994126E+02 0.  0.
         12    1    1    2    0    0  0.16740379579E+02 -0.88865829233E+01 -0.39043715515E+02  0.43400730244E+02  0.00000000000E+00 0. -1.
         11    1    3    3    0    0 -0.45089825527E+01 -0.23773294210E+01  0.53392938354E+01  0.73817801213E+01  0.51100000000E-03 0. -1.
        -11    1    3    3    0    0  0.80397307268E+00  0.43028666443E+01  0.96062819665E+00  0.44814998442E+01  0.51100000000E-03 0.  1.
        -12    1    3    3    0    0 -0.13035370099E+02  0.69610457001E+01  0.32743793483E+02  0.35923989791E+02  0.00000000000E+00 0.  1.
</event>
<event>
 7    1  0.2318319E-009  0.4778726E+02  0.7816164E-02  0.1312668E+00
        -11   -1    0    0    0    0  0.00000000000E+00  0.00000000000E+00  0.45593999997E+02  0.45594000000E+02  0.51100000000E-03 0.  1.
         11   -1    0    0    0    0 -0.00000000000E+00 -0.00000000000E+00 -0.45593999997E+02  0.45594000000E+02  0.51100000000E-03 0. -1.
    9900012    2    1    2    0    0  0.10459398526E+02 -0.21926775827E+00  0.42120981000E+02  0.47787261109E+02  0.19999954701E+02 0.  0.
         12    1    1    2    0    0 -0.10459398526E+02  0.21926775827E+00 -0.42120981000E+02  0.43400738891E+02  0.00000000000E+00 0. -1.
         11    1    3    3    0    0  0.22685854758E+01  0.36523072108E+01  0.23034988446E+02  0.23432808645E+02  0.51100000000E-03 0. -1.
        -11    1    3    3    0    0  0.51827546896E+01  0.40196741039E+01  0.99083142934E+01  0.11882483683E+02  0.51100000000E-03 0.  1.
        -12    1    3    3    0    0  0.30080583607E+01 -0.78912490730E+01  0.91776782603E+01  0.12471968781E+02  0.00000000000E+00 0.  1.
</event>
<event>
 7    1  0.2318319E-009  0.4778727E+02  0.7816164E-02  0.1312668E+00
        -11   -1    0    0    0    0  0.00000000000E+00  0.00000000000E+00  0.45593999997E+02  0.45594000000E+02  0.51100000000E-03 0.  1.
         11   -1    0    0    0    0 -0.00000000000E+00 -0.00000000000E+00 -0.45593999997E+02  0.45594000000E+02  0.51100000000E-03 0. -1.
    9900012    2    1    2    0    0  0.19868066787E+02  0.30684387044E+02  0.23395545977E+02  0.47787271231E+02  0.20000000852E+02 0.  0.
         12    1    1    2    0    0 -0.19868066787E+02 -0.30684387044E+02 -0.23395545977E+02  0.43400728769E+02  0.00000000000E+00 0. -1.
         11    1    3    3    0    0  0.86039692503E+01  0.53104091414E+01  0.93803861771E+01  0.13792040357E+02  0.51100000000E-03 0. -1.
        -11    1    3    3    0    0 -0.24451748293E+01  0.75186138839E+00  0.24205945789E+01  0.35218537548E+01  0.51100000000E-03 0.  1.
        -12    1    3    3    0    0  0.13709272366E+02  0.24622116514E+02  0.11594565221E+02  0.30473377120E+02  0.00000000000E+00 0.  1.
</event>
<event>
 7    1  0.2318319E-009  0.4778727E+02  0.7816164E-02  0.1312668E+00
        -11   -1    0    0    0    0  0.00000000000E+00  0.00000000000E+00  0.45593999997E+02  0.45594000000E+02  0.51100000000E-03 0.  1.
         11   -1    0    0    0    0 -0.00000000000E+00 -0.00000000000E+00 -0.45593999997E+02  0.45594000000E+02  0.51100000000E-03 0. -1.
    9900012    2    1    2    0    0 -0.22759445052E+02 -0.24348570078E+01  0.36874144337E+02  0.47787269726E+02  0.19999993988E+02 0.  0.
         12    1    1    2    0    0  0.22759445052E+02  0.24348570078E+01 -0.36874144337E+02  0.43400730274E+02  0.00000000000E+00 0. -1.
         11    1    3    3    0    0 -0.17235383510E+02 -0.23834040776E+01  0.23611813440E+02  0.29330134571E+02  0.51100000000E-03 0. -1.
        -11    1    3    3    0    0  0.18695021438E+01 -0.38997526327E+01  0.31383872111E+01  0.53434617440E+01  0.51100000000E-03 0.  1.
         12    1    3    3    0    0 -0.73935636861E+01  0.38482997025E+01  0.10123943686E+02  0.13113673411E+02  0.00000000000E+00 0. -1.
</event>
<event>
 7    1  0.2318319E-009  0.4778728E+02  0.7816164E-02  0.1312668E+00
        -11   -1    0    0    0    0  0.00000000000E+00  0.00000000000E+00  0.45593999997E+02  0.45594000000E+02  0.51100000000E-03 0.  1.
         11   -1    0    0    0    0 -0.00000000000E+00 -0.00000000000E+00 -0.45593999997E+02  0.45594000000E+02  0.51100000000E-03 0. -1.
    9900012    2    1    2    0    0 -0.32730109187E+02 -0.28474525275E+02 -0.12506720762E+01  0.47787276300E+02  0.20000023963E+02 0.  0.
         12    1    1    2    0    0  0.32730109187E+02  0.28474525275E+02  0.12506720762E+01  0.43400723700E+02  0.00000000000E+00 0. -1.
         11    1    3    3    0    0 -0.16955101338E+02 -0.23497705287E+02  0.23228231581E+01  0.29069109426E+02  0.51100000000E-03 0. -1.
        -11    1    3    3    0    0 -0.36084630252E+01 -0.39539791652E+01  0.14023988979E+01  0.55336858940E+01  0.51100000000E-03 0.  1.
        -12    1    3    3    0    0 -0.12166544824E+02 -0.10228408228E+01 -0.49758941322E+01  0.13184480980E+02  0.00000000000E+00 0.  1.
</event>
<event>
 7    1  0.2318319E-009  0.4778727E+02  0.7816164E-02  0.1312668E+00
        -11   -1    0    0    0    0  0.00000000000E+00  0.00000000000E+00  0.45593999997E+02  0.45594000000E+02  0.51100000000E-03 0.  1.
         11   -1    0    0    0    0 -0.00000000000E+00 -0.00000000000E+00 -0.45593999997E+02  0.45594000000E+02  0.51100000000E-03 0. -1.
    9900012    2    1    2    0    0  0.23282084709E+02 -0.19539246292E+02  0.30980407805E+02  0.47787270953E+02  0.19999999582E+02 0.  0.
         12    1    1    2    0    0 -0.23282084709E+02  0.19539246292E+02 -0.30980407805E+02  0.43400729047E+02  0.00000000000E+00 0. -1.
         11    1    3    3    0    0  0.26670342387E+01 -0.88318248388E+01  0.11385262373E+02  0.14653955138E+02  0.51100000000E-03 0. -1.
        -11    1    3    3    0    0  0.34115076664E+01 -0.69736935974E+01  0.11206079105E+02  0.13632571148E+02  0.51100000000E-03 0.  1.
         12    1    3    3    0    0  0.17203542804E+02 -0.37337278561E+01  0.83890663269E+01  0.19500744666E+02  0.00000000000E+00 0. -1.
</event>
<event>
 7    1  0.2318319E-009  0.4778721E+02  0.7816164E-02  0.1312668E+00
        -11   -1    0    0    0    0  0.00000000000E+00  0.00000000000E+00  0.45593999997E+02  0.45594000000E+02  0.51100000000E-03 0.  1.
         11   -1    0    0    0    0 -0.00000000000E+00 -0.00000000000E+00 -0.45593999997E+02  0.45594000000E+02  0.51100000000E-03 0. -1.
    9900012    2    1    2    0    0 -0.29043986789E+02 -0.18655633191E+02 -0.26306702880E+02  0.47787211588E+02  0.19999728914E+02 0.  0.
         12    1    1    2    0    0  0.29043986789E+02  0.18655633191E+02  0.26306702880E+02  0.43400788412E+02  0.00000000000E+00 0. -1.
         11    1    3    3    0    0 -0.13644839075E+01 -0.59351724349E+01 -0.83250351295E+00  0.61466373348E+01  0.51100000000E-03 0. -1.
        -11    1    3    3    0    0  0.60821711403E-01  0.11681996432E+01 -0.33180038658E+01  0.35181727646E+01  0.51100000000E-03 0.  1.
        -12    1    3    3    0    0 -0.27740324593E+02 -0.13888660400E+02 -0.22156195501E+02  0.38122401489E+02  0.00000000000E+00 0.  1.
</event>
<event>
 7    1  0.2318319E-009  0.4778726E+02  0.7816164E-02  0.1312668E+00
        -11   -1    0    0    0    0  0.00000000000E+00  0.00000000000E+00  0.45593999997E+02  0.45594000000E+02  0.51100000000E-03 0. -1.
         11   -1    0    0    0    0 -0.00000000000E+00 -0.00000000000E+00 -0.45593999997E+02  0.45594000000E+02  0.51100000000E-03 0.  1.
    9900012    2    1    2    0    0  0.36254092828E+02 -0.24761056031E+01 -0.23730434663E+02  0.47787264119E+02  0.19999968422E+02 0.  0.
         12    1    1    2    0    0 -0.36254092828E+02  0.24761056031E+01  0.23730434663E+02  0.43400735881E+02  0.00000000000E+00 0. -1.
         11    1    3    3    0    0  0.14148613290E+02 -0.73755983715E+01 -0.11010091602E+02  0.19385686129E+02  0.51100000000E-03 0. -1.
        -11    1    3    3    0    0  0.56521522509E+01 -0.32810207135E+01 -0.10114092423E+01  0.66132345268E+01  0.51100000000E-03 0.  1.
         12    1    3    3    0    0  0.16453327288E+02  0.81805134819E+01 -0.11708933818E+02  0.21788343462E+02  0.00000000000E+00 0. -1.
</event>
<event>
 7    1  0.2318319E-009  0.4778727E+02  0.7816164E-02  0.1312668E+00
        -11   -1    0    0    0    0  0.00000000000E+00  0.00000000000E+00  0.45593999997E+02  0.45594000000E+02  0.51100000000E-03 0.  1.
         11   -1    0    0    0    0 -0.00000000000E+00 -0.00000000000E+00 -0.45593999997E+02  0.45594000000E+02  0.51100000000E-03 0. -1.
    9900012    2    1    2    0    0 -0.26802274163E+02  0.44846202278E+01  0.33840056732E+02  0.47787272373E+02  0.20000006059E+02 0.  0.
         12    1    1    2    0    0  0.26802274163E+02 -0.44846202278E+01 -0.33840056732E+02  0.43400727627E+02  0.00000000000E+00 0. -1.
         11    1    3    3    0    0 -0.13676172796E+02 -0.84816657569E+00  0.10314141296E+02  0.17150469376E+02  0.51100000000E-03 0. -1.
        -11    1    3    3    0    0 -0.69753052689E+01 -0.17516220516E+01  0.18806444353E+02  0.20134681841E+02  0.51100000000E-03 0.  1.
         12    1    3    3    0    0 -0.61507960975E+01  0.70844088552E+01  0.47194710833E+01  0.10502121156E+02  0.00000000000E+00 0. -1.
</event>
<event>
 7    1  0.2318319E-009  0.4778727E+02  0.7816164E-02  0.1312668E+00
        -11   -1    0    0    0    0  0.00000000000E+00  0.00000000000E+00  0.45593999997E+02  0.45594000000E+02  0.51100000000E-03 0.  1.
         11   -1    0    0    0    0 -0.00000000000E+00 -0.00000000000E+00 -0.45593999997E+02  0.45594000000E+02  0.51100000000E-03 0. -1.
    9900012    2    1    2    0    0 -0.38271751476E+01 -0.43222826239E+02  0.87383753211E+00  0.47787267636E+02  0.19999984461E+02 0.  0.
         12    1    1    2    0    0  0.38271751476E+01  0.43222826239E+02 -0.87383753211E+00  0.43400732364E+02  0.00000000000E+00 0. -1.
         11    1    3    3    0    0 -0.67022164302E+01 -0.44607312924E+01  0.11639589035E+01  0.81346560671E+01  0.51100000000E-03 0. -1.
        -11    1    3    3    0    0 -0.16146261887E+01 -0.16745965796E+02  0.25089896088E+01  0.17009685984E+02  0.51100000000E-03 0.  1.
        -12    1    3    3    0    0  0.44896674713E+01 -0.22016129150E+02 -0.27991109802E+01  0.22642925585E+02  0.00000000000E+00 0.  1.
</event>
<event>
 7    1  0.2318319E-009  0.4778729E+02  0.7816164E-02  0.1312668E+00
        -11   -1    0    0    0    0  0.00000000000E+00  0.00000000000E+00  0.45593999997E+02  0.45594000000E+02  0.51100000000E-03 0. -1.
         11   -1    0    0    0    0 -0.00000000000E+00 -0.00000000000E+00 -0.45593999997E+02  0.45594000000E+02  0.51100000000E-03 0.  1.
    9900012    2    1    2    0    0  0.81631368961E+01  0.22170177741E+02 -0.36406977879E+02  0.47787290060E+02  0.20000086698E+02 0.  0.
         12    1    1    2    0    0 -0.81631368961E+01 -0.22170177741E+02  0.36406977879E+02  0.43400709940E+02  0.00000000000E+00 0. -1.
         11    1    3    3    0    0  0.45712904672E+00  0.45485206684E+01 -0.16018991899E+02  0.16658514608E+02  0.51100000000E-03 0.  1.
        -11    1    3    3    0    0 -0.80298119163E+00  0.40397562797E+01 -0.12703594967E+02  0.13354614743E+02  0.51100000000E-03 0. -1.
        -12    1    3    3    0    0  0.85089890410E+01  0.13581900793E+02 -0.76843910132E+01  0.17774160709E+02  0.00000000000E+00 0.  1.
</event>
<event>
 7    1  0.2318319E-009  0.4778727E+02  0.7816164E-02  0.1312668E+00
        -11   -1    0    0    0    0  0.00000000000E+00  0.00000000000E+00  0.45593999997E+02  0.45594000000E+02  0.51100000000E-03 0.  1.
         11   -1    0    0    0    0 -0.00000000000E+00 -0.00000000000E+00 -0.45593999997E+02  0.45594000000E+02  0.51100000000E-03 0. -1.
    9900012    2    1    2    0    0 -0.17466893433E+02 -0.19746464754E+02  0.34476198511E+02  0.47787268436E+02  0.19999988108E+02 0.  0.
         12    1    1    2    0    0  0.17466893433E+02  0.19746464754E+02 -0.34476198511E+02  0.43400731564E+02  0.00000000000E+00 0. -1.
         11    1    3    3    0    0  0.10785680616E+01 -0.39754295743E+01  0.11719304786E+01  0.42826125988E+01  0.51100000000E-03 0. -1.
        -11    1    3    3    0    0 -0.61386737956E+01 -0.11359093156E+02  0.24409567968E+02  0.27614114542E+02  0.51100000000E-03 0.  1.
        -12    1    3    3    0    0 -0.12406787699E+02 -0.44119420240E+01  0.88947000649E+01  0.15890541296E+02  0.00000000000E+00 0.  1.
</event>
<event>
 7    1  0.2318319E-009  0.4778727E+02  0.7816164E-02  0.1312668E+00
        -11   -1    0    0    0    0  0.00000000000E+00  0.00000000000E+00  0.45593999997E+02  0.45594000000E+02  0.51100000000E-03 0.  1.
         11   -1    0    0    0    0 -0.00000000000E+00 -0.00000000000E+00 -0.45593999997E+02  0.45594000000E+02  0.51100000000E-03 0. -1.
    9900012    2    1    2    0    0 -0.19467837725E+00 -0.70445416235E+01  0.42824756731E+02  0.47787271257E+02  0.20000000971E+02 0.  0.
         12    1    1    2    0    0  0.19467837725E+00  0.70445416235E+01 -0.42824756731E+02  0.43400728743E+02  0.00000000000E+00 0. -1.
         11    1    3    3    0    0  0.34088989486E+01  0.15612904234E+01  0.12012900550E+02  0.12584434819E+02  0.51100000000E-03 0. -1.
        -11    1    3    3    0    0  0.25076029560E+01 -0.57274847161E+01  0.37065594890E+01  0.72684755805E+01  0.51100000000E-03 0.  1.
        -12    1    3    3    0    0 -0.61111802819E+01 -0.28783473309E+01  0.27105296692E+02  0.27934360858E+02  0.00000000000E+00 0.  1.
</event>
<event>
 7    1  0.2318319E-009  0.4778725E+02  0.7816164E-02  0.1312668E+00
        -11   -1    0    0    0    0  0.00000000000E+00  0.00000000000E+00  0.45593999997E+02  0.45594000000E+02  0.51100000000E-03 0. -1.
         11   -1    0    0    0    0 -0.00000000000E+00 -0.00000000000E+00 -0.45593999997E+02  0.45594000000E+02  0.51100000000E-03 0.  1.
    9900012    2    1    2    0    0  0.25851612374E+02  0.26562768366E+02 -0.22577393393E+02  0.47787248647E+02  0.19999897880E+02 0.  0.
         12    1    1    2    0    0 -0.25851612374E+02 -0.26562768366E+02  0.22577393393E+02  0.43400751353E+02  0.00000000000E+00 0. -1.
         11    1    3    3    0    0  0.45747369954E+01 -0.31503471261E-01 -0.29871291637E+01  0.54637122864E+01  0.51100000000E-03 0. -1.
        -11    1    3    3    0    0  0.49368620144E+01  0.10892268149E+02 -0.15030808227E+02  0.19207792902E+02  0.51100000000E-03 0.  1.
         12    1    3    3    0    0  0.16340013364E+02  0.15702003689E+02 -0.45594560026E+01  0.23115743458E+02  0.00000000000E+00 0. -1.
</event>
<event>
 7    1  0.2318319E-009  0.4778727E+02  0.7816164E-02  0.1312668E+00
        -11   -1    0    0    0    0  0.00000000000E+00  0.00000000000E+00  0.45593999997E+02  0.45594000000E+02  0.51100000000E-03 0.  1.
         11   -1    0    0    0    0 -0.00000000000E+00 -0.00000000000E+00 -0.45593999997E+02  0.45594000000E+02  0.51100000000E-03 0. -1.
    9900012    2    1    2    0    0  0.24447865071E+01 -0.30264938101E+02  0.31010968910E+02  0.47787266687E+02  0.19999980134E+02 0.  0.
         12    1    1    2    0    0 -0.24447865071E+01  0.30264938101E+02 -0.31010968910E+02  0.43400733313E+02  0.00000000000E+00 0. -1.
         11    1    3    3    0    0 -0.99543393936E+00 -0.97687743023E+01  0.13520876619E+02  0.16710294579E+02  0.51100000000E-03 0.  1.
        -11    1    3    3    0    0 -0.33617969385E+00 -0.44033584293E+00  0.89283597189E+01  0.89455307261E+01  0.51100000000E-03 0. -1.
         12    1    3    3    0    0  0.37764001403E+01 -0.20055827956E+02  0.85617325721E+01  0.22131441382E+02  0.00000000000E+00 0. -1.
</event>
<event>
 7    1  0.2318319E-009  0.4778727E+02  0.7816164E-02  0.1312668E+00
        -11   -1    0    0    0    0  0.00000000000E+00  0.00000000000E+00  0.45593999997E+02  0.45594000000E+02  0.51100000000E-03 0.  1.
         11   -1    0    0    0    0 -0.00000000000E+00 -0.00000000000E+00 -0.45593999997E+02  0.45594000000E+02  0.51100000000E-03 0. -1.
    9900012    2    1    2    0    0  0.11915036733E+01  0.18703373399E+02  0.39145721653E+02  0.47787269807E+02  0.19999994360E+02 0.  0.
         12    1    1    2    0    0 -0.11915036733E+01 -0.18703373399E+02 -0.39145721653E+02  0.43400730193E+02  0.00000000000E+00 0. -1.
         11    1    3    3    0    0 -0.46946629725E+01  0.62092956821E+01  0.12173543944E+02  0.14449580814E+02  0.51100000000E-03 0. -1.
        -11    1    3    3    0    0 -0.35698911153E+00  0.14811226397E+01 -0.15246911136E+01  0.21554231029E+01  0.51100000000E-03 0.  1.
        -12    1    3    3    0    0  0.62431557574E+01  0.11012955077E+02  0.28496868823E+02  0.31182265890E+02  0.00000000000E+00 0.  1.
</event>
<event>
 7    1  0.2318319E-009  0.4778727E+02  0.7816164E-02  0.1312668E+00
        -11   -1    0    0    0    0  0.00000000000E+00  0.00000000000E+00  0.45593999997E+02  0.45594000000E+02  0.51100000000E-03 0.  1.
         11   -1    0    0    0    0 -0.00000000000E+00 -0.00000000000E+00 -0.45593999997E+02  0.45594000000E+02  0.51100000000E-03 0. -1.
    9900012    2    1    2    0    0 -0.31362103071E+02  0.13808837590E+02  0.26633773452E+02  0.47787269673E+02  0.19999993749E+02 0.  0.
         12    1    1    2    0    0  0.31362103071E+02 -0.13808837590E+02 -0.26633773452E+02  0.43400730327E+02  0.00000000000E+00 0. -1.
         11    1    3    3    0    0 -0.78728055220E+01 -0.19980593511E+01  0.23425482048E+01  0.84534513845E+01  0.51100000000E-03 0. -1.
        -11    1    3    3    0    0 -0.12079672237E+02  0.30513872060E+01  0.16108143252E+02  0.20364226588E+02  0.51100000000E-03 0.  1.
        -12    1    3    3    0    0 -0.11409625311E+02  0.12755509735E+02  0.81830819946E+01  0.18969591700E+02  0.00000000000E+00 0.  1.
</event>
<event>
 7    1  0.2318319E-009  0.4778727E+02  0.7816164E-02  0.1312668E+00
        -11   -1    0    0    0    0  0.00000000000E+00  0.00000000000E+00  0.45593999997E+02  0.45594000000E+02  0.51100000000E-03 0.  1.
         11   -1    0    0    0    0 -0.00000000000E+00 -0.00000000000E+00 -0.45593999997E+02  0.45594000000E+02  0.51100000000E-03 0. -1.
    9900012    2    1    2    0    0  0.46778331897E+01  0.20993554089E+02  0.37696311025E+02  0.47787270726E+02  0.19999998547E+02 0.  0.
         12    1    1    2    0    0 -0.46778331897E+01 -0.20993554089E+02 -0.37696311025E+02  0.43400729274E+02  0.00000000000E+00 0. -1.
         11    1    3    3    0    0  0.30943151935E+01  0.48809206698E+01  0.20503803394E+01  0.61320659568E+01  0.51100000000E-03 0. -1.
        -11    1    3    3    0    0  0.76152487822E+01  0.59020912257E+01  0.17521754832E+02  0.19995964280E+02  0.51100000000E-03 0.  1.
        -12    1    3    3    0    0 -0.60317307860E+01  0.10210542194E+02  0.18124175854E+02  0.21659240489E+02  0.00000000000E+00 0.  1.
</event>
<event>
 7    1  0.2318319E-009  0.4778727E+02  0.7816164E-02  0.1312668E+00
        -11   -1    0    0    0    0  0.00000000000E+00  0.00000000000E+00  0.45593999997E+02  0.45594000000E+02  0.51100000000E-03 0.  1.
         11   -1    0    0    0    0 -0.00000000000E+00 -0.00000000000E+00 -0.45593999997E+02  0.45594000000E+02  0.51100000000E-03 0. -1.
    9900012    2    1    2    0    0  0.66767309156E+01  0.16613921439E+02  0.39535076965E+02  0.47787269224E+02  0.19999991699E+02 0.  0.
         12    1    1    2    0    0 -0.66767309156E+01 -0.16613921439E+02 -0.39535076965E+02  0.43400730776E+02  0.00000000000E+00 0. -1.
         11    1    3    3    0    0  0.30546673783E+01  0.19537294853E+01  0.33158529310E+00  0.36411537679E+01  0.51100000000E-03 0. -1.
        -11    1    3    3    0    0  0.34263138557E+01  0.12422364883E+01  0.11906200255E+01  0.38341041244E+01  0.51100000000E-03 0.  1.
        -12    1    3    3    0    0  0.19574968157E+00  0.13417955465E+02  0.38012871646E+02  0.40312011331E+02  0.00000000000E+00 0.  1.
</event>
<event>
 7    1  0.2318319E-009  0.4778727E+02  0.7816164E-02  0.1312668E+00
        -11   -1    0    0    0    0  0.00000000000E+00  0.00000000000E+00  0.45593999997E+02  0.45594000000E+02  0.51100000000E-03 0.  1.
         11   -1    0    0    0    0 -0.00000000000E+00 -0.00000000000E+00 -0.45593999997E+02  0.45594000000E+02  0.51100000000E-03 0. -1.
    9900012    2    1    2    0    0 -0.11211380586E+02  0.82547898269E+01  0.41107019653E+02  0.47787266429E+02  0.19999978957E+02 0.  0.
         12    1    1    2    0    0  0.11211380586E+02 -0.82547898269E+01 -0.41107019653E+02  0.43400733571E+02  0.00000000000E+00 0. -1.
         11    1    3    3    0    0  0.78006476419E+00  0.35640107820E+01  0.49935457222E+01  0.61843490386E+01  0.51100000000E-03 0. -1.
        -11    1    3    3    0    0  0.31434799622E+01  0.30754554252E+01  0.35285317713E+01  0.56383001931E+01  0.51100000000E-03 0.  1.
        -12    1    3    3    0    0 -0.15134925313E+02  0.16153236197E+01  0.32584942160E+02  0.35964617197E+02  0.00000000000E+00 0.  1.
</event>
<event>
 7    1  0.2318319E-009  0.4778727E+02  0.7816164E-02  0.1312668E+00
        -11   -1    0    0    0    0  0.00000000000E+00  0.00000000000E+00  0.45593999997E+02  0.45594000000E+02  0.51100000000E-03 0.  1.
         11   -1    0    0    0    0 -0.00000000000E+00 -0.00000000000E+00 -0.45593999997E+02  0.45594000000E+02  0.51100000000E-03 0. -1.
    9900012    2    1    2    0    0 -0.15357726730E+02  0.40475449843E+02 -0.30824500633E+01  0.47787270643E+02  0.19999998170E+02 0.  0.
         12    1    1    2    0    0  0.15357726730E+02 -0.40475449843E+02  0.30824500633E+01  0.43400729357E+02  0.00000000000E+00 0. -1.
         11    1    3    3    0    0 -0.18148035805E+01  0.45826476153E+01 -0.50993392613E+01  0.70920682713E+01  0.51100000000E-03 0. -1.
        -11    1    3    3    0    0 -0.82241363298E+01  0.67663566687E+01 -0.19359409748E+01  0.10824410776E+02  0.51100000000E-03 0.  1.
        -12    1    3    3    0    0 -0.53187868192E+01  0.29126445559E+02  0.39528301728E+01  0.29870791595E+02  0.00000000000E+00 0.  1.
</event>
<event>
 7    1  0.2318319E-009  0.4778728E+02  0.7816164E-02  0.1312668E+00
        -11   -1    0    0    0    0  0.00000000000E+00  0.00000000000E+00  0.45593999997E+02  0.45594000000E+02  0.51100000000E-03 0.  1.
         11   -1    0    0    0    0 -0.00000000000E+00 -0.00000000000E+00 -0.45593999997E+02  0.45594000000E+02  0.51100000000E-03 0. -1.
    9900012    2    1    2    0    0 -0.15627266158E+02 -0.30809638858E+02  0.26271231425E+02  0.47787275413E+02  0.20000019918E+02 0.  0.
         12    1    1    2    0    0  0.15627266158E+02  0.30809638858E+02 -0.26271231425E+02  0.43400724587E+02  0.00000000000E+00 0. -1.
         11    1    3    3    0    0 -0.96781518826E+01 -0.73221831156E+01  0.12965364261E+02  0.17758988151E+02  0.51100000000E-03 0. -1.
        -11    1    3    3    0    0 -0.87136230220E+01 -0.11568685446E+02  0.90294292746E+01  0.17067287494E+02  0.51100000000E-03 0.  1.
         12    1    3    3    0    0  0.27645087470E+01 -0.11918770296E+02  0.42764378889E+01  0.12960999768E+02  0.00000000000E+00 0. -1.
</event>
<event>
 7    1  0.2318319E-009  0.4778727E+02  0.7816164E-02  0.1312668E+00
        -11   -1    0    0    0    0  0.00000000000E+00  0.00000000000E+00  0.45593999997E+02  0.45594000000E+02  0.51100000000E-03 0. -1.
         11   -1    0    0    0    0 -0.00000000000E+00 -0.00000000000E+00 -0.45593999997E+02  0.45594000000E+02  0.51100000000E-03 0.  1.
    9900012    2    1    2    0    0  0.35664560923E+02  0.35643660887E+01 -0.24473619363E+02  0.47787266640E+02  0.19999979920E+02 0.  0.
         12    1    1    2    0    0 -0.35664560923E+02 -0.35643660887E+01  0.24473619363E+02  0.43400733360E+02  0.00000000000E+00 0. -1.
         11    1    3    3    0    0  0.70735319298E+01  0.56542292329E+01  0.31848924057E+00  0.90612691075E+01  0.51100000000E-03 0. -1.
        -11    1    3    3    0    0  0.13736326932E+02  0.28757922326E+01 -0.10564719329E+02  0.17566165014E+02  0.51100000000E-03 0.  1.
         12    1    3    3    0    0  0.14854702061E+02 -0.49656553768E+01 -0.14227389275E+02  0.21159832519E+02  0.00000000000E+00 0. -1.
</event>
<event>
 7    1  0.2318319E-009  0.4778727E+02  0.7816164E-02  0.1312668E+00
        -11   -1    0    0    0    0  0.00000000000E+00  0.00000000000E+00  0.45593999997E+02  0.45594000000E+02  0.51100000000E-03 0.  1.
         11   -1    0    0    0    0 -0.00000000000E+00 -0.00000000000E+00 -0.45593999997E+02  0.45594000000E+02  0.51100000000E-03 0. -1.
    9900012    2    1    2    0    0 -0.77926119416E+00  0.99791848921E+01  0.42230698380E+02  0.47787271149E+02  0.20000000478E+02 0.  0.
         12    1    1    2    0    0  0.77926119416E+00 -0.99791848921E+01 -0.42230698380E+02  0.43400728851E+02  0.00000000000E+00 0. -1.
         11    1    3    3    0    0 -0.18031812061E+01 -0.69902243363E+00 -0.64933086572E-01  0.19350223233E+01  0.51100000000E-03 0. -1.
        -11    1    3    3    0    0 -0.60061178731E+01  0.37680961562E+01  0.24540358869E+02  0.25544103316E+02  0.51100000000E-03 0.  1.
        -12    1    3    3    0    0  0.70300378850E+01  0.69101111695E+01  0.17755272598E+02  0.20308145510E+02  0.00000000000E+00 0.  1.
</event>
<event>
 7    1  0.2318319E-009  0.4778727E+02  0.7816164E-02  0.1312668E+00
        -11   -1    0    0    0    0  0.00000000000E+00  0.00000000000E+00  0.45593999997E+02  0.45594000000E+02  0.51100000000E-03 0.  1.
         11   -1    0    0    0    0 -0.00000000000E+00 -0.00000000000E+00 -0.45593999997E+02  0.45594000000E+02  0.51100000000E-03 0. -1.
    9900012    2    1    2    0    0  0.18809551149E+02  0.31163714249E+01  0.38988618297E+02  0.47787270260E+02  0.19999996424E+02 0.  0.
         12    1    1    2    0    0 -0.18809551149E+02 -0.31163714249E+01 -0.38988618297E+02  0.43400729740E+02  0.00000000000E+00 0. -1.
         11    1    3    3    0    0  0.30291132703E+01  0.35336259519E+01  0.30580140792E+01  0.55689756636E+01  0.51100000000E-03 0. -1.
        -11    1    3    3    0    0  0.97027800383E+00  0.42775739189E+01  0.17842656623E+02  0.18373880202E+02  0.51100000000E-03 0.  1.
         12    1    3    3    0    0  0.14810159875E+02 -0.46948284460E+01  0.18087947594E+02  0.23844414395E+02  0.00000000000E+00 0. -1.
</event>
<event>
 7    1  0.2318319E-009  0.4778727E+02  0.7816164E-02  0.1312668E+00
        -11   -1    0    0    0    0  0.00000000000E+00  0.00000000000E+00  0.45593999997E+02  0.45594000000E+02  0.51100000000E-03 0.  1.
         11   -1    0    0    0    0 -0.00000000000E+00 -0.00000000000E+00 -0.45593999997E+02  0.45594000000E+02  0.51100000000E-03 0. -1.
    9900012    2    1    2    0    0 -0.25796640302E+02 -0.16181601435E+02 -0.30924301896E+02  0.47787270471E+02  0.19999997386E+02 0.  0.
         12    1    1    2    0    0  0.25796640302E+02  0.16181601435E+02  0.30924301896E+02  0.43400729529E+02  0.00000000000E+00 0. -1.
         11    1    3    3    0    0 -0.56034499495E+01  0.25997083102E+01 -0.19732316191E+01  0.64846571165E+01  0.51100000000E-03 0. -1.
        -11    1    3    3    0    0 -0.91701983895E-01 -0.42419327541E+01 -0.20624846781E+01  0.47176525998E+01  0.51100000000E-03 0.  1.
        -12    1    3    3    0    0 -0.20101488369E+02 -0.14539376991E+02 -0.26888585599E+02  0.36584960755E+02  0.00000000000E+00 0.  1.
</event>
<event>
 7    1  0.2318319E-009  0.4778727E+02  0.7816164E-02  0.1312668E+00
        -11   -1    0    0    0    0  0.00000000000E+00  0.00000000000E+00  0.45593999997E+02  0.45594000000E+02  0.51100000000E-03 0.  1.
         11   -1    0    0    0    0 -0.00000000000E+00 -0.00000000000E+00 -0.45593999997E+02  0.45594000000E+02  0.51100000000E-03 0. -1.
    9900012    2    1    2    0    0  0.85678600352E+01  0.11020293255E+02  0.41094628297E+02  0.47787267704E+02  0.19999984769E+02 0.  0.
         12    1    1    2    0    0 -0.85678600352E+01 -0.11020293255E+02 -0.41094628297E+02  0.43400732296E+02  0.00000000000E+00 0. -1.
         11    1    3    3    0    0  0.10380744134E+00  0.82004808083E+01  0.94374393964E+01  0.12502956614E+02  0.51100000000E-03 0. -1.
        -11    1    3    3    0    0  0.12509966781E+01  0.45476149063E+01  0.24593865758E+02  0.25042045188E+02  0.51100000000E-03 0.  1.
         12    1    3    3    0    0  0.72130559158E+01 -0.17278024600E+01  0.70633231423E+01  0.10242265902E+02  0.00000000000E+00 0. -1.
</event>
<event>
 7    1  0.2318319E-009  0.4778727E+02  0.7816164E-02  0.1312668E+00
        -11   -1    0    0    0    0  0.00000000000E+00  0.00000000000E+00  0.45593999997E+02  0.45594000000E+02  0.51100000000E-03 0. -1.
         11   -1    0    0    0    0 -0.00000000000E+00 -0.00000000000E+00 -0.45593999997E+02  0.45594000000E+02  0.51100000000E-03 0.  1.
    9900012    2    1    2    0    0  0.10571999426E+02  0.41017769343E+02  0.94550884021E+01  0.47787271084E+02  0.20000000180E+02 0.  0.
         12    1    1    2    0    0 -0.10571999426E+02 -0.41017769343E+02 -0.94550884021E+01  0.43400728916E+02  0.00000000000E+00 0. -1.
         11    1    3    3    0    0 -0.86502997886E+00 -0.10380450507E+01  0.43459302376E+00  0.14193962621E+01  0.51100000000E-03 0. -1.
        -11    1    3    3    0    0 -0.97478935205E+00  0.33581441944E+01 -0.22948801668E+01  0.41825616496E+01  0.51100000000E-03 0.  1.
        -12    1    3    3    0    0  0.12411818757E+02  0.38697670199E+02  0.11315375545E+02  0.42185313172E+02  0.00000000000E+00 0.  1.
</event>
<event>
 7    1  0.2318319E-009  0.4778727E+02  0.7816164E-02  0.1312668E+00
        -11   -1    0    0    0    0  0.00000000000E+00  0.00000000000E+00  0.45593999997E+02  0.45594000000E+02  0.51100000000E-03 0.  1.
         11   -1    0    0    0    0 -0.00000000000E+00 -0.00000000000E+00 -0.45593999997E+02  0.45594000000E+02  0.51100000000E-03 0. -1.
    9900012    2    1    2    0    0 -0.20091180339E+02  0.24010112219E+02  0.30057979903E+02  0.47787272218E+02  0.20000005350E+02 0.  0.
         12    1    1    2    0    0  0.20091180339E+02 -0.24010112219E+02 -0.30057979903E+02  0.43400727782E+02  0.00000000000E+00 0. -1.
         11    1    3    3    0    0  0.61347372301E+00  0.51613949401E+01  0.25062160070E+01  0.57703957118E+01  0.51100000000E-03 0. -1.
        -11    1    3    3    0    0 -0.46559097547E+01  0.30456047401E+01 -0.99783214155E+00  0.56523334226E+01  0.51100000000E-03 0.  1.
        -12    1    3    3    0    0 -0.16048744307E+02  0.15803112539E+02  0.28549596038E+02  0.36364543083E+02  0.00000000000E+00 0.  1.
</event>
<event>
 7    1  0.2318319E-009  0.4778727E+02  0.7816164E-02  0.1312668E+00
        -11   -1    0    0    0    0  0.00000000000E+00  0.00000000000E+00  0.45593999997E+02  0.45594000000E+02  0.51100000000E-03 0.  1.
         11   -1    0    0    0    0 -0.00000000000E+00 -0.00000000000E+00 -0.45593999997E+02  0.45594000000E+02  0.51100000000E-03 0. -1.
    9900012    2    1    2    0    0  0.20343647653E+01 -0.29529866470E+02  0.31740694952E+02  0.47787269940E+02  0.19999994963E+02 0.  0.
         12    1    1    2    0    0 -0.20343647653E+01  0.29529866470E+02 -0.31740694952E+02  0.43400730060E+02  0.00000000000E+00 0. -1.
         11    1    3    3    0    0 -0.73401321694E+01 -0.95619136717E+01  0.61632220595E+01  0.13538575987E+02  0.51100000000E-03 0. -1.
        -11    1    3    3    0    0  0.16620036178E+01 -0.47404926220E+01  0.26936982958E+01  0.57000471134E+01  0.51100000000E-03 0.  1.
         12    1    3    3    0    0  0.77124933170E+01 -0.15227460177E+02  0.22883774596E+02  0.28548646840E+02  0.00000000000E+00 0. -1.
</event>
<event>
 7    1  0.2318319E-009  0.4778726E+02  0.7816164E-02  0.1312668E+00
        -11   -1    0    0    0    0  0.00000000000E+00  0.00000000000E+00  0.45593999997E+02  0.45594000000E+02  0.51100000000E-03 0.  1.
         11   -1    0    0    0    0 -0.00000000000E+00 -0.00000000000E+00 -0.45593999997E+02  0.45594000000E+02  0.51100000000E-03 0. -1.
    9900012    2    1    2    0    0  0.18976202773E+02  0.21257772947E+02  0.32735831369E+02  0.47787264548E+02  0.19999970381E+02 0.  0.
         12    1    1    2    0    0 -0.18976202773E+02 -0.21257772947E+02 -0.32735831369E+02  0.43400735452E+02  0.00000000000E+00 0. -1.
         11    1    3    3    0    0  0.74243014652E+01  0.14355833881E+01  0.38173890819E+01  0.84707503549E+01  0.51100000000E-03 0. -1.
        -11    1    3    3    0    0  0.63788881121E+01  0.91095813755E+01  0.42058357053E+01  0.11889648465E+02  0.51100000000E-03 0.  1.
        -12    1    3    3    0    0  0.51730131959E+01  0.10712608183E+02  0.24712606582E+02  0.27426865728E+02  0.00000000000E+00 0.  1.
</event>
<event>
 7    1  0.2318319E-009  0.4778727E+02  0.7816164E-02  0.1312668E+00
        -11   -1    0    0    0    0  0.00000000000E+00  0.00000000000E+00  0.45593999997E+02  0.45594000000E+02  0.51100000000E-03 0.  1.
         11   -1    0    0    0    0 -0.00000000000E+00 -0.00000000000E+00 -0.45593999997E+02  0.45594000000E+02  0.51100000000E-03 0. -1.
    9900012    2    1    2    0    0  0.35555615054E+02  0.15722097901E+02  0.19293445519E+02  0.47787272307E+02  0.20000005754E+02 0.  0.
         12    1    1    2    0    0 -0.35555615054E+02 -0.15722097901E+02 -0.19293445519E+02  0.43400727693E+02  0.00000000000E+00 0. -1.
         11    1    3    3    0    0  0.32344040775E+02  0.58136699973E+01  0.14334830246E+02  0.35852797533E+02  0.51100000000E-03 0. -1.
        -11    1    3    3    0    0  0.75960342032E+00  0.44719198875E+01  0.66193968799E+00  0.45840188970E+01  0.51100000000E-03 0.  1.
        -12    1    3    3    0    0  0.24519708589E+01  0.54365080165E+01  0.42966755854E+01  0.73504558765E+01  0.00000000000E+00 0.  1.
</event>
<event>
 7    1  0.2318319E-009  0.4778727E+02  0.7816164E-02  0.1312668E+00
        -11   -1    0    0    0    0  0.00000000000E+00  0.00000000000E+00  0.45593999997E+02  0.45594000000E+02  0.51100000000E-03 0.  1.
         11   -1    0    0    0    0 -0.00000000000E+00 -0.00000000000E+00 -0.45593999997E+02  0.45594000000E+02  0.51100000000E-03 0. -1.
    9900012    2    1    2    0    0  0.24626906365E+01 -0.32303221010E+02  0.28880102896E+02  0.47787271019E+02  0.19999999885E+02 0.  0.
         12    1    1    2    0    0 -0.24626906365E+01  0.32303221010E+02 -0.28880102896E+02  0.43400728981E+02  0.00000000000E+00 0. -1.
         11    1    3    3    0    0 -0.45873616552E+00 -0.38200770924E+01 -0.13687739800E+01  0.40837446456E+01  0.51100000000E-03 0. -1.
        -11    1    3    3    0    0 -0.50410052296E+01 -0.14322722861E+02  0.12760683290E+02  0.19833990072E+02  0.51100000000E-03 0.  1.
         12    1    3    3    0    0  0.79624320317E+01 -0.14160421056E+02  0.17488193586E+02  0.23869536301E+02  0.00000000000E+00 0. -1.
</event>
<event>
 7    1  0.2318319E-009  0.4778727E+02  0.7816164E-02  0.1312668E+00
        -11   -1    0    0    0    0  0.00000000000E+00  0.00000000000E+00  0.45593999997E+02  0.45594000000E+02  0.51100000000E-03 0.  1.
         11   -1    0    0    0    0 -0.00000000000E+00 -0.00000000000E+00 -0.45593999997E+02  0.45594000000E+02  0.51100000000E-03 0. -1.
    9900012    2    1    2    0    0  0.13364981782E+02  0.27079817795E+02  0.31171847877E+02  0.47787269938E+02  0.19999994955E+02 0.  0.
         12    1    1    2    0    0 -0.13364981782E+02 -0.27079817795E+02 -0.31171847877E+02  0.43400730062E+02  0.00000000000E+00 0. -1.
         11    1    3    3    0    0  0.12450371070E+00  0.10603985744E+02  0.73824536429E+01  0.12921324889E+02  0.51100000000E-03 0. -1.
        -11    1    3    3    0    0  0.12990204651E+02  0.18965085266E+02  0.21449746245E+02  0.31440602575E+02  0.51100000000E-03 0.  1.
        -12    1    3    3    0    0  0.25027342069E+00 -0.24892532153E+01  0.23396479895E+01  0.34253424748E+01  0.00000000000E+00 0.  1.
</event>
<event>
 7    1  0.2318319E-009  0.4778728E+02  0.7816164E-02  0.1312668E+00
        -11   -1    0    0    0    0  0.00000000000E+00  0.00000000000E+00  0.45593999997E+02  0.45594000000E+02  0.51100000000E-03 0.  1.
         11   -1    0    0    0    0 -0.00000000000E+00 -0.00000000000E+00 -0.45593999997E+02  0.45594000000E+02  0.51100000000E-03 0. -1.
    9900012    2    1    2    0    0 -0.21626849677E+02 -0.36530832856E+02 -0.90222166212E+01  0.47787276863E+02  0.20000026529E+02 0.  0.
         12    1    1    2    0    0  0.21626849677E+02  0.36530832856E+02  0.90222166212E+01  0.43400723137E+02  0.00000000000E+00 0. -1.
         11    1    3    3    0    0 -0.29705804519E+01 -0.16541687284E+01  0.17998386523E+01  0.38470822500E+01  0.51100000000E-03 0. -1.
        -11    1    3    3    0    0 -0.13897287962E+02 -0.20843962810E+02  0.86687425972E+00  0.25067047484E+02  0.51100000000E-03 0.  1.
         12    1    3    3    0    0 -0.47589812632E+01 -0.14032701318E+02 -0.11688929533E+02  0.18873147129E+02  0.00000000000E+00 0. -1.
</event>
<event>
 7    1  0.2318319E-009  0.4778728E+02  0.7816164E-02  0.1312668E+00
        -11   -1    0    0    0    0  0.00000000000E+00  0.00000000000E+00  0.45593999997E+02  0.45594000000E+02  0.51100000000E-03 0. -1.
         11   -1    0    0    0    0 -0.00000000000E+00 -0.00000000000E+00 -0.45593999997E+02  0.45594000000E+02  0.51100000000E-03 0.  1.
    9900012    2    1    2    0    0 -0.50805571368E+01 -0.17825607207E+02 -0.39243573207E+02  0.47787281444E+02  0.20000047417E+02 0.  0.
         12    1    1    2    0    0  0.50805571368E+01  0.17825607207E+02  0.39243573207E+02  0.43400718556E+02  0.00000000000E+00 0. -1.
         11    1    3    3    0    0 -0.61870677625E+01 -0.29855667044E+01 -0.36696493238E+01  0.77884364583E+01  0.51100000000E-03 0. -1.
        -11    1    3    3    0    0 -0.17273302966E+01 -0.85158963030E+00 -0.13995112083E+02  0.14126996755E+02  0.51100000000E-03 0.  1.
         12    1    3    3    0    0  0.28338409222E+01 -0.13988450872E+02 -0.21578811800E+02  0.25871848231E+02  0.00000000000E+00 0. -1.
</event>
<event>
 7    1  0.2318319E-009  0.4778732E+02  0.7816164E-02  0.1312668E+00
        -11   -1    0    0    0    0  0.00000000000E+00  0.00000000000E+00  0.45593999997E+02  0.45594000000E+02  0.51100000000E-03 0.  1.
         11   -1    0    0    0    0 -0.00000000000E+00 -0.00000000000E+00 -0.45593999997E+02  0.45594000000E+02  0.51100000000E-03 0. -1.
    9900012    2    1    2    0    0 -0.13782825034E+01  0.42849908449E+02 -0.67531351456E+01  0.47787318541E+02  0.20000216556E+02 0.  0.
         12    1    1    2    0    0  0.13782825034E+01 -0.42849908449E+02  0.67531351456E+01  0.43400681459E+02  0.00000000000E+00 0. -1.
         11    1    3    3    0    0 -0.36744095395E+01  0.13145183008E+02  0.98911507435E+00  0.13684862829E+02  0.51100000000E-03 0. -1.
        -11    1    3    3    0    0  0.51681092218E+01  0.57227137631E+01  0.21450045615E+01  0.80037397867E+01  0.51100000000E-03 0.  1.
         12    1    3    3    0    0 -0.28719821857E+01  0.23982011679E+02 -0.98872547814E+01  0.26098715925E+02  0.00000000000E+00 0. -1.
</event>
<event>
 7    1  0.2318319E-009  0.4778727E+02  0.7816164E-02  0.1312668E+00
        -11   -1    0    0    0    0  0.00000000000E+00  0.00000000000E+00  0.45593999997E+02  0.45594000000E+02  0.51100000000E-03 0.  1.
         11   -1    0    0    0    0 -0.00000000000E+00 -0.00000000000E+00 -0.45593999997E+02  0.45594000000E+02  0.51100000000E-03 0. -1.
    9900012    2    1    2    0    0  0.31397717853E+02  0.41505317057E+01  0.29674563970E+02  0.47787270206E+02  0.19999996178E+02 0.  0.
         12    1    1    2    0    0 -0.31397717853E+02 -0.41505317057E+01 -0.29674563970E+02  0.43400729794E+02  0.00000000000E+00 0. -1.
         11    1    3    3    0    0  0.73575145391E+01 -0.13730747858E+01  0.72313884345E+01  0.10407273106E+02  0.51100000000E-03 0. -1.
        -11    1    3    3    0    0  0.24571527703E+02  0.37464186630E+01  0.13577090543E+02  0.28321952870E+02  0.51100000000E-03 0.  1.
         12    1    3    3    0    0 -0.53132438928E+00  0.17771878285E+01  0.88660849924E+01  0.90580442303E+01  0.00000000000E+00 0. -1.
</event>
<event>
 7    1  0.2318319E-009  0.4778727E+02  0.7816164E-02  0.1312668E+00
        -11   -1    0    0    0    0  0.00000000000E+00  0.00000000000E+00  0.45593999997E+02  0.45594000000E+02  0.51100000000E-03 0.  1.
         11   -1    0    0    0    0 -0.00000000000E+00 -0.00000000000E+00 -0.45593999997E+02  0.45594000000E+02  0.51100000000E-03 0. -1.
    9900012    2    1    2    0    0  0.10897124135E+00 -0.62539104041E+01  0.42947644832E+02  0.47787268823E+02  0.19999989872E+02 0.  0.
         12    1    1    2    0    0 -0.10897124135E+00  0.62539104041E+01 -0.42947644832E+02  0.43400731177E+02  0.00000000000E+00 0. -1.
         11    1    3    3    0    0  0.39904736990E+01 -0.34954747645E+01  0.54886821513E+01  0.76333384696E+01  0.51100000000E-03 0. -1.
        -11    1    3    3    0    0 -0.40146473809E+01  0.91684069976E+00  0.21341047182E+01  0.46381454991E+01  0.51100000000E-03 0.  1.
        -12    1    3    3    0    0  0.13314492317E+00 -0.36752763393E+01  0.35324857963E+02  0.35515784854E+02  0.00000000000E+00 0.  1.
</event>
<event>
 7    1  0.2318319E-009  0.4778729E+02  0.7816164E-02  0.1312668E+00
        -11   -1    0    0    0    0  0.00000000000E+00  0.00000000000E+00  0.45593999997E+02  0.45594000000E+02  0.51100000000E-03 0.  1.
         11   -1    0    0    0    0 -0.00000000000E+00 -0.00000000000E+00 -0.45593999997E+02  0.45594000000E+02  0.51100000000E-03 0. -1.
    9900012    2    1    2    0    0 -0.20310177831E+01 -0.41877487079E+02  0.11214852178E+02  0.47787287256E+02  0.20000073916E+02 0.  0.
         12    1    1    2    0    0  0.20310177831E+01  0.41877487079E+02 -0.11214852178E+02  0.43400712744E+02  0.00000000000E+00 0. -1.
         11    1    3    3    0    0  0.58873668494E+01 -0.82691443878E+01  0.12007520924E+01  0.10221626249E+02  0.51100000000E-03 0. -1.
        -11    1    3    3    0    0  0.20915632845E+00 -0.22099053928E+02  0.66677165480E+01  0.23083985252E+02  0.51100000000E-03 0.  1.
         12    1    3    3    0    0 -0.81275409610E+01 -0.11509288764E+02  0.33463835374E+01  0.14481675756E+02  0.00000000000E+00 0. -1.
</event>
<event>
 7    1  0.2318319E-009  0.4778727E+02  0.7816164E-02  0.1312668E+00
        -11   -1    0    0    0    0  0.00000000000E+00  0.00000000000E+00  0.45593999997E+02  0.45594000000E+02  0.51100000000E-03 0.  1.
         11   -1    0    0    0    0 -0.00000000000E+00 -0.00000000000E+00 -0.45593999997E+02  0.45594000000E+02  0.51100000000E-03 0. -1.
    9900012    2    1    2    0    0  0.87831991757E+01  0.10009321635E+02  0.41307288522E+02  0.47787271983E+02  0.20000004279E+02 0.  0.
         12    1    1    2    0    0 -0.87831991757E+01 -0.10009321635E+02 -0.41307288522E+02  0.43400728017E+02  0.00000000000E+00 0. -1.
         11    1    3    3    0    0  0.77325054951E+01  0.56920346650E+01  0.17890304629E+02  0.20304036540E+02  0.51100000000E-03 0. -1.
        -11    1    3    3    0    0  0.29506214339E+01  0.87930203690E+01  0.12812673329E+02  0.15817331386E+02  0.51100000000E-03 0.  1.
        -12    1    3    3    0    0 -0.18999277533E+01 -0.44757333994E+01  0.10604310564E+02  0.11665904057E+02  0.00000000000E+00 0.  1.
</event>
<event>
 7    1  0.2318319E-009  0.4778727E+02  0.7816164E-02  0.1312668E+00
        -11   -1    0    0    0    0  0.00000000000E+00  0.00000000000E+00  0.45593999997E+02  0.45594000000E+02  0.51100000000E-03 0.  1.
         11   -1    0    0    0    0 -0.00000000000E+00 -0.00000000000E+00 -0.45593999997E+02  0.45594000000E+02  0.51100000000E-03 0. -1.
    9900012    2    1    2    0    0  0.15432491728E+02 -0.10481570294E+02  0.39186711532E+02  0.47787268699E+02  0.19999989307E+02 0.  0.
         12    1    1    2    0    0 -0.15432491728E+02  0.10481570294E+02 -0.39186711532E+02  0.43400731301E+02  0.00000000000E+00 0. -1.
         11    1    3    3    0    0 -0.25161124700E+01 -0.40889084596E+01  0.65143023145E+01  0.80923500455E+01  0.51100000000E-03 0. -1.
        -11    1    3    3    0    0  0.62842528662E+01 -0.84698336688E+01  0.17672888170E+02  0.20580595059E+02  0.51100000000E-03 0.  1.
        -12    1    3    3    0    0  0.11664351332E+02  0.20771718339E+01  0.14999521047E+02  0.19114323594E+02  0.00000000000E+00 0.  1.
</event>
<event>
 7    1  0.2318319E-009  0.4778727E+02  0.7816164E-02  0.1312668E+00
        -11   -1    0    0    0    0  0.00000000000E+00  0.00000000000E+00  0.45593999997E+02  0.45594000000E+02  0.51100000000E-03 0.  1.
         11   -1    0    0    0    0 -0.00000000000E+00 -0.00000000000E+00 -0.45593999997E+02  0.45594000000E+02  0.51100000000E-03 0. -1.
    9900012    2    1    2    0    0 -0.93577074897E+01  0.20909912452E+02  0.36862342385E+02  0.47787269426E+02  0.19999992622E+02 0.  0.
         12    1    1    2    0    0  0.93577074897E+01 -0.20909912452E+02 -0.36862342385E+02  0.43400730574E+02  0.00000000000E+00 0. -1.
         11    1    3    3    0    0  0.31560364418E+01  0.61867331897E+01  0.76100849711E+01  0.10302894113E+02  0.51100000000E-03 0. -1.
        -11    1    3    3    0    0 -0.49408945441E+01  0.33112332027E+01  0.92425460437E+00  0.60192151526E+01  0.51100000000E-03 0.  1.
        -12    1    3    3    0    0 -0.75728493874E+01  0.11411946060E+02  0.28328002810E+02  0.31465160160E+02  0.00000000000E+00 0.  1.
</event>
<event>
 7    1  0.2318319E-009  0.4778727E+02  0.7816164E-02  0.1312668E+00
        -11   -1    0    0    0    0  0.00000000000E+00  0.00000000000E+00  0.45593999997E+02  0.45594000000E+02  0.51100000000E-03 0.  1.
         11   -1    0    0    0    0 -0.00000000000E+00 -0.00000000000E+00 -0.45593999997E+02  0.45594000000E+02  0.51100000000E-03 0. -1.
    9900012    2    1    2    0    0  0.29109874599E+02 -0.29822715662E+02  0.12117927719E+02  0.47787270273E+02  0.19999996481E+02 0.  0.
         12    1    1    2    0    0 -0.29109874599E+02  0.29822715662E+02 -0.12117927719E+02  0.43400729727E+02  0.00000000000E+00 0. -1.
         11    1    3    3    0    0  0.10061815086E+01 -0.17119567738E+01  0.20775074628E+01  0.28738884360E+01  0.51100000000E-03 0. -1.
        -11    1    3    3    0    0  0.25871602987E+02 -0.15048205728E+02  0.34948078157E+01  0.30133071842E+02  0.51100000000E-03 0.  1.
         12    1    3    3    0    0  0.22320901041E+01 -0.13062553160E+02  0.65456124408E+01  0.14780309994E+02  0.00000000000E+00 0. -1.
</event>
<event>
 7    1  0.2318319E-009  0.4778727E+02  0.7816164E-02  0.1312668E+00
        -11   -1    0    0    0    0  0.00000000000E+00  0.00000000000E+00  0.45593999997E+02  0.45594000000E+02  0.51100000000E-03 0.  1.
         11   -1    0    0    0    0 -0.00000000000E+00 -0.00000000000E+00 -0.45593999997E+02  0.45594000000E+02  0.51100000000E-03 0. -1.
    9900012    2    1    2    0    0 -0.27918771530E+02  0.13056356025E+02  0.30556463862E+02  0.47787265903E+02  0.19999976558E+02 0.  0.
         12    1    1    2    0    0  0.27918771530E+02 -0.13056356025E+02 -0.30556463862E+02  0.43400734097E+02  0.00000000000E+00 0. -1.
         11    1    3    3    0    0 -0.47384611708E+01  0.89117079775E+01  0.77701700550E+01  0.12737625222E+02  0.51100000000E-03 0. -1.
        -11    1    3    3    0    0 -0.25675312283E+01 -0.37582295101E+01  0.36520427202E+01  0.58355738321E+01  0.51100000000E-03 0.  1.
        -12    1    3    3    0    0 -0.20612779131E+02  0.79028775580E+01  0.19134251087E+02  0.29214066849E+02  0.00000000000E+00 0.  1.
</event>
<event>
 7    1  0.2318319E-009  0.4778727E+02  0.7816164E-02  0.1312668E+00
        -11   -1    0    0    0    0  0.00000000000E+00  0.00000000000E+00  0.45593999997E+02  0.45594000000E+02  0.51100000000E-03 0.  1.
         11   -1    0    0    0    0 -0.00000000000E+00 -0.00000000000E+00 -0.45593999997E+02  0.45594000000E+02  0.51100000000E-03 0. -1.
    9900012    2    1    2    0    0 -0.31844693596E+02 -0.64994086372E+01  0.28762764415E+02  0.47787269134E+02  0.19999991292E+02 0.  0.
         12    1    1    2    0    0  0.31844693596E+02  0.64994086372E+01 -0.28762764415E+02  0.43400730866E+02  0.00000000000E+00 0. -1.
         11    1    3    3    0    0 -0.15727093966E+01 -0.35972760223E+01  0.20588785205E+01  0.44331468113E+01  0.51100000000E-03 0. -1.
        -11    1    3    3    0    0 -0.12355295956E+02 -0.41887967450E+01  0.26155711092E+01  0.13305659278E+02  0.51100000000E-03 0.  1.
         12    1    3    3    0    0 -0.17916688244E+02  0.12866641301E+01  0.24088314785E+02  0.30048463045E+02  0.00000000000E+00 0. -1.
</event>
<event>
 7    1  0.2318319E-009  0.4778727E+02  0.7816164E-02  0.1312668E+00
        -11   -1    0    0    0    0  0.00000000000E+00  0.00000000000E+00  0.45593999997E+02  0.45594000000E+02  0.51100000000E-03 0.  1.
         11   -1    0    0    0    0 -0.00000000000E+00 -0.00000000000E+00 -0.45593999997E+02  0.45594000000E+02  0.51100000000E-03 0. -1.
    9900012    2    1    2    0    0 -0.37789789692E+02  0.13179710077E+02  0.16788389513E+02  0.47787274371E+02  0.20000015166E+02 0.  0.
         12    1    1    2    0    0  0.37789789692E+02 -0.13179710077E+02 -0.16788389513E+02  0.43400725629E+02  0.00000000000E+00 0. -1.
         11    1    3    3    0    0 -0.11681632810E+01  0.14116017197E+01 -0.14153872611E+01  0.23152853444E+01  0.51100000000E-03 0. -1.
        -11    1    3    3    0    0 -0.20810388120E+02 -0.17249105364E+01  0.89301314457E+01  0.22711116617E+02  0.51100000000E-03 0.  1.
         12    1    3    3    0    0 -0.15811238291E+02  0.13493018894E+02  0.92736453287E+01  0.22760872409E+02  0.00000000000E+00 0. -1.
</event>
<event>
 7    1  0.2318319E-009  0.4778727E+02  0.7816164E-02  0.1312668E+00
        -11   -1    0    0    0    0  0.00000000000E+00  0.00000000000E+00  0.45593999997E+02  0.45594000000E+02  0.51100000000E-03 0.  1.
         11   -1    0    0    0    0 -0.00000000000E+00 -0.00000000000E+00 -0.45593999997E+02  0.45594000000E+02  0.51100000000E-03 0. -1.
    9900012    2    1    2    0    0 -0.22773553533E+02 -0.36846009637E+01  0.36761561959E+02  0.47787268872E+02  0.19999990097E+02 0.  0.
         12    1    1    2    0    0  0.22773553533E+02  0.36846009637E+01 -0.36761561959E+02  0.43400731128E+02  0.00000000000E+00 0. -1.
         11    1    3    3    0    0 -0.27430279527E-01 -0.38542578070E+00 -0.95064016125E+00  0.10261688116E+01  0.51100000000E-03 0. -1.
        -11    1    3    3    0    0  0.50091988868E+00  0.27369403869E+01  0.84951583256E+01  0.89392101807E+01  0.51100000000E-03 0.  1.
        -12    1    3    3    0    0 -0.23247043142E+02 -0.60361155699E+01  0.29217043794E+02  0.37821889880E+02  0.00000000000E+00 0.  1.
</event>
<event>
 7    1  0.2318319E-009  0.4778727E+02  0.7816164E-02  0.1312668E+00
        -11   -1    0    0    0    0  0.00000000000E+00  0.00000000000E+00  0.45593999997E+02  0.45594000000E+02  0.51100000000E-03 0.  1.
         11   -1    0    0    0    0 -0.00000000000E+00 -0.00000000000E+00 -0.45593999997E+02  0.45594000000E+02  0.51100000000E-03 0. -1.
    9900012    2    1    2    0    0 -0.24154105209E+01  0.21252258660E+02  0.37764146636E+02  0.47787268701E+02  0.19999989317E+02 0.  0.
         12    1    1    2    0    0  0.24154105209E+01 -0.21252258660E+02 -0.37764146636E+02  0.43400731299E+02  0.00000000000E+00 0. -1.
         11    1    3    3    0    0 -0.27320126469E+01  0.49508130642E+01  0.94176737316E+01  0.10984854204E+02  0.51100000000E-03 0. -1.
        -11    1    3    3    0    0  0.11373964066E+01  0.19703009072E+02  0.25759401187E+02  0.32450716277E+02  0.51100000000E-03 0.  1.
         12    1    3    3    0    0 -0.82079428067E+00 -0.34015634767E+01  0.25870717168E+01  0.43516982208E+01  0.00000000000E+00 0. -1.
</event>
<event>
 7    1  0.2318319E-009  0.4778727E+02  0.7816164E-02  0.1312668E+00
        -11   -1    0    0    0    0  0.00000000000E+00  0.00000000000E+00  0.45593999997E+02  0.45594000000E+02  0.51100000000E-03 0.  1.
         11   -1    0    0    0    0 -0.00000000000E+00 -0.00000000000E+00 -0.45593999997E+02  0.45594000000E+02  0.51100000000E-03 0. -1.
    9900012    2    1    2    0    0  0.45135428283E+01 -0.19349088779E+02  0.38585796308E+02  0.47787274405E+02  0.20000015322E+02 0.  0.
         12    1    1    2    0    0 -0.45135428283E+01  0.19349088779E+02 -0.38585796308E+02  0.43400725595E+02  0.00000000000E+00 0. -1.
         11    1    3    3    0    0  0.63397741712E+00  0.12950807399E+01  0.60595348342E+00  0.15640784422E+01  0.51100000000E-03 0. -1.
        -11    1    3    3    0    0  0.70543645704E+01 -0.17571276046E+02  0.19335375274E+02  0.27062345401E+02  0.51100000000E-03 0.  1.
         12    1    3    3    0    0 -0.31747991592E+01 -0.30728934737E+01  0.18644467550E+02  0.19160850561E+02  0.00000000000E+00 0. -1.
</event>
<event>
 7    1  0.2318319E-009  0.4778727E+02  0.7816164E-02  0.1312668E+00
        -11   -1    0    0    0    0  0.00000000000E+00  0.00000000000E+00  0.45593999997E+02  0.45594000000E+02  0.51100000000E-03 0. -1.
         11   -1    0    0    0    0 -0.00000000000E+00 -0.00000000000E+00 -0.45593999997E+02  0.45594000000E+02  0.51100000000E-03 0.  1.
    9900012    2    1    2    0    0  0.61355582374E+01  0.37428042608E+02 -0.21097864574E+02  0.47787270306E+02  0.19999996633E+02 0.  0.
         12    1    1    2    0    0 -0.61355582374E+01 -0.37428042608E+02  0.21097864574E+02  0.43400729694E+02  0.00000000000E+00 0. -1.
         11    1    3    3    0    0  0.11428898171E+02  0.19537567737E+02 -0.14343449020E+02  0.26796843033E+02  0.51100000000E-03 0. -1.
        -11    1    3    3    0    0  0.77815030831E+00  0.93311848440E+01 -0.36109503920E+01  0.10035710811E+02  0.51100000000E-03 0.  1.
         12    1    3    3    0    0 -0.60714902418E+01  0.85592900277E+01 -0.31434651623E+01  0.10954716462E+02  0.00000000000E+00 0. -1.
</event>
<event>
 7    1  0.2318319E-009  0.4778727E+02  0.7816164E-02  0.1312668E+00
        -11   -1    0    0    0    0  0.00000000000E+00  0.00000000000E+00  0.45593999997E+02  0.45594000000E+02  0.51100000000E-03 0.  1.
         11   -1    0    0    0    0 -0.00000000000E+00 -0.00000000000E+00 -0.45593999997E+02  0.45594000000E+02  0.51100000000E-03 0. -1.
    9900012    2    1    2    0    0 -0.35989858067E+02 -0.22035270683E+02 -0.10139041280E+02  0.47787271943E+02  0.20000004099E+02 0.  0.
         12    1    1    2    0    0  0.35989858067E+02  0.22035270683E+02  0.10139041280E+02  0.43400728057E+02  0.00000000000E+00 0. -1.
         11    1    3    3    0    0  0.27283351456E+00 -0.19310407066E+00 -0.11529344021E+01  0.12004104738E+01  0.51100000000E-03 0. -1.
        -11    1    3    3    0    0 -0.31972589728E+02 -0.18085396798E+02 -0.13683213213E+02  0.39198959110E+02  0.51100000000E-03 0.  1.
         12    1    3    3    0    0 -0.42901018540E+01 -0.37567698141E+01  0.46971063347E+01  0.73879023595E+01  0.00000000000E+00 0. -1.
</event>
<event>
 7    1  0.2318319E-009  0.4778727E+02  0.7816164E-02  0.1312668E+00
        -11   -1    0    0    0    0  0.00000000000E+00  0.00000000000E+00  0.45593999997E+02  0.45594000000E+02  0.51100000000E-03 0.  1.
         11   -1    0    0    0    0 -0.00000000000E+00 -0.00000000000E+00 -0.45593999997E+02  0.45594000000E+02  0.51100000000E-03 0. -1.
    9900012    2    1    2    0    0  0.40787116321E+02  0.14180297133E+02 -0.43535414649E+01  0.47787274109E+02  0.20000013974E+02 0.  0.
         12    1    1    2    0    0 -0.40787116321E+02 -0.14180297133E+02  0.43535414649E+01  0.43400725891E+02  0.00000000000E+00 0. -1.
         11    1    3    3    0    0  0.98576272075E+00  0.25470660350E+01  0.24237480926E+01  0.36515515341E+01  0.51100000000E-03 0. -1.
        -11    1    3    3    0    0  0.69523543350E+01  0.67563765432E+01  0.17456399440E+01  0.98504372424E+01  0.51100000000E-03 0.  1.
        -12    1    3    3    0    0  0.32848999265E+02  0.48768545549E+01 -0.85229295016E+01  0.34285285333E+02  0.00000000000E+00 0.  1.
</event>
<event>
 7    1  0.2318319E-009  0.4778727E+02  0.7816164E-02  0.1312668E+00
        -11   -1    0    0    0    0  0.00000000000E+00  0.00000000000E+00  0.45593999997E+02  0.45594000000E+02  0.51100000000E-03 0.  1.
         11   -1    0    0    0    0 -0.00000000000E+00 -0.00000000000E+00 -0.45593999997E+02  0.45594000000E+02  0.51100000000E-03 0. -1.
    9900012    2    1    2    0    0 -0.16112703877E+02  0.10272569300E+02  0.38967658666E+02  0.47787270419E+02  0.19999997150E+02 0.  0.
         12    1    1    2    0    0  0.16112703877E+02 -0.10272569300E+02 -0.38967658666E+02  0.43400729581E+02  0.00000000000E+00 0. -1.
         11    1    3    3    0    0 -0.36875109784E+01 -0.26223793541E+01  0.54855845900E+01  0.71109949548E+01  0.51100000000E-03 0. -1.
        -11    1    3    3    0    0 -0.15181790306E+02  0.88038298176E+01  0.21737196348E+02  0.27937427972E+02  0.51100000000E-03 0.  1.
         12    1    3    3    0    0  0.27565974078E+01  0.40911188363E+01  0.11744877727E+02  0.12738847492E+02  0.00000000000E+00 0. -1.
</event>
<event>
 7    1  0.2318319E-009  0.4778728E+02  0.7816164E-02  0.1312668E+00
        -11   -1    0    0    0    0  0.00000000000E+00  0.00000000000E+00  0.45593999997E+02  0.45594000000E+02  0.51100000000E-03 0. -1.
         11   -1    0    0    0    0 -0.00000000000E+00 -0.00000000000E+00 -0.45593999997E+02  0.45594000000E+02  0.51100000000E-03 0.  1.
    9900012    2    1    2    0    0  0.73283134024E+01 -0.29778240880E+02 -0.30711151094E+02  0.47787278708E+02  0.20000034939E+02 0.  0.
         12    1    1    2    0    0 -0.73283134024E+01  0.29778240880E+02  0.30711151094E+02  0.43400721292E+02  0.00000000000E+00 0. -1.
         11    1    3    3    0    0  0.76660311243E+01 -0.18214284247E+02 -0.11515603342E+02  0.22872195007E+02  0.51100000000E-03 0. -1.
        -11    1    3    3    0    0 -0.28238093946E+01 -0.12776429039E+02 -0.16429709497E+02  0.21003485256E+02  0.51100000000E-03 0.  1.
        -12    1    3    3    0    0  0.24860916727E+01  0.12124724064E+01 -0.27658382543E+01  0.39115984444E+01  0.00000000000E+00 0.  1.
</event>
<event>
 7    1  0.2318319E-009  0.4778727E+02  0.7816164E-02  0.1312668E+00
        -11   -1    0    0    0    0  0.00000000000E+00  0.00000000000E+00  0.45593999997E+02  0.45594000000E+02  0.51100000000E-03 0.  1.
         11   -1    0    0    0    0 -0.00000000000E+00 -0.00000000000E+00 -0.45593999997E+02  0.45594000000E+02  0.51100000000E-03 0. -1.
    9900012    2    1    2    0    0 -0.23904133652E+02  0.35874177445E+02  0.50258377613E+01  0.47787271225E+02  0.20000000825E+02 0.  0.
         12    1    1    2    0    0  0.23904133652E+02 -0.35874177445E+02 -0.50258377613E+01  0.43400728775E+02  0.00000000000E+00 0. -1.
         11    1    3    3    0    0 -0.19161640563E+02  0.31342868514E+02  0.11670578775E+01  0.36754671813E+02  0.51100000000E-03 0. -1.
        -11    1    3    3    0    0  0.64731256232E-01  0.47712930993E+01 -0.14185356883E+00  0.47738402435E+01  0.51100000000E-03 0.  1.
        -12    1    3    3    0    0 -0.48072243452E+01 -0.23998416890E+00  0.40006334525E+01  0.62587591684E+01  0.00000000000E+00 0.  1.
</event>
<event>
 7    1  0.2318319E-009  0.4778727E+02  0.7816164E-02  0.1312668E+00
        -11   -1    0    0    0    0  0.00000000000E+00  0.00000000000E+00  0.45593999997E+02  0.45594000000E+02  0.51100000000E-03 0. -1.
         11   -1    0    0    0    0 -0.00000000000E+00 -0.00000000000E+00 -0.45593999997E+02  0.45594000000E+02  0.51100000000E-03 0.  1.
    9900012    2    1    2    0    0  0.44068628545E+01  0.35158026195E+02  0.25062245604E+02  0.47787269582E+02  0.19999993330E+02 0.  0.
         12    1    1    2    0    0 -0.44068628545E+01 -0.35158026195E+02 -0.25062245604E+02  0.43400730418E+02  0.00000000000E+00 0. -1.
         11    1    3    3    0    0  0.36407487919E+01  0.20842365296E+02  0.11173449906E+02  0.23927081434E+02  0.51100000000E-03 0. -1.
        -11    1    3    3    0    0  0.11188505885E+01  0.58775649581E+01 -0.16221090561E+01  0.61990994932E+01  0.51100000000E-03 0.  1.
         12    1    3    3    0    0 -0.35273652587E+00  0.84380959408E+01  0.15510904754E+02  0.17661088654E+02  0.00000000000E+00 0. -1.
</event>
<event>
 7    1  0.2318319E-009  0.4778727E+02  0.7816164E-02  0.1312668E+00
        -11   -1    0    0    0    0  0.00000000000E+00  0.00000000000E+00  0.45593999997E+02  0.45594000000E+02  0.51100000000E-03 0.  1.
         11   -1    0    0    0    0 -0.00000000000E+00 -0.00000000000E+00 -0.45593999997E+02  0.45594000000E+02  0.51100000000E-03 0. -1.
    9900012    2    1    2    0    0 -0.19694012191E+02 -0.27273060831E+02  0.27421697662E+02  0.47787268832E+02  0.19999989912E+02 0.  0.
         12    1    1    2    0    0  0.19694012191E+02  0.27273060831E+02 -0.27421697662E+02  0.43400731168E+02  0.00000000000E+00 0. -1.
         11    1    3    3    0    0 -0.15317842817E+02 -0.13231121612E+02  0.15862626587E+02  0.25716177986E+02  0.51100000000E-03 0. -1.
        -11    1    3    3    0    0 -0.56706383255E+01 -0.15566534056E+02  0.91018857408E+01  0.18902842268E+02  0.51100000000E-03 0.  1.
         12    1    3    3    0    0  0.12944689512E+01  0.15245948374E+01  0.24571853343E+01  0.31682485778E+01  0.00000000000E+00 0. -1.
</event>
<event>
 7    1  0.2318319E-009  0.4778727E+02  0.7816164E-02  0.1312668E+00
        -11   -1    0    0    0    0  0.00000000000E+00  0.00000000000E+00  0.45593999997E+02  0.45594000000E+02  0.51100000000E-03 0.  1.
         11   -1    0    0    0    0 -0.00000000000E+00 -0.00000000000E+00 -0.45593999997E+02  0.45594000000E+02  0.51100000000E-03 0. -1.
    9900012    2    1    2    0    0 -0.61840117420E+01  0.85438682410E+01  0.42099688233E+02  0.47787269187E+02  0.19999991532E+02 0.  0.
         12    1    1    2    0    0  0.61840117420E+01 -0.85438682410E+01 -0.42099688233E+02  0.43400730813E+02  0.00000000000E+00 0. -1.
         11    1    3    3    0    0  0.16476005399E+01  0.48217931491E+00  0.44973143317E+01  0.48138260137E+01  0.51100000000E-03 0. -1.
        -11    1    3    3    0    0 -0.64440110715E+01  0.13611352103E+02  0.26327035924E+02  0.30329968769E+02  0.51100000000E-03 0.  1.
        -12    1    3    3    0    0 -0.13876012104E+01 -0.55496631765E+01  0.11275337978E+02  0.12643474404E+02  0.00000000000E+00 0.  1.
</event>
<event>
 7    1  0.2318319E-009  0.4778729E+02  0.7816164E-02  0.1312668E+00
        -11   -1    0    0    0    0  0.00000000000E+00  0.00000000000E+00  0.45593999997E+02  0.45594000000E+02  0.51100000000E-03 0.  1.
         11   -1    0    0    0    0 -0.00000000000E+00 -0.00000000000E+00 -0.45593999997E+02  0.45594000000E+02  0.51100000000E-03 0. -1.
    9900012    2    1    2    0    0  0.57956122289E+01 -0.13551659954E+02  0.40821381062E+02  0.47787288480E+02  0.20000079494E+02 0.  0.
         12    1    1    2    0    0 -0.57956122289E+01  0.13551659954E+02 -0.40821381062E+02  0.43400711520E+02  0.00000000000E+00 0. -1.
         11    1    3    3    0    0 -0.24915123569E+01 -0.33332324205E+01  0.94050928206E+01  0.10284641142E+02  0.51100000000E-03 0. -1.
        -11    1    3    3    0    0  0.56474683602E+01 -0.12707499679E+02  0.30838512524E+02  0.33828808757E+02  0.51100000000E-03 0.  1.
        -12    1    3    3    0    0  0.26396562256E+01  0.24890721456E+01  0.57777571771E+00  0.36738385805E+01  0.00000000000E+00 0.  1.
</event>
<event>
 7    1  0.2318319E-009  0.4778727E+02  0.7816164E-02  0.1312668E+00
        -11   -1    0    0    0    0  0.00000000000E+00  0.00000000000E+00  0.45593999997E+02  0.45594000000E+02  0.51100000000E-03 0.  1.
         11   -1    0    0    0    0 -0.00000000000E+00 -0.00000000000E+00 -0.45593999997E+02  0.45594000000E+02  0.51100000000E-03 0. -1.
    9900012    2    1    2    0    0 -0.36331173641E+02 -0.74099917130E+01  0.22555734750E+02  0.47787270450E+02  0.19999997290E+02 0.  0.
         12    1    1    2    0    0  0.36331173641E+02  0.74099917130E+01 -0.22555734750E+02  0.43400729550E+02  0.00000000000E+00 0. -1.
         11    1    3    3    0    0  0.13941304214E+01 -0.43016927603E-01  0.14107277675E+01  0.19838354727E+01  0.51100000000E-03 0. -1.
        -11    1    3    3    0    0 -0.10032338370E+02  0.15462159349E+01  0.11062204975E+02  0.15013692952E+02  0.51100000000E-03 0.  1.
        -12    1    3    3    0    0 -0.27692965692E+02 -0.89131907203E+01  0.10082802008E+02  0.30789742025E+02  0.00000000000E+00 0.  1.
</event>
<event>
 7    1  0.2318319E-009  0.4778727E+02  0.7816164E-02  0.1312668E+00
        -11   -1    0    0    0    0  0.00000000000E+00  0.00000000000E+00  0.45593999997E+02  0.45594000000E+02  0.51100000000E-03 0.  1.
         11   -1    0    0    0    0 -0.00000000000E+00 -0.00000000000E+00 -0.45593999997E+02  0.45594000000E+02  0.51100000000E-03 0. -1.
    9900012    2    1    2    0    0 -0.33332309253E+02  0.65631953057E+01  0.27009343250E+02  0.47787274251E+02  0.20000014621E+02 0.  0.
         12    1    1    2    0    0  0.33332309253E+02 -0.65631953057E+01 -0.27009343250E+02  0.43400725749E+02  0.00000000000E+00 0. -1.
         11    1    3    3    0    0 -0.46682016274E+01  0.33356551805E+01  0.12157702586E+02  0.13443527600E+02  0.51100000000E-03 0. -1.
        -11    1    3    3    0    0 -0.16970989794E+02  0.47173420827E+01  0.14045205261E+02  0.22528550819E+02  0.51100000000E-03 0.  1.
         12    1    3    3    0    0 -0.11693117831E+02 -0.14898019575E+01  0.80643540307E+00  0.11815195832E+02  0.00000000000E+00 0. -1.
</event>
<event>
 7    1  0.2318319E-009  0.4778727E+02  0.7816164E-02  0.1312668E+00
        -11   -1    0    0    0    0  0.00000000000E+00  0.00000000000E+00  0.45593999997E+02  0.45594000000E+02  0.51100000000E-03 0.  1.
         11   -1    0    0    0    0 -0.00000000000E+00 -0.00000000000E+00 -0.45593999997E+02  0.45594000000E+02  0.51100000000E-03 0. -1.
    9900012    2    1    2    0    0  0.12179650472E+02  0.37450631896E+02  0.18240876958E+02  0.47787270660E+02  0.19999998249E+02 0.  0.
         12    1    1    2    0    0 -0.12179650472E+02 -0.37450631896E+02 -0.18240876958E+02  0.43400729340E+02  0.00000000000E+00 0. -1.
         11    1    3    3    0    0  0.27406790280E+01  0.23970601662E+01 -0.83371294446E+00  0.37352773002E+01  0.51100000000E-03 0. -1.
        -11    1    3    3    0    0 -0.19073080254E+01  0.81142655666E+01  0.10856882154E+02  0.13687622875E+02  0.51100000000E-03 0.  1.
        -12    1    3    3    0    0  0.11346279469E+02  0.26939306163E+02  0.82177077483E+01  0.30364370485E+02  0.00000000000E+00 0.  1.
</event>
<event>
 7    1  0.2318319E-009  0.4778727E+02  0.7816164E-02  0.1312668E+00
        -11   -1    0    0    0    0  0.00000000000E+00  0.00000000000E+00  0.45593999997E+02  0.45594000000E+02  0.51100000000E-03 0. -1.
         11   -1    0    0    0    0 -0.00000000000E+00 -0.00000000000E+00 -0.45593999997E+02  0.45594000000E+02  0.51100000000E-03 0.  1.
    9900012    2    1    2    0    0  0.38033441853E+02 -0.20749867466E+02 -0.25541022079E+01  0.47787272619E+02  0.20000007181E+02 0.  0.
         12    1    1    2    0    0 -0.38033441853E+02  0.20749867466E+02  0.25541022079E+01  0.43400727381E+02  0.00000000000E+00 0. -1.
         11    1    3    3    0    0  0.11966222967E+02 -0.12392010976E+02  0.68860012431E+01  0.18551804265E+02  0.51100000000E-03 0. -1.
        -11    1    3    3    0    0  0.10872531565E+01  0.31334424794E+00 -0.90820310055E+00  0.14509090864E+01  0.51100000000E-03 0.  1.
         12    1    3    3    0    0  0.24979965730E+02 -0.86712007386E+01 -0.85319003505E+01  0.27784559268E+02  0.00000000000E+00 0. -1.
</event>
<event>
 7    1  0.2318319E-009  0.4778727E+02  0.7816164E-02  0.1312668E+00
        -11   -1    0    0    0    0  0.00000000000E+00  0.00000000000E+00  0.45593999997E+02  0.45594000000E+02  0.51100000000E-03 0.  1.
         11   -1    0    0    0    0 -0.00000000000E+00 -0.00000000000E+00 -0.45593999997E+02  0.45594000000E+02  0.51100000000E-03 0. -1.
    9900012    2    1    2    0    0 -0.14404503506E+02  0.15124434595E+02  0.38044518576E+02  0.47787266864E+02  0.19999980938E+02 0.  0.
         12    1    1    2    0    0  0.14404503506E+02 -0.15124434595E+02 -0.38044518576E+02  0.43400733136E+02  0.00000000000E+00 0. -1.
         11    1    3    3    0    0 -0.63531955379E+01  0.11878941840E+02  0.28509476023E+02  0.31531929471E+02  0.51100000000E-03 0. -1.
        -11    1    3    3    0    0 -0.28577746890E+01  0.75397920298E+00  0.10046694545E+02  0.10472412920E+02  0.51100000000E-03 0.  1.
         12    1    3    3    0    0 -0.51935332792E+01  0.24915135526E+01 -0.51165199211E+00  0.57829244735E+01  0.00000000000E+00 0. -1.
</event>
<event>
 7    1  0.2318319E-009  0.4778727E+02  0.7816164E-02  0.1312668E+00
        -11   -1    0    0    0    0  0.00000000000E+00  0.00000000000E+00  0.45593999997E+02  0.45594000000E+02  0.51100000000E-03 0. -1.
         11   -1    0    0    0    0 -0.00000000000E+00 -0.00000000000E+00 -0.45593999997E+02  0.45594000000E+02  0.51100000000E-03 0.  1.
    9900012    2    1    2    0    0  0.35499319101E+02 -0.24063907697E+02  0.66595723678E+01  0.47787271729E+02  0.20000003123E+02 0.  0.
         12    1    1    2    0    0 -0.35499319101E+02  0.24063907697E+02 -0.66595723678E+01  0.43400728271E+02  0.00000000000E+00 0. -1.
         11    1    3    3    0    0  0.58031021426E+00  0.60005611698E+00  0.16831593694E+01  0.18787903055E+01  0.51100000000E-03 0. -1.
        -11    1    3    3    0    0  0.56706207073E+01  0.20445610840E+01  0.79424250429E+00  0.60800485729E+01  0.51100000000E-03 0.  1.
        -12    1    3    3    0    0  0.29248388180E+02 -0.26708524898E+02  0.41821704942E+01  0.39828432851E+02  0.00000000000E+00 0.  1.
</event>
<event>
 7    1  0.2318319E-009  0.4778727E+02  0.7816164E-02  0.1312668E+00
        -11   -1    0    0    0    0  0.00000000000E+00  0.00000000000E+00  0.45593999997E+02  0.45594000000E+02  0.51100000000E-03 0.  1.
         11   -1    0    0    0    0 -0.00000000000E+00 -0.00000000000E+00 -0.45593999997E+02  0.45594000000E+02  0.51100000000E-03 0. -1.
    9900012    2    1    2    0    0  0.29756486630E+02 -0.31362137322E+02  0.38198039531E+01  0.47787273552E+02  0.20000011432E+02 0.  0.
         12    1    1    2    0    0 -0.29756486630E+02  0.31362137322E+02 -0.38198039531E+01  0.43400726448E+02  0.00000000000E+00 0. -1.
         11    1    3    3    0    0 -0.21021973122E+00 -0.29891443125E+00  0.23691154243E+01  0.23971337734E+01  0.51100000000E-03 0. -1.
        -11    1    3    3    0    0  0.14287978880E+02 -0.11246933496E+02  0.70605764511E+01  0.19506193725E+02  0.51100000000E-03 0.  1.
        -12    1    3    3    0    0  0.15678727481E+02 -0.19816289395E+02 -0.56098879224E+01  0.25883946053E+02  0.00000000000E+00 0.  1.
</event>
<event>
 7    1  0.2318319E-009  0.4778727E+02  0.7816164E-02  0.1312668E+00
        -11   -1    0    0    0    0  0.00000000000E+00  0.00000000000E+00  0.45593999997E+02  0.45594000000E+02  0.51100000000E-03 0.  1.
         11   -1    0    0    0    0 -0.00000000000E+00 -0.00000000000E+00 -0.45593999997E+02  0.45594000000E+02  0.51100000000E-03 0. -1.
    9900012    2    1    2    0    0 -0.40867479906E+02  0.11332649471E+02  0.92218993906E+01  0.47787270902E+02  0.19999999350E+02 0.  0.
         12    1    1    2    0    0  0.40867479906E+02 -0.11332649471E+02 -0.92218993906E+01  0.43400729098E+02  0.00000000000E+00 0. -1.
         11    1    3    3    0    0 -0.39200006305E+01 -0.46029631690E+00  0.95834297040E+00  0.40616128757E+01  0.51100000000E-03 0. -1.
        -11    1    3    3    0    0 -0.30060701415E+02  0.93849394502E+00  0.61634739326E+01  0.30700406375E+02  0.51100000000E-03 0.  1.
         12    1    3    3    0    0 -0.68867778608E+01  0.10854451843E+02  0.21000824876E+01  0.13025251651E+02  0.00000000000E+00 0. -1.
</event>
<event>
 7    1  0.2318319E-009  0.4778727E+02  0.7816164E-02  0.1312668E+00
        -11   -1    0    0    0    0  0.00000000000E+00  0.00000000000E+00  0.45593999997E+02  0.45594000000E+02  0.51100000000E-03 0. -1.
         11   -1    0    0    0    0 -0.00000000000E+00 -0.00000000000E+00 -0.45593999997E+02  0.45594000000E+02  0.51100000000E-03 0.  1.
    9900012    2    1    2    0    0 -0.19791342451E+02 -0.37392707510E+02  0.96804829780E+01  0.47787267730E+02  0.19999984886E+02 0.  0.
         12    1    1    2    0    0  0.19791342451E+02  0.37392707510E+02 -0.96804829780E+01  0.43400732270E+02  0.00000000000E+00 0. -1.
         11    1    3    3    0    0 -0.98141370516E+01 -0.40718917043E+01  0.34922232516E+01  0.11184507661E+02  0.51100000000E-03 0. -1.
        -11    1    3    3    0    0 -0.10442147045E+02 -0.18481656104E+02  0.34595615313E+01  0.21507640817E+02  0.51100000000E-03 0.  1.
         12    1    3    3    0    0  0.46494164585E+00 -0.14839159702E+02  0.27286981951E+01  0.15095119252E+02  0.00000000000E+00 0. -1.
</event>
<event>
 7    1  0.2318319E-009  0.4778724E+02  0.7816164E-02  0.1312668E+00
        -11   -1    0    0    0    0  0.00000000000E+00  0.00000000000E+00  0.45593999997E+02  0.45594000000E+02  0.51100000000E-03 0.  1.
         11   -1    0    0    0    0 -0.00000000000E+00 -0.00000000000E+00 -0.45593999997E+02  0.45594000000E+02  0.51100000000E-03 0. -1.
    9900012    2    1    2    0    0 -0.94760960222E+01 -0.43693312123E+01  0.42127645797E+02  0.47787239736E+02  0.19999857253E+02 0.  0.
         12    1    1    2    0    0  0.94760960222E+01  0.43693312123E+01 -0.42127645797E+02  0.43400760264E+02  0.00000000000E+00 0. -1.
         11    1    3    3    0    0 -0.14872064057E+01 -0.36734910003E+01  0.23655707312E+02  0.23985387379E+02  0.51100000000E-03 0. -1.
        -11    1    3    3    0    0 -0.81266193970E+01 -0.33600037570E+01  0.19129781270E+02  0.21054218099E+02  0.51100000000E-03 0.  1.
         12    1    3    3    0    0  0.13772978047E+00  0.26641635450E+01 -0.65784278491E+00  0.27476342582E+01  0.00000000000E+00 0. -1.
</event>
<event>
 7    1  0.2318319E-009  0.4778727E+02  0.7816164E-02  0.1312668E+00
        -11   -1    0    0    0    0  0.00000000000E+00  0.00000000000E+00  0.45593999997E+02  0.45594000000E+02  0.51100000000E-03 0.  1.
         11   -1    0    0    0    0 -0.00000000000E+00 -0.00000000000E+00 -0.45593999997E+02  0.45594000000E+02  0.51100000000E-03 0. -1.
    9900012    2    1    2    0    0  0.38908800960E+02  0.18351361036E+02  0.57407316066E+01  0.47787271395E+02  0.20000001599E+02 0.  0.
         12    1    1    2    0    0 -0.38908800960E+02 -0.18351361036E+02 -0.57407316066E+01  0.43400728605E+02  0.00000000000E+00 0. -1.
         11    1    3    3    0    0  0.17188125172E+01  0.21118696063E+01 -0.15046606427E+01  0.31109988129E+01  0.51100000000E-03 0. -1.
        -11    1    3    3    0    0  0.19414051392E+02  0.11064010915E+02  0.12269950846E+02  0.25492536614E+02  0.51100000000E-03 0.  1.
        -12    1    3    3    0    0  0.17775937051E+02  0.51754805145E+01 -0.50245585969E+01  0.19183735968E+02  0.00000000000E+00 0.  1.
</event>
<event>
 7    1  0.2318319E-009  0.4778729E+02  0.7816164E-02  0.1312668E+00
        -11   -1    0    0    0    0  0.00000000000E+00  0.00000000000E+00  0.45593999997E+02  0.45594000000E+02  0.51100000000E-03 0. -1.
         11   -1    0    0    0    0 -0.00000000000E+00 -0.00000000000E+00 -0.45593999997E+02  0.45594000000E+02  0.51100000000E-03 0.  1.
    9900012    2    1    2    0    0 -0.14893623060E+02 -0.17859429755E+02 -0.36644814794E+02  0.47787289288E+02  0.20000083180E+02 0.  0.
         12    1    1    2    0    0  0.14893623060E+02  0.17859429755E+02  0.36644814794E+02  0.43400710712E+02  0.00000000000E+00 0. -1.
         11    1    3    3    0    0 -0.50230294108E+01  0.92005508799E+00 -0.35056513484E+01  0.61941034432E+01  0.51100000000E-03 0. -1.
        -11    1    3    3    0    0 -0.11060231012E+02 -0.68749624855E+01 -0.15006185809E+02  0.19869057149E+02  0.51100000000E-03 0.  1.
         12    1    3    3    0    0  0.11896373624E+01 -0.11904522358E+02 -0.18132977637E+02  0.21724128696E+02  0.00000000000E+00 0. -1.
</event>
<event>
 7    1  0.2318319E-009  0.4778727E+02  0.7816164E-02  0.1312668E+00
        -11   -1    0    0    0    0  0.00000000000E+00  0.00000000000E+00  0.45593999997E+02  0.45594000000E+02  0.51100000000E-03 0.  1.
         11   -1    0    0    0    0 -0.00000000000E+00 -0.00000000000E+00 -0.45593999997E+02  0.45594000000E+02  0.51100000000E-03 0. -1.
    9900012    2    1    2    0    0  0.26107937592E+02 -0.26330356490E+02  0.22554621686E+02  0.47787273767E+02  0.20000012413E+02 0.  0.
         12    1    1    2    0    0 -0.26107937592E+02  0.26330356490E+02 -0.22554621686E+02  0.43400726233E+02  0.00000000000E+00 0. -1.
         11    1    3    3    0    0  0.50733994470E+01 -0.21550808915E+01  0.47719959890E+01  0.72907956752E+01  0.51100000000E-03 0. -1.
        -11    1    3    3    0    0  0.75138466392E+01 -0.87473714726E+01 -0.23334856503E+01  0.11765183999E+02  0.51100000000E-03 0.  1.
        -12    1    3    3    0    0  0.13520691506E+02 -0.15427904126E+02  0.20116111347E+02  0.28731294092E+02  0.00000000000E+00 0.  1.
</event>
<event>
 7    1  0.2318319E-009  0.4778725E+02  0.7816164E-02  0.1312668E+00
        -11   -1    0    0    0    0  0.00000000000E+00  0.00000000000E+00  0.45593999997E+02  0.45594000000E+02  0.51100000000E-03 0.  1.
         11   -1    0    0    0    0 -0.00000000000E+00 -0.00000000000E+00 -0.45593999997E+02  0.45594000000E+02  0.51100000000E-03 0. -1.
    9900012    2    1    2    0    0  0.13091972575E+02 -0.81592079654E+01  0.40566641493E+02  0.47787253202E+02  0.19999918651E+02 0.  0.
         12    1    1    2    0    0 -0.13091972575E+02  0.81592079654E+01 -0.40566641493E+02  0.43400746798E+02  0.00000000000E+00 0. -1.
         11    1    3    3    0    0  0.66243726184E+00 -0.66930464489E+01  0.98888971148E+01  0.11959346985E+02  0.51100000000E-03 0. -1.
        -11    1    3    3    0    0  0.15128578660E+01 -0.62588872715E+01  0.12972048450E+02  0.14482280554E+02  0.51100000000E-03 0.  1.
        -12    1    3    3    0    0  0.10916677447E+02  0.47927257550E+01  0.17705695929E+02  0.21345625663E+02  0.00000000000E+00 0.  1.
</event>
<event>
 7    1  0.2318319E-009  0.4778727E+02  0.7816164E-02  0.1312668E+00
        -11   -1    0    0    0    0  0.00000000000E+00  0.00000000000E+00  0.45593999997E+02  0.45594000000E+02  0.51100000000E-03 0.  1.
         11   -1    0    0    0    0 -0.00000000000E+00 -0.00000000000E+00 -0.45593999997E+02  0.45594000000E+02  0.51100000000E-03 0. -1.
    9900012    2    1    2    0    0 -0.55820876716E+01 -0.36419396251E+02  0.22936682176E+02  0.47787268263E+02  0.19999987317E+02 0.  0.
         12    1    1    2    0    0  0.55820876716E+01  0.36419396251E+02 -0.22936682176E+02  0.43400731737E+02  0.00000000000E+00 0. -1.
         11    1    3    3    0    0 -0.51343063736E+01 -0.12572753295E+02  0.46616420576E+01  0.14358486490E+02  0.51100000000E-03 0. -1.
        -11    1    3    3    0    0 -0.79998421728E+00 -0.24716665425E+02  0.19771896311E+02  0.31661986806E+02  0.51100000000E-03 0.  1.
         12    1    3    3    0    0  0.35220291931E+00  0.87002246877E+00 -0.14968561927E+01  0.17667949667E+01  0.00000000000E+00 0. -1.
</event>
<event>
 7    1  0.2318319E-009  0.4778727E+02  0.7816164E-02  0.1312668E+00
        -11   -1    0    0    0    0  0.00000000000E+00  0.00000000000E+00  0.45593999997E+02  0.45594000000E+02  0.51100000000E-03 0. -1.
         11   -1    0    0    0    0 -0.00000000000E+00 -0.00000000000E+00 -0.45593999997E+02  0.45594000000E+02  0.51100000000E-03 0.  1.
    9900012    2    1    2    0    0 -0.98630077119E+01 -0.35624909227E+02 -0.22742248879E+02  0.47787274630E+02  0.20000016346E+02 0.  0.
         12    1    1    2    0    0  0.98630077119E+01  0.35624909227E+02  0.22742248879E+02  0.43400725370E+02  0.00000000000E+00 0. -1.
         11    1    3    3    0    0 -0.70835592256E+01 -0.22039959000E+02 -0.96807724399E+01  0.25092906554E+02  0.51100000000E-03 0.  1.
        -11    1    3    3    0    0 -0.50240274390E+01 -0.97069553802E+01 -0.24865267776E+01  0.11209310868E+02  0.51100000000E-03 0. -1.
        -12    1    3    3    0    0  0.22445789526E+01 -0.38779948469E+01 -0.10574949662E+02  0.11485057208E+02  0.00000000000E+00 0.  1.
</event>
<event>
 7    1  0.2318319E-009  0.4778727E+02  0.7816164E-02  0.1312668E+00
        -11   -1    0    0    0    0  0.00000000000E+00  0.00000000000E+00  0.45593999997E+02  0.45594000000E+02  0.51100000000E-03 0.  1.
         11   -1    0    0    0    0 -0.00000000000E+00 -0.00000000000E+00 -0.45593999997E+02  0.45594000000E+02  0.51100000000E-03 0. -1.
    9900012    2    1    2    0    0 -0.11948387035E+02  0.24891332178E+02  0.33485533001E+02  0.47787270851E+02  0.19999999117E+02 0.  0.
         12    1    1    2    0    0  0.11948387035E+02 -0.24891332178E+02 -0.33485533001E+02  0.43400729149E+02  0.00000000000E+00 0. -1.
         11    1    3    3    0    0 -0.80876288572E+01  0.15976243910E+02  0.18486871058E+02  0.25737414629E+02  0.51100000000E-03 0. -1.
        -11    1    3    3    0    0 -0.56109506947E+01  0.11263154275E+02  0.93148208341E+01  0.15655903019E+02  0.51100000000E-03 0.  1.
         12    1    3    3    0    0  0.17501925164E+01 -0.23480660062E+01  0.56838411088E+01  0.63939532031E+01  0.00000000000E+00 0. -1.
</event>
<event>
 7    1  0.2318319E-009  0.4778728E+02  0.7816164E-02  0.1312668E+00
        -11   -1    0    0    0    0  0.00000000000E+00  0.00000000000E+00  0.45593999997E+02  0.45594000000E+02  0.51100000000E-03 0.  1.
         11   -1    0    0    0    0 -0.00000000000E+00 -0.00000000000E+00 -0.45593999997E+02  0.45594000000E+02  0.51100000000E-03 0. -1.
    9900012    2    1    2    0    0  0.12195942612E+02 -0.40276955221E+02 -0.10613609916E+02  0.47787275888E+02  0.20000022082E+02 0.  0.
         12    1    1    2    0    0 -0.12195942612E+02  0.40276955221E+02  0.10613609916E+02  0.43400724112E+02  0.00000000000E+00 0. -1.
         11    1    3    3    0    0  0.15095522327E+01 -0.15222520010E+00  0.26702208884E-01  0.15174431534E+01  0.51100000000E-03 0. -1.
        -11    1    3    3    0    0  0.11426335310E+02 -0.11179441811E+02 -0.23957015683E+01  0.16164171617E+02  0.51100000000E-03 0.  1.
         12    1    3    3    0    0 -0.73994493084E+00 -0.28945288210E+02 -0.82446105561E+01  0.30105661117E+02  0.00000000000E+00 0. -1.
</event>
<event>
 7    1  0.2318319E-009  0.4778727E+02  0.7816164E-02  0.1312668E+00
        -11   -1    0    0    0    0  0.00000000000E+00  0.00000000000E+00  0.45593999997E+02  0.45594000000E+02  0.51100000000E-03 0. -1.
         11   -1    0    0    0    0 -0.00000000000E+00 -0.00000000000E+00 -0.45593999997E+02  0.45594000000E+02  0.51100000000E-03 0.  1.
    9900012    2    1    2    0    0 -0.33535774630E+02 -0.25230909932E+02 -0.11062374040E+02  0.47787272870E+02  0.20000008323E+02 0.  0.
         12    1    1    2    0    0  0.33535774630E+02  0.25230909932E+02  0.11062374040E+02  0.43400727130E+02  0.00000000000E+00 0. -1.
         11    1    3    3    0    0 -0.51425873970E+01 -0.46030577744E+01 -0.33908038957E+01  0.76897267396E+01  0.51100000000E-03 0. -1.
        -11    1    3    3    0    0 -0.16765552389E+02 -0.16691216553E+02 -0.12677382674E+02  0.26840202843E+02  0.51100000000E-03 0.  1.
         12    1    3    3    0    0 -0.11627634845E+02 -0.39366356040E+01  0.50058125297E+01  0.13257343288E+02  0.00000000000E+00 0. -1.
</event>
<event>
 7    1  0.2318319E-009  0.4778727E+02  0.7816164E-02  0.1312668E+00
        -11   -1    0    0    0    0  0.00000000000E+00  0.00000000000E+00  0.45593999997E+02  0.45594000000E+02  0.51100000000E-03 0.  1.
         11   -1    0    0    0    0 -0.00000000000E+00 -0.00000000000E+00 -0.45593999997E+02  0.45594000000E+02  0.51100000000E-03 0. -1.
    9900012    2    1    2    0    0  0.13647960557E+02  0.23252632425E+02  0.34009878968E+02  0.47787267178E+02  0.19999982371E+02 0.  0.
         12    1    1    2    0    0 -0.13647960557E+02 -0.23252632425E+02 -0.34009878968E+02  0.43400732822E+02  0.00000000000E+00 0. -1.
         11    1    3    3    0    0  0.93767517571E+01  0.63059598684E+01  0.17966826992E+02  0.21224878699E+02  0.51100000000E-03 0. -1.
        -11    1    3    3    0    0  0.66980303292E+01  0.56865526970E+01  0.10755261500E+02  0.13887985530E+02  0.51100000000E-03 0.  1.
        -12    1    3    3    0    0 -0.24268215295E+01  0.11260119860E+02  0.52877904753E+01  0.12674402949E+02  0.00000000000E+00 0.  1.
</event>
<event>
 7    1  0.2318319E-009  0.4778727E+02  0.7816164E-02  0.1312668E+00
        -11   -1    0    0    0    0  0.00000000000E+00  0.00000000000E+00  0.45593999997E+02  0.45594000000E+02  0.51100000000E-03 0.  1.
         11   -1    0    0    0    0 -0.00000000000E+00 -0.00000000000E+00 -0.45593999997E+02  0.45594000000E+02  0.51100000000E-03 0. -1.
    9900012    2    1    2    0    0  0.15108400940E+02  0.19738932912E+02  0.35577154490E+02  0.47787272206E+02  0.20000005296E+02 0.  0.
         12    1    1    2    0    0 -0.15108400940E+02 -0.19738932912E+02 -0.35577154490E+02  0.43400727794E+02  0.00000000000E+00 0. -1.
         11    1    3    3    0    0 -0.24151598728E+01  0.52285475787E+01  0.78073251899E+01  0.97018057019E+01  0.51100000000E-03 0. -1.
        -11    1    3    3    0    0  0.71838472307E+00 -0.19048626663E+01  0.48718517099E+01  0.52801058448E+01  0.51100000000E-03 0.  1.
        -12    1    3    3    0    0  0.16805176090E+02  0.16415247999E+02  0.22897977590E+02  0.32805360659E+02  0.00000000000E+00 0.  1.
</event>
<event>
 7    1  0.2318319E-009  0.4778727E+02  0.7816164E-02  0.1312668E+00
        -11   -1    0    0    0    0  0.00000000000E+00  0.00000000000E+00  0.45593999997E+02  0.45594000000E+02  0.51100000000E-03 0. -1.
         11   -1    0    0    0    0 -0.00000000000E+00 -0.00000000000E+00 -0.45593999997E+02  0.45594000000E+02  0.51100000000E-03 0.  1.
    9900012    2    1    2    0    0 -0.11420999639E+02 -0.25144745328E+02 -0.33480230380E+02  0.47787271012E+02  0.19999999854E+02 0.  0.
         12    1    1    2    0    0  0.11420999639E+02  0.25144745328E+02  0.33480230380E+02  0.43400728988E+02  0.00000000000E+00 0. -1.
         11    1    3    3    0    0  0.29394889757E+01 -0.11205197665E+02 -0.11568933733E+02  0.16371844066E+02  0.51100000000E-03 0. -1.
        -11    1    3    3    0    0  0.14767288733E+01 -0.99132342079E-01 -0.14394219698E+01  0.20645801643E+01  0.51100000000E-03 0.  1.
        -12    1    3    3    0    0 -0.15837217488E+02 -0.13840415321E+02 -0.20471874677E+02  0.29350846782E+02  0.00000000000E+00 0.  1.
</event>
<event>
 7    1  0.2318319E-009  0.4778727E+02  0.7816164E-02  0.1312668E+00
        -11   -1    0    0    0    0  0.00000000000E+00  0.00000000000E+00  0.45593999997E+02  0.45594000000E+02  0.51100000000E-03 0. -1.
         11   -1    0    0    0    0 -0.00000000000E+00 -0.00000000000E+00 -0.45593999997E+02  0.45594000000E+02  0.51100000000E-03 0.  1.
    9900012    2    1    2    0    0 -0.84253487077E+01  0.41262416999E+02 -0.10490449130E+02  0.47787273273E+02  0.20000010162E+02 0.  0.
         12    1    1    2    0    0  0.84253487077E+01 -0.41262416999E+02  0.10490449130E+02  0.43400726727E+02  0.00000000000E+00 0. -1.
         11    1    3    3    0    0 -0.69875832610E+01  0.24215966520E+01 -0.86932925349E+00  0.74462194291E+01  0.51100000000E-03 0. -1.
        -11    1    3    3    0    0 -0.13665484822E+00  0.27012691394E+01 -0.20505428574E+01  0.33941502298E+01  0.51100000000E-03 0.  1.
        -12    1    3    3    0    0 -0.13011105985E+01  0.36139551208E+02 -0.75705770191E+01  0.36946903614E+02  0.00000000000E+00 0.  1.
</event>
<event>
 7    1  0.2318319E-009  0.4778727E+02  0.7816164E-02  0.1312668E+00
        -11   -1    0    0    0    0  0.00000000000E+00  0.00000000000E+00  0.45593999997E+02  0.45594000000E+02  0.51100000000E-03 0. -1.
         11   -1    0    0    0    0 -0.00000000000E+00 -0.00000000000E+00 -0.45593999997E+02  0.45594000000E+02  0.51100000000E-03 0.  1.
    9900012    2    1    2    0    0 -0.21243349252E+02 -0.35102621598E+01 -0.37683176542E+02  0.47787267032E+02  0.19999981707E+02 0.  0.
         12    1    1    2    0    0  0.21243349252E+02  0.35102621598E+01  0.37683176542E+02  0.43400732968E+02  0.00000000000E+00 0. -1.
         11    1    3    3    0    0 -0.55873453491E+01  0.16893542376E+01 -0.44261037882E+01  0.73254857038E+01  0.51100000000E-03 0. -1.
        -11    1    3    3    0    0 -0.13577153127E+02 -0.11737718339E+01 -0.10354348170E+02  0.17115179042E+02  0.51100000000E-03 0.  1.
         12    1    3    3    0    0 -0.20788507760E+01 -0.40258445635E+01 -0.22902724584E+02  0.23346602287E+02  0.00000000000E+00 0. -1.
</event>
<event>
 7    1  0.2318319E-009  0.4778727E+02  0.7816164E-02  0.1312668E+00
        -11   -1    0    0    0    0  0.00000000000E+00  0.00000000000E+00  0.45593999997E+02  0.45594000000E+02  0.51100000000E-03 0.  1.
         11   -1    0    0    0    0 -0.00000000000E+00 -0.00000000000E+00 -0.45593999997E+02  0.45594000000E+02  0.51100000000E-03 0. -1.
    9900012    2    1    2    0    0 -0.17328798461E+02  0.39375729464E+02 -0.57347955927E+01  0.47787271810E+02  0.20000003490E+02 0.  0.
         12    1    1    2    0    0  0.17328798461E+02 -0.39375729464E+02  0.57347955927E+01  0.43400728190E+02  0.00000000000E+00 0. -1.
         11    1    3    3    0    0 -0.39443590963E+01  0.70867714832E+01  0.24049888602E+01  0.84595667983E+01  0.51100000000E-03 0. -1.
        -11    1    3    3    0    0  0.12519158592E+01  0.75395887685E+01  0.33744601889E+01  0.83546199162E+01  0.51100000000E-03 0.  1.
        -12    1    3    3    0    0 -0.14636355224E+02  0.24749369213E+02 -0.11514244642E+02  0.30973085095E+02  0.00000000000E+00 0.  1.
</event>
<event>
 7    1  0.2318319E-009  0.4778727E+02  0.7816164E-02  0.1312668E+00
        -11   -1    0    0    0    0  0.00000000000E+00  0.00000000000E+00  0.45593999997E+02  0.45594000000E+02  0.51100000000E-03 0.  1.
         11   -1    0    0    0    0 -0.00000000000E+00 -0.00000000000E+00 -0.45593999997E+02  0.45594000000E+02  0.51100000000E-03 0. -1.
    9900012    2    1    2    0    0 -0.35599778972E+02 -0.12706273057E+02  0.21326739510E+02  0.47787268947E+02  0.19999990436E+02 0.  0.
         12    1    1    2    0    0  0.35599778972E+02  0.12706273057E+02 -0.21326739510E+02  0.43400731053E+02  0.00000000000E+00 0. -1.
         11    1    3    3    0    0  0.31602313617E+00 -0.20797757586E+01 -0.63096757325E+00  0.21962372750E+01  0.51100000000E-03 0. -1.
        -11    1    3    3    0    0  0.10963891281E+01 -0.89264548907E+00  0.19420722196E+01  0.24021927185E+01  0.51100000000E-03 0.  1.
        -12    1    3    3    0    0 -0.37012191236E+02 -0.97338518091E+01  0.20015634864E+02  0.43188838953E+02  0.00000000000E+00 0.  1.
</event>
<event>
 7    1  0.2318319E-009  0.4778727E+02  0.7816164E-02  0.1312668E+00
        -11   -1    0    0    0    0  0.00000000000E+00  0.00000000000E+00  0.45593999997E+02  0.45594000000E+02  0.51100000000E-03 0.  1.
         11   -1    0    0    0    0 -0.00000000000E+00 -0.00000000000E+00 -0.45593999997E+02  0.45594000000E+02  0.51100000000E-03 0. -1.
    9900012    2    1    2    0    0  0.20157115422E+02  0.11274630555E+02  0.36745023357E+02  0.47787270308E+02  0.19999996642E+02 0.  0.
         12    1    1    2    0    0 -0.20157115422E+02 -0.11274630555E+02 -0.36745023357E+02  0.43400729692E+02  0.00000000000E+00 0. -1.
         11    1    3    3    0    0  0.97657176430E+01  0.61082332098E+01  0.38210770448E+01  0.12135912989E+02  0.51100000000E-03 0. -1.
        -11    1    3    3    0    0  0.79495301434E+01  0.19721012680E+01  0.13299449584E+02  0.15619205243E+02  0.51100000000E-03 0.  1.
        -12    1    3    3    0    0  0.24418676361E+01  0.31942960769E+01  0.19624496728E+02  0.20032152076E+02  0.00000000000E+00 0.  1.
</event>
<event>
 7    1  0.2318319E-009  0.4778727E+02  0.7816164E-02  0.1312668E+00
        -11   -1    0    0    0    0  0.00000000000E+00  0.00000000000E+00  0.45593999997E+02  0.45594000000E+02  0.51100000000E-03 0.  1.
         11   -1    0    0    0    0 -0.00000000000E+00 -0.00000000000E+00 -0.45593999997E+02  0.45594000000E+02  0.51100000000E-03 0. -1.
    9900012    2    1    2    0    0 -0.27037971814E+02  0.30388349056E+01  0.33813264105E+02  0.47787271126E+02  0.20000000370E+02 0.  0.
         12    1    1    2    0    0  0.27037971814E+02 -0.30388349056E+01 -0.33813264105E+02  0.43400728874E+02  0.00000000000E+00 0. -1.
         11    1    3    3    0    0 -0.74428223021E+01  0.58616114278E+01  0.18326462343E+02  0.20630397830E+02  0.51100000000E-03 0. -1.
        -11    1    3    3    0    0 -0.30609319086E+01  0.32983523006E+01  0.18399433724E+01  0.48614631463E+01  0.51100000000E-03 0.  1.
        -12    1    3    3    0    0 -0.16534217604E+02 -0.61211288228E+01  0.13646858389E+02  0.22295410150E+02  0.00000000000E+00 0.  1.
</event>
<event>
 7    1  0.2318319E-009  0.4778727E+02  0.7816164E-02  0.1312668E+00
        -11   -1    0    0    0    0  0.00000000000E+00  0.00000000000E+00  0.45593999997E+02  0.45594000000E+02  0.51100000000E-03 0.  1.
         11   -1    0    0    0    0 -0.00000000000E+00 -0.00000000000E+00 -0.45593999997E+02  0.45594000000E+02  0.51100000000E-03 0. -1.
    9900012    2    1    2    0    0 -0.13342833898E+02  0.29192731155E+02  0.29212611396E+02  0.47787269208E+02  0.19999991629E+02 0.  0.
         12    1    1    2    0    0  0.13342833898E+02 -0.29192731155E+02 -0.29212611396E+02  0.43400730792E+02  0.00000000000E+00 0. -1.
         11    1    3    3    0    0 -0.57340401046E+01  0.65951308253E+00  0.37928061838E+01  0.69064862583E+01  0.51100000000E-03 0.  1.
        -11    1    3    3    0    0 -0.93768641785E+01  0.16288905702E+02  0.10607688049E+02  0.21581869168E+02  0.51100000000E-03 0. -1.
         12    1    3    3    0    0  0.17680703854E+01  0.12244312371E+02  0.14812117163E+02  0.19298913782E+02  0.00000000000E+00 0. -1.
</event>
<event>
 7    1  0.2318319E-009  0.4778727E+02  0.7816164E-02  0.1312668E+00
        -11   -1    0    0    0    0  0.00000000000E+00  0.00000000000E+00  0.45593999997E+02  0.45594000000E+02  0.51100000000E-03 0. -1.
         11   -1    0    0    0    0 -0.00000000000E+00 -0.00000000000E+00 -0.45593999997E+02  0.45594000000E+02  0.51100000000E-03 0.  1.
    9900012    2    1    2    0    0  0.40165273084E+02  0.15797906350E+02  0.45607426525E+01  0.47787269816E+02  0.19999994401E+02 0.  0.
         12    1    1    2    0    0 -0.40165273084E+02 -0.15797906350E+02 -0.45607426525E+01  0.43400730184E+02  0.00000000000E+00 0. -1.
         11    1    3    3    0    0  0.30483277429E+02  0.86764925119E+01 -0.39806460987E+01  0.31943031615E+02  0.51100000000E-03 0.  1.
        -11    1    3    3    0    0 -0.66672504721E-01 -0.77487793958E+00  0.72359187141E+00  0.10622930394E+01  0.51100000000E-03 0. -1.
        -12    1    3    3    0    0  0.97486681595E+01  0.78962917777E+01  0.78177968798E+01  0.14781945162E+02  0.00000000000E+00 0.  1.
</event>
<event>
 7    1  0.2318319E-009  0.4778731E+02  0.7816164E-02  0.1312668E+00
        -11   -1    0    0    0    0  0.00000000000E+00  0.00000000000E+00  0.45593999997E+02  0.45594000000E+02  0.51100000000E-03 0.  1.
         11   -1    0    0    0    0 -0.00000000000E+00 -0.00000000000E+00 -0.45593999997E+02  0.45594000000E+02  0.51100000000E-03 0. -1.
    9900012    2    1    2    0    0 -0.38611986255E+02 -0.15245481025E+02  0.12661350740E+02  0.47787309028E+02  0.20000173183E+02 0.  0.
         12    1    1    2    0    0  0.38611986255E+02  0.15245481025E+02 -0.12661350740E+02  0.43400690972E+02  0.00000000000E+00 0. -1.
         11    1    3    3    0    0 -0.20447444464E+02 -0.95640640371E+01  0.10094361956E+02  0.24727827433E+02  0.51100000000E-03 0. -1.
        -11    1    3    3    0    0 -0.17011459188E+02 -0.30833265879E+01  0.62707236085E+01  0.18390721067E+02  0.51100000000E-03 0.  1.
         12    1    3    3    0    0 -0.11530826038E+01 -0.25980903997E+01 -0.37037348246E+01  0.46687605279E+01  0.00000000000E+00 0. -1.
</event>
<event>
 7    1  0.2318319E-009  0.4778727E+02  0.7816164E-02  0.1312668E+00
        -11   -1    0    0    0    0  0.00000000000E+00  0.00000000000E+00  0.45593999997E+02  0.45594000000E+02  0.51100000000E-03 0. -1.
         11   -1    0    0    0    0 -0.00000000000E+00 -0.00000000000E+00 -0.45593999997E+02  0.45594000000E+02  0.51100000000E-03 0.  1.
    9900012    2    1    2    0    0  0.97285643069E+01 -0.40511033634E+02 -0.12158721422E+02  0.47787270557E+02  0.19999997779E+02 0.  0.
         12    1    1    2    0    0 -0.97285643069E+01  0.40511033634E+02  0.12158721422E+02  0.43400729443E+02  0.00000000000E+00 0. -1.
         11    1    3    3    0    0  0.81078828344E+01 -0.66001091531E+01 -0.35830063533E+01  0.11051567295E+02  0.51100000000E-03 0. -1.
        -11    1    3    3    0    0  0.23124040032E+01 -0.60840665091E+00 -0.27146611031E+00  0.24064631801E+01  0.51100000000E-03 0.  1.
        -12    1    3    3    0    0 -0.69172253072E+00 -0.33302517830E+02 -0.83042489583E+01  0.34329240082E+02  0.00000000000E+00 0.  1.
</event>
<event>
 7    1  0.2318319E-009  0.4778727E+02  0.7816164E-02  0.1312668E+00
        -11   -1    0    0    0    0  0.00000000000E+00  0.00000000000E+00  0.45593999997E+02  0.45594000000E+02  0.51100000000E-03 0.  1.
         11   -1    0    0    0    0 -0.00000000000E+00 -0.00000000000E+00 -0.45593999997E+02  0.45594000000E+02  0.51100000000E-03 0. -1.
    9900012    2    1    2    0    0  0.42185185191E+02 -0.58541755446E+01  0.83523865392E+01  0.47787267497E+02  0.19999983824E+02 0.  0.
         12    1    1    2    0    0 -0.42185185191E+02  0.58541755446E+01 -0.83523865392E+01  0.43400732503E+02  0.00000000000E+00 0. -1.
         11    1    3    3    0    0 -0.21404440780E+00 -0.21419917243E+00  0.60491021879E+00  0.67647093648E+00  0.51100000000E-03 0. -1.
        -11    1    3    3    0    0  0.13669690141E+02 -0.84334960130E+01  0.86275312865E+01  0.18232349819E+02  0.51100000000E-03 0.  1.
         12    1    3    3    0    0  0.28729539458E+02  0.27935196408E+01 -0.88005496611E+00  0.28878446741E+02  0.00000000000E+00 0. -1.
</event>
<event>
 7    1  0.2318319E-009  0.4778728E+02  0.7816164E-02  0.1312668E+00
        -11   -1    0    0    0    0  0.00000000000E+00  0.00000000000E+00  0.45593999997E+02  0.45594000000E+02  0.51100000000E-03 0. -1.
         11   -1    0    0    0    0 -0.00000000000E+00 -0.00000000000E+00 -0.45593999997E+02  0.45594000000E+02  0.51100000000E-03 0.  1.
    9900012    2    1    2    0    0 -0.41020809912E+02 -0.17363884806E+01 -0.14067728739E+02  0.47787275552E+02  0.20000020550E+02 0.  0.
         12    1    1    2    0    0  0.41020809912E+02  0.17363884806E+01  0.14067728739E+02  0.43400724448E+02  0.00000000000E+00 0. -1.
         11    1    3    3    0    0 -0.19649345580E+02 -0.59711842624E+01 -0.11474250691E+02  0.23524673268E+02  0.51100000000E-03 0. -1.
        -11    1    3    3    0    0 -0.51353754051E+01  0.72586158536E+00 -0.53195738677E+01  0.74294563723E+01  0.51100000000E-03 0.  1.
        -12    1    3    3    0    0 -0.16236088927E+02  0.35089341965E+01  0.27260958199E+01  0.16833145911E+02  0.00000000000E+00 0.  1.
</event>
<event>
 7    1  0.2318319E-009  0.4778729E+02  0.7816164E-02  0.1312668E+00
        -11   -1    0    0    0    0  0.00000000000E+00  0.00000000000E+00  0.45593999997E+02  0.45594000000E+02  0.51100000000E-03 0.  1.
         11   -1    0    0    0    0 -0.00000000000E+00 -0.00000000000E+00 -0.45593999997E+02  0.45594000000E+02  0.51100000000E-03 0. -1.
    9900012    2    1    2    0    0  0.32575356382E+02 -0.55206326776E+01  0.28142318579E+02  0.47787293513E+02  0.20000102443E+02 0.  0.
         12    1    1    2    0    0 -0.32575356382E+02  0.55206326776E+01 -0.28142318579E+02  0.43400706487E+02  0.00000000000E+00 0. -1.
         11    1    3    3    0    0  0.36325125368E+01  0.40373611026E+01 -0.90266688195E+00  0.55054736185E+01  0.51100000000E-03 0. -1.
        -11    1    3    3    0    0  0.10075776005E+02 -0.23379526762E+01  0.77145361700E+01  0.12903540343E+02  0.51100000000E-03 0.  1.
         12    1    3    3    0    0  0.18867067841E+02 -0.72200411040E+01  0.21330449290E+02  0.29378279551E+02  0.00000000000E+00 0. -1.
</event>
<event>
 7    1  0.2318319E-009  0.4778727E+02  0.7816164E-02  0.1312668E+00
        -11   -1    0    0    0    0  0.00000000000E+00  0.00000000000E+00  0.45593999997E+02  0.45594000000E+02  0.51100000000E-03 0.  1.
         11   -1    0    0    0    0 -0.00000000000E+00 -0.00000000000E+00 -0.45593999997E+02  0.45594000000E+02  0.51100000000E-03 0. -1.
    9900012    2    1    2    0    0 -0.33368280705E+02 -0.27745682898E+02  0.59876568203E+00  0.47787267322E+02  0.19999983027E+02 0.  0.
         12    1    1    2    0    0  0.33368280705E+02  0.27745682898E+02 -0.59876568203E+00  0.43400732678E+02  0.00000000000E+00 0. -1.
         11    1    3    3    0    0 -0.11708612051E+02 -0.12025118077E+02  0.13541008061E+00  0.16784319977E+02  0.51100000000E-03 0. -1.
        -11    1    3    3    0    0 -0.23068070678E+02 -0.14725618068E+02  0.34198315182E+01  0.27580336477E+02  0.51100000000E-03 0.  1.
         12    1    3    3    0    0  0.14084020252E+01 -0.99494675257E+00 -0.29564759168E+01  0.34226108677E+01  0.00000000000E+00 0. -1.
</event>
<event>
 7    1  0.2318319E-009  0.4778727E+02  0.7816164E-02  0.1312668E+00
        -11   -1    0    0    0    0  0.00000000000E+00  0.00000000000E+00  0.45593999997E+02  0.45594000000E+02  0.51100000000E-03 0.  1.
         11   -1    0    0    0    0 -0.00000000000E+00 -0.00000000000E+00 -0.45593999997E+02  0.45594000000E+02  0.51100000000E-03 0. -1.
    9900012    2    1    2    0    0  0.35623939671E+01 -0.36264448748E+02  0.23575888064E+02  0.47787269686E+02  0.19999993804E+02 0.  0.
         12    1    1    2    0    0 -0.35623939671E+01  0.36264448748E+02 -0.23575888064E+02  0.43400730314E+02  0.00000000000E+00 0. -1.
         11    1    3    3    0    0  0.31619696925E+01 -0.43080951155E+01  0.64843972845E+01  0.84026867290E+01  0.51100000000E-03 0. -1.
        -11    1    3    3    0    0  0.46569797895E+01 -0.15176244353E+02  0.12584428135E+01  0.15924494717E+02  0.51100000000E-03 0.  1.
        -12    1    3    3    0    0 -0.42565555149E+01 -0.16780109280E+02  0.15833047966E+02  0.23460088239E+02  0.00000000000E+00 0.  1.
</event>
<event>
 7    1  0.2318319E-009  0.4778727E+02  0.7816164E-02  0.1312668E+00
        -11   -1    0    0    0    0  0.00000000000E+00  0.00000000000E+00  0.45593999997E+02  0.45594000000E+02  0.51100000000E-03 0.  1.
         11   -1    0    0    0    0 -0.00000000000E+00 -0.00000000000E+00 -0.45593999997E+02  0.45594000000E+02  0.51100000000E-03 0. -1.
    9900012    2    1    2    0    0  0.97753971926E+01 -0.34468418499E+02  0.24494750339E+02  0.47787273528E+02  0.20000011324E+02 0.  0.
         12    1    1    2    0    0 -0.97753971926E+01  0.34468418499E+02 -0.24494750339E+02  0.43400726472E+02  0.00000000000E+00 0. -1.
         11    1    3    3    0    0  0.48609890969E+01 -0.46975956600E+01  0.68672524381E+01  0.96361702088E+01  0.51100000000E-03 0. -1.
        -11    1    3    3    0    0  0.10444537524E+02 -0.21191283657E+02  0.12489086883E+02  0.26723326114E+02  0.51100000000E-03 0.  1.
        -12    1    3    3    0    0 -0.55301294287E+01 -0.85795391821E+01  0.51384110179E+01  0.11427777206E+02  0.00000000000E+00 0.  1.
</event>
<event>
 7    1  0.2318319E-009  0.4778726E+02  0.7816164E-02  0.1312668E+00
        -11   -1    0    0    0    0  0.00000000000E+00  0.00000000000E+00  0.45593999997E+02  0.45594000000E+02  0.51100000000E-03 0.  1.
         11   -1    0    0    0    0 -0.00000000000E+00 -0.00000000000E+00 -0.45593999997E+02  0.45594000000E+02  0.51100000000E-03 0. -1.
    9900012    2    1    2    0    0 -0.34708273042E+02 -0.16853012822E+02  0.19872992350E+02  0.47787261715E+02  0.19999957463E+02 0.  0.
         12    1    1    2    0    0  0.34708273042E+02  0.16853012822E+02 -0.19872992350E+02  0.43400738285E+02  0.00000000000E+00 0. -1.
         11    1    3    3    0    0 -0.12706387033E+01 -0.29528054691E+01 -0.32313358161E+01  0.45579726052E+01  0.51100000000E-03 0. -1.
        -11    1    3    3    0    0 -0.15765307608E+02 -0.39373992462E+01  0.10377839235E+02  0.19280756838E+02  0.51100000000E-03 0.  1.
        -12    1    3    3    0    0 -0.17672326731E+02 -0.99628081062E+01  0.12726488931E+02  0.23948532271E+02  0.00000000000E+00 0.  1.
</event>
<event>
 7    1  0.2318319E-009  0.4778727E+02  0.7816164E-02  0.1312668E+00
        -11   -1    0    0    0    0  0.00000000000E+00  0.00000000000E+00  0.45593999997E+02  0.45594000000E+02  0.51100000000E-03 0.  1.
         11   -1    0    0    0    0 -0.00000000000E+00 -0.00000000000E+00 -0.45593999997E+02  0.45594000000E+02  0.51100000000E-03 0. -1.
    9900012    2    1    2    0    0  0.38197796838E+02  0.20594448452E+02 -0.64831361986E+00  0.47787270734E+02  0.19999998583E+02 0.  0.
         12    1    1    2    0    0 -0.38197796838E+02 -0.20594448452E+02  0.64831361986E+00  0.43400729266E+02  0.00000000000E+00 0. -1.
         11    1    3    3    0    0  0.18707302656E+02  0.11358883877E+02  0.45748230514E+01  0.22358810831E+02  0.51100000000E-03 0. -1.
        -11    1    3    3    0    0  0.21195579657E+02  0.84189850589E+01 -0.39416030088E+01  0.23144505632E+02  0.51100000000E-03 0.  1.
         12    1    3    3    0    0 -0.17050854746E+01  0.81657951616E+00 -0.12815336625E+01  0.22839542705E+01  0.00000000000E+00 0. -1.
</event>
<event>
 7    1  0.2318319E-009  0.4778725E+02  0.7816164E-02  0.1312668E+00
        -11   -1    0    0    0    0  0.00000000000E+00  0.00000000000E+00  0.45593999997E+02  0.45594000000E+02  0.51100000000E-03 0. -1.
         11   -1    0    0    0    0 -0.00000000000E+00 -0.00000000000E+00 -0.45593999997E+02  0.45594000000E+02  0.51100000000E-03 0.  1.
    9900012    2    1    2    0    0 -0.26297560412E+02  0.21080690615E+02 -0.27343517349E+02  0.47787249529E+02  0.19999901903E+02 0.  0.
         12    1    1    2    0    0  0.26297560412E+02 -0.21080690615E+02  0.27343517349E+02  0.43400750471E+02  0.00000000000E+00 0. -1.
         11    1    3    3    0    0 -0.18271010500E+02  0.98199632291E+01 -0.14395273214E+02  0.25248473096E+02  0.51100000000E-03 0. -1.
        -11    1    3    3    0    0 -0.11036612751E+02  0.64809758264E+01 -0.88816070203E+01  0.15578601099E+02  0.51100000000E-03 0.  1.
        -12    1    3    3    0    0  0.30100628388E+01  0.47797515599E+01 -0.40666371144E+01  0.69601753346E+01  0.00000000000E+00 0.  1.
</event>
<event>
 7    1  0.2318319E-009  0.4778731E+02  0.7816164E-02  0.1312668E+00
        -11   -1    0    0    0    0  0.00000000000E+00  0.00000000000E+00  0.45593999997E+02  0.45594000000E+02  0.51100000000E-03 0. -1.
         11   -1    0    0    0    0 -0.00000000000E+00 -0.00000000000E+00 -0.45593999997E+02  0.45594000000E+02  0.51100000000E-03 0.  1.
    9900012    2    1    2    0    0  0.40526269932E+02  0.17358626844E+01 -0.15434645846E+02  0.47787307998E+02  0.20000168486E+02 0.  0.
         12    1    1    2    0    0 -0.40526269932E+02 -0.17358626844E+01  0.15434645846E+02  0.43400692002E+02  0.00000000000E+00 0. -1.
         11    1    3    3    0    0  0.15750936986E+02  0.24761263620E+01 -0.77418074937E+01  0.17724525416E+02  0.51100000000E-03 0. -1.
        -11    1    3    3    0    0  0.22513580477E+02  0.42407112504E+01 -0.86898952728E+01  0.24502228835E+02  0.51100000000E-03 0.  1.
         12    1    3    3    0    0  0.22617524692E+01 -0.49809749280E+01  0.99705692071E+00  0.55605537465E+01  0.00000000000E+00 0. -1.
</event>
<event>
 7    1  0.2318319E-009  0.4778727E+02  0.7816164E-02  0.1312668E+00
        -11   -1    0    0    0    0  0.00000000000E+00  0.00000000000E+00  0.45593999997E+02  0.45594000000E+02  0.51100000000E-03 0. -1.
         11   -1    0    0    0    0 -0.00000000000E+00 -0.00000000000E+00 -0.45593999997E+02  0.45594000000E+02  0.51100000000E-03 0.  1.
    9900012    2    1    2    0    0 -0.34250904743E+02  0.26602064371E+02  0.16819567926E+01  0.47787270938E+02  0.19999999513E+02 0.  0.
         12    1    1    2    0    0  0.34250904743E+02 -0.26602064371E+02 -0.16819567926E+01  0.43400729062E+02  0.00000000000E+00 0. -1.
         11    1    3    3    0    0 -0.42184038451E+01  0.90534961044E+01 -0.22198972357E+01  0.10231747979E+02  0.51100000000E-03 0. -1.
        -11    1    3    3    0    0 -0.17369809423E+02  0.13139756618E+02 -0.37757280096E+01  0.22104741701E+02  0.51100000000E-03 0.  1.
         12    1    3    3    0    0 -0.12662691474E+02  0.44088116483E+01  0.76775820379E+01  0.15450781258E+02  0.00000000000E+00 0. -1.
</event>
<event>
 7    1  0.2318319E-009  0.4778727E+02  0.7816164E-02  0.1312668E+00
        -11   -1    0    0    0    0  0.00000000000E+00  0.00000000000E+00  0.45593999997E+02  0.45594000000E+02  0.51100000000E-03 0. -1.
         11   -1    0    0    0    0 -0.00000000000E+00 -0.00000000000E+00 -0.45593999997E+02  0.45594000000E+02  0.51100000000E-03 0.  1.
    9900012    2    1    2    0    0 -0.29630776362E+02 -0.23735019531E+02  0.21030667253E+02  0.47787273911E+02  0.20000013070E+02 0.  0.
         12    1    1    2    0    0  0.29630776362E+02  0.23735019531E+02 -0.21030667253E+02  0.43400726089E+02  0.00000000000E+00 0. -1.
         11    1    3    3    0    0 -0.11715589555E+02 -0.54894335083E+01  0.42471003037E+01  0.13617150220E+02  0.51100000000E-03 0. -1.
        -11    1    3    3    0    0 -0.49226123576E+01 -0.12580488875E+02  0.19428930233E+01  0.13648283640E+02  0.51100000000E-03 0.  1.
         12    1    3    3    0    0 -0.12992574450E+02 -0.56650971477E+01  0.14840673926E+02  0.20521840052E+02  0.00000000000E+00 0. -1.
</event>
<event>
 7    1  0.2318319E-009  0.4778725E+02  0.7816164E-02  0.1312668E+00
        -11   -1    0    0    0    0  0.00000000000E+00  0.00000000000E+00  0.45593999997E+02  0.45594000000E+02  0.51100000000E-03 0.  1.
         11   -1    0    0    0    0 -0.00000000000E+00 -0.00000000000E+00 -0.45593999997E+02  0.45594000000E+02  0.51100000000E-03 0. -1.
    9900012    2    1    2    0    0  0.33341127073E+01  0.21586893331E+02  0.37503529582E+02  0.47787251131E+02  0.19999909207E+02 0.  0.
         12    1    1    2    0    0 -0.33341127073E+01 -0.21586893331E+02 -0.37503529582E+02  0.43400748869E+02  0.00000000000E+00 0. -1.
         11    1    3    3    0    0 -0.57191324126E+01  0.13660479295E+02  0.25427800346E+02  0.29426012316E+02  0.51100000000E-03 0. -1.
        -11    1    3    3    0    0  0.13349817144E+01  0.38777117207E+01  0.74250659175E+01  0.84823598431E+01  0.51100000000E-03 0.  1.
        -12    1    3    3    0    0  0.77182634054E+01  0.40487023156E+01  0.46506633189E+01  0.98788789719E+01  0.00000000000E+00 0.  1.
</event>
<event>
 7    1  0.2318319E-009  0.4778727E+02  0.7816164E-02  0.1312668E+00
        -11   -1    0    0    0    0  0.00000000000E+00  0.00000000000E+00  0.45593999997E+02  0.45594000000E+02  0.51100000000E-03 0. -1.
         11   -1    0    0    0    0 -0.00000000000E+00 -0.00000000000E+00 -0.45593999997E+02  0.45594000000E+02  0.51100000000E-03 0.  1.
    9900012    2    1    2    0    0  0.18769200763E+02 -0.36661416344E+02 -0.13685066759E+02  0.47787269616E+02  0.19999993489E+02 0.  0.
         12    1    1    2    0    0 -0.18769200763E+02  0.36661416344E+02  0.13685066759E+02  0.43400730384E+02  0.00000000000E+00 0. -1.
         11    1    3    3    0    0  0.23275753828E+01 -0.10791205316E+01 -0.48156655687E+01  0.54564405444E+01  0.51100000000E-03 0. -1.
        -11    1    3    3    0    0  0.11743177807E+02 -0.20041461717E+02 -0.11440435875E+02  0.25892971750E+02  0.51100000000E-03 0.  1.
         12    1    3    3    0    0  0.46984475733E+01 -0.15540834095E+02  0.25710346856E+01  0.16437857322E+02  0.00000000000E+00 0. -1.
</event>
<event>
 7    1  0.2318319E-009  0.4778727E+02  0.7816164E-02  0.1312668E+00
        -11   -1    0    0    0    0  0.00000000000E+00  0.00000000000E+00  0.45593999997E+02  0.45594000000E+02  0.51100000000E-03 0.  1.
         11   -1    0    0    0    0 -0.00000000000E+00 -0.00000000000E+00 -0.45593999997E+02  0.45594000000E+02  0.51100000000E-03 0. -1.
    9900012    2    1    2    0    0  0.87284380315E+01 -0.41155464641E+02  0.10661389161E+02  0.47787272827E+02  0.20000008128E+02 0.  0.
         12    1    1    2    0    0 -0.87284380315E+01  0.41155464641E+02 -0.10661389161E+02  0.43400727173E+02  0.00000000000E+00 0. -1.
         11    1    3    3    0    0 -0.21598630544E+01 -0.28504273405E+01  0.77168539296E+00  0.36586121745E+01  0.51100000000E-03 0. -1.
        -11    1    3    3    0    0  0.83102862283E+00 -0.29812095145E+02  0.74637782772E+01  0.30743448277E+02  0.51100000000E-03 0.  1.
         12    1    3    3    0    0  0.10057272463E+02 -0.84929421553E+01  0.24259254909E+01  0.13385212375E+02  0.00000000000E+00 0. -1.
</event>
<event>
 7    1  0.2318319E-009  0.4778727E+02  0.7816164E-02  0.1312668E+00
        -11   -1    0    0    0    0  0.00000000000E+00  0.00000000000E+00  0.45593999997E+02  0.45594000000E+02  0.51100000000E-03 0.  1.
         11   -1    0    0    0    0 -0.00000000000E+00 -0.00000000000E+00 -0.45593999997E+02  0.45594000000E+02  0.51100000000E-03 0. -1.
    9900012    2    1    2    0    0  0.33635103634E+02 -0.23924944753E+02 -0.13412680685E+02  0.47787272114E+02  0.20000004876E+02 0.  0.
         12    1    1    2    0    0 -0.33635103634E+02  0.23924944753E+02  0.13412680685E+02  0.43400727886E+02  0.00000000000E+00 0. -1.
         11    1    3    3    0    0  0.84316532179E+01 -0.13919245583E+02 -0.30678019426E+01  0.16560482559E+02  0.51100000000E-03 0. -1.
        -11    1    3    3    0    0  0.11930499351E+02 -0.67448511663E+01  0.59807532267E+00  0.13718145880E+02  0.51100000000E-03 0.  1.
         12    1    3    3    0    0  0.13272951065E+02 -0.32608480043E+01 -0.10942954065E+02  0.17508643675E+02  0.00000000000E+00 0. -1.
</event>
<event>
 7    1  0.2318319E-009  0.4778727E+02  0.7816164E-02  0.1312668E+00
        -11   -1    0    0    0    0  0.00000000000E+00  0.00000000000E+00  0.45593999997E+02  0.45594000000E+02  0.51100000000E-03 0.  1.
         11   -1    0    0    0    0 -0.00000000000E+00 -0.00000000000E+00 -0.45593999997E+02  0.45594000000E+02  0.51100000000E-03 0. -1.
    9900012    2    1    2    0    0  0.42472712045E+02 -0.85409682339E+01 -0.25968813871E+01  0.47787271898E+02  0.20000003890E+02 0.  0.
         12    1    1    2    0    0 -0.42472712045E+02  0.85409682339E+01  0.25968813871E+01  0.43400728102E+02  0.00000000000E+00 0. -1.
         11    1    3    3    0    0  0.25395424868E+01 -0.39217336206E+01  0.47384598845E+01  0.66544926908E+01  0.51100000000E-03 0. -1.
        -11    1    3    3    0    0  0.12541799324E+02 -0.21414081755E+01 -0.22486759959E+00  0.12725286832E+02  0.51100000000E-03 0.  1.
        -12    1    3    3    0    0  0.27391370234E+02 -0.24778264379E+01 -0.71104736721E+01  0.28407492375E+02  0.00000000000E+00 0.  1.
</event>
<event>
 7    1  0.2318319E-009  0.4778727E+02  0.7816164E-02  0.1312668E+00
        -11   -1    0    0    0    0  0.00000000000E+00  0.00000000000E+00  0.45593999997E+02  0.45594000000E+02  0.51100000000E-03 0. -1.
         11   -1    0    0    0    0 -0.00000000000E+00 -0.00000000000E+00 -0.45593999997E+02  0.45594000000E+02  0.51100000000E-03 0.  1.
    9900012    2    1    2    0    0 -0.31590322548E+01  0.15495302431E+02 -0.40417070777E+02  0.47787268527E+02  0.19999988522E+02 0.  0.
         12    1    1    2    0    0  0.31590322548E+01 -0.15495302431E+02  0.40417070777E+02  0.43400731473E+02  0.00000000000E+00 0. -1.
         11    1    3    3    0    0  0.71592260165E+00  0.94590785418E+01 -0.86797247374E+01  0.12857851057E+02  0.51100000000E-03 0. -1.
        -11    1    3    3    0    0  0.34256849333E+01  0.63780198919E+01 -0.17077028274E+02  0.18548297764E+02  0.51100000000E-03 0.  1.
        -12    1    3    3    0    0 -0.73006397898E+01 -0.34179600218E+00 -0.14660317765E+02  0.16381119706E+02  0.00000000000E+00 0.  1.
</event>
<event>
 7    1  0.2318319E-009  0.4778727E+02  0.7816164E-02  0.1312668E+00
        -11   -1    0    0    0    0  0.00000000000E+00  0.00000000000E+00  0.45593999997E+02  0.45594000000E+02  0.51100000000E-03 0.  1.
         11   -1    0    0    0    0 -0.00000000000E+00 -0.00000000000E+00 -0.45593999997E+02  0.45594000000E+02  0.51100000000E-03 0. -1.
    9900012    2    1    2    0    0  0.11177002323E+02  0.25816934999E+02  0.33048204335E+02  0.47787270474E+02  0.19999997398E+02 0.  0.
         12    1    1    2    0    0 -0.11177002323E+02 -0.25816934999E+02 -0.33048204335E+02  0.43400729526E+02  0.00000000000E+00 0. -1.
         11    1    3    3    0    0  0.61066067903E+00  0.13127631715E+02  0.41590129912E+01  0.13784230491E+02  0.51100000000E-03 0. -1.
        -11    1    3    3    0    0  0.11697980386E+01  0.66688849199E+01  0.11227735430E+02  0.13111235513E+02  0.51100000000E-03 0.  1.
         12    1    3    3    0    0  0.93965436058E+01  0.60204183637E+01  0.17661455913E+02  0.20891804469E+02  0.00000000000E+00 0. -1.
</event>
<event>
 7    1  0.2318319E-009  0.4778726E+02  0.7816164E-02  0.1312668E+00
        -11   -1    0    0    0    0  0.00000000000E+00  0.00000000000E+00  0.45593999997E+02  0.45594000000E+02  0.51100000000E-03 0. -1.
         11   -1    0    0    0    0 -0.00000000000E+00 -0.00000000000E+00 -0.45593999997E+02  0.45594000000E+02  0.51100000000E-03 0.  1.
    9900012    2    1    2    0    0  0.15976517741E+02 -0.40349951152E+02 -0.50682758297E+00  0.47787256328E+02  0.19999932901E+02 0.  0.
         12    1    1    2    0    0 -0.15976517741E+02  0.40349951152E+02  0.50682758297E+00  0.43400743672E+02  0.00000000000E+00 0. -1.
         11    1    3    3    0    0  0.33213017877E+01 -0.20607362143E+01 -0.16145052545E+01  0.42289841319E+01  0.51100000000E-03 0. -1.
        -11    1    3    3    0    0 -0.14240274378E+01 -0.14196041504E+02  0.55361915908E+01  0.15303753335E+02  0.51100000000E-03 0.  1.
        -12    1    3    3    0    0  0.14079243391E+02 -0.24093173433E+02 -0.44285139193E+01  0.28254518861E+02  0.00000000000E+00 0.  1.
</event>
<event>
 7    1  0.2318319E-009  0.4778727E+02  0.7816164E-02  0.1312668E+00
        -11   -1    0    0    0    0  0.00000000000E+00  0.00000000000E+00  0.45593999997E+02  0.45594000000E+02  0.51100000000E-03 0. -1.
         11   -1    0    0    0    0 -0.00000000000E+00 -0.00000000000E+00 -0.45593999997E+02  0.45594000000E+02  0.51100000000E-03 0.  1.
    9900012    2    1    2    0    0  0.35692898561E+02  0.14598959081E+02 -0.19912586474E+02  0.47787265974E+02  0.19999976880E+02 0.  0.
         12    1    1    2    0    0 -0.35692898561E+02 -0.14598959081E+02  0.19912586474E+02  0.43400734026E+02  0.00000000000E+00 0. -1.
         11    1    3    3    0    0  0.25394702373E+02  0.70965720699E+01 -0.11336322406E+02  0.28701297004E+02  0.51100000000E-03 0. -1.
        -11    1    3    3    0    0  0.75183350646E+01  0.75835014197E+01 -0.66416824600E+00  0.10699344636E+02  0.51100000000E-03 0.  1.
         12    1    3    3    0    0  0.27798611230E+01 -0.81114408287E-01 -0.79120958218E+01  0.83866243330E+01  0.00000000000E+00 0. -1.
</event>
<event>
 7    1  0.2318319E-009  0.4778727E+02  0.7816164E-02  0.1312668E+00
        -11   -1    0    0    0    0  0.00000000000E+00  0.00000000000E+00  0.45593999997E+02  0.45594000000E+02  0.51100000000E-03 0. -1.
         11   -1    0    0    0    0 -0.00000000000E+00 -0.00000000000E+00 -0.45593999997E+02  0.45594000000E+02  0.51100000000E-03 0.  1.
    9900012    2    1    2    0    0 -0.21360203328E+02 -0.58940433786E+01 -0.37317895289E+02  0.47787270256E+02  0.19999996404E+02 0.  0.
         12    1    1    2    0    0  0.21360203328E+02  0.58940433786E+01  0.37317895289E+02  0.43400729744E+02  0.00000000000E+00 0. -1.
         11    1    3    3    0    0  0.48825079167E+00  0.32858634442E+01 -0.95366408597E+00  0.34561196246E+01  0.51100000000E-03 0. -1.
        -11    1    3    3    0    0 -0.86868021852E+01 -0.28700544392E+01 -0.69313166466E+01  0.11477843674E+02  0.51100000000E-03 0.  1.
         12    1    3    3    0    0 -0.13161651934E+02 -0.63098523836E+01 -0.29432914556E+02  0.32853306957E+02  0.00000000000E+00 0. -1.
</event>
<event>
 7    1  0.2318319E-009  0.4778727E+02  0.7816164E-02  0.1312668E+00
        -11   -1    0    0    0    0  0.00000000000E+00  0.00000000000E+00  0.45593999997E+02  0.45594000000E+02  0.51100000000E-03 0.  1.
         11   -1    0    0    0    0 -0.00000000000E+00 -0.00000000000E+00 -0.45593999997E+02  0.45594000000E+02  0.51100000000E-03 0. -1.
    9900012    2    1    2    0    0 -0.24026432036E+02 -0.14844387718E+02  0.32954482473E+02  0.47787271916E+02  0.20000003975E+02 0.  0.
         12    1    1    2    0    0  0.24026432036E+02  0.14844387718E+02 -0.32954482473E+02  0.43400728084E+02  0.00000000000E+00 0. -1.
         11    1    3    3    0    0 -0.66745135481E+01  0.22494414727E+01  0.82461441016E+01  0.10844722719E+02  0.51100000000E-03 0. -1.
        -11    1    3    3    0    0 -0.17323638811E+01 -0.30823062152E+01  0.11773437912E+02  0.12292905953E+02  0.51100000000E-03 0.  1.
        -12    1    3    3    0    0 -0.15619554607E+02 -0.14011522976E+02  0.12934900459E+02  0.24649643245E+02  0.00000000000E+00 0.  1.
</event>
<event>
 7    1  0.2318319E-009  0.4778727E+02  0.7816164E-02  0.1312668E+00
        -11   -1    0    0    0    0  0.00000000000E+00  0.00000000000E+00  0.45593999997E+02  0.45594000000E+02  0.51100000000E-03 0.  1.
         11   -1    0    0    0    0 -0.00000000000E+00 -0.00000000000E+00 -0.45593999997E+02  0.45594000000E+02  0.51100000000E-03 0. -1.
    9900012    2    1    2    0    0 -0.37013430469E+02 -0.22409226188E+02 -0.33846937932E+01  0.47787267224E+02  0.19999982579E+02 0.  0.
         12    1    1    2    0    0  0.37013430469E+02  0.22409226188E+02  0.33846937932E+01  0.43400732776E+02  0.00000000000E+00 0. -1.
         11    1    3    3    0    0 -0.34363202924E+01  0.15718021328E+01  0.21916526546E+01  0.43683178360E+01  0.51100000000E-03 0. -1.
        -11    1    3    3    0    0 -0.19487573745E+02 -0.10002403253E+02  0.23855592515E+01  0.22034166527E+02  0.51100000000E-03 0.  1.
        -12    1    3    3    0    0 -0.14089536432E+02 -0.13978625068E+02 -0.79619056994E+01  0.21384782861E+02  0.00000000000E+00 0.  1.
</event>
<event>
 7    1  0.2318319E-009  0.4778727E+02  0.7816164E-02  0.1312668E+00
        -11   -1    0    0    0    0  0.00000000000E+00  0.00000000000E+00  0.45593999997E+02  0.45594000000E+02  0.51100000000E-03 0.  1.
         11   -1    0    0    0    0 -0.00000000000E+00 -0.00000000000E+00 -0.45593999997E+02  0.45594000000E+02  0.51100000000E-03 0. -1.
    9900012    2    1    2    0    0 -0.60282133100E+01  0.42175027570E+02 -0.82795407629E+01  0.47787273031E+02  0.20000009056E+02 0.  0.
         12    1    1    2    0    0  0.60282133100E+01 -0.42175027570E+02  0.82795407629E+01  0.43400726969E+02  0.00000000000E+00 0. -1.
         11    1    3    3    0    0  0.63606224743E+00 -0.10824104870E+01  0.61186386216E-02  0.12554781335E+01  0.51100000000E-03 0. -1.
        -11    1    3    3    0    0  0.31661831890E+01  0.86459134755E+01 -0.47983253435E+01  0.10382700139E+02  0.51100000000E-03 0.  1.
        -12    1    3    3    0    0 -0.98304587464E+01  0.34611524581E+02 -0.34873340580E+01  0.36149094758E+02  0.00000000000E+00 0.  1.
</event>
<event>
 7    1  0.2318319E-009  0.4778727E+02  0.7816164E-02  0.1312668E+00
        -11   -1    0    0    0    0  0.00000000000E+00  0.00000000000E+00  0.45593999997E+02  0.45594000000E+02  0.51100000000E-03 0.  1.
         11   -1    0    0    0    0 -0.00000000000E+00 -0.00000000000E+00 -0.45593999997E+02  0.45594000000E+02  0.51100000000E-03 0. -1.
    9900012    2    1    2    0    0  0.41125094434E+02  0.12510202636E+02 -0.59870345830E+01  0.47787272526E+02  0.20000006754E+02 0.  0.
         12    1    1    2    0    0 -0.41125094434E+02 -0.12510202636E+02  0.59870345830E+01  0.43400727474E+02  0.00000000000E+00 0. -1.
         11    1    3    3    0    0 -0.13093259809E+01 -0.83852136289E+00 -0.11592065373E+01  0.19393846079E+01  0.51100000000E-03 0. -1.
        -11    1    3    3    0    0  0.71264143692E+01 -0.65374757332E+00  0.15781139768E+01  0.73282748063E+01  0.51100000000E-03 0.  1.
         12    1    3    3    0    0  0.35308006046E+02  0.14002471573E+02 -0.64059420225E+01  0.38519613111E+02  0.00000000000E+00 0. -1.
</event>
<event>
 7    1  0.2318319E-009  0.4778727E+02  0.7816164E-02  0.1312668E+00
        -11   -1    0    0    0    0  0.00000000000E+00  0.00000000000E+00  0.45593999997E+02  0.45594000000E+02  0.51100000000E-03 0.  1.
         11   -1    0    0    0    0 -0.00000000000E+00 -0.00000000000E+00 -0.45593999997E+02  0.45594000000E+02  0.51100000000E-03 0. -1.
    9900012    2    1    2    0    0 -0.21324741519E+02 -0.20166582403E+02  0.31971668888E+02  0.47787271226E+02  0.20000000827E+02 0.  0.
         12    1    1    2    0    0  0.21324741519E+02  0.20166582403E+02 -0.31971668888E+02  0.43400728774E+02  0.00000000000E+00 0. -1.
         11    1    3    3    0    0 -0.35903415364E+01 -0.30521545504E+00  0.11267057152E+02  0.11829213243E+02  0.51100000000E-03 0.  1.
        -11    1    3    3    0    0 -0.46702637345E+01 -0.95880600708E+01  0.14962535227E+02  0.18374431146E+02  0.51100000000E-03 0. -1.
         12    1    3    3    0    0 -0.13064136248E+02 -0.10273306878E+02  0.57420765092E+01  0.17583626837E+02  0.00000000000E+00 0. -1.
</event>
<event>
 7    1  0.2318319E-009  0.4778727E+02  0.7816164E-02  0.1312668E+00
        -11   -1    0    0    0    0  0.00000000000E+00  0.00000000000E+00  0.45593999997E+02  0.45594000000E+02  0.51100000000E-03 0.  1.
         11   -1    0    0    0    0 -0.00000000000E+00 -0.00000000000E+00 -0.45593999997E+02  0.45594000000E+02  0.51100000000E-03 0. -1.
    9900012    2    1    2    0    0 -0.16289609433E+02  0.15658561581E+01  0.40197267771E+02  0.47787267089E+02  0.19999981963E+02 0.  0.
         12    1    1    2    0    0  0.16289609433E+02 -0.15658561581E+01 -0.40197267771E+02  0.43400732911E+02  0.00000000000E+00 0. -1.
         11    1    3    3    0    0 -0.32302767563E+01 -0.32386841358E+01  0.87055748144E+01  0.98341647313E+01  0.51100000000E-03 0.  1.
        -11    1    3    3    0    0 -0.48705690560E+01  0.19333807305E+01 -0.48997683543E-01  0.52404966379E+01  0.51100000000E-03 0. -1.
        -12    1    3    3    0    0 -0.81887636212E+01  0.28711595635E+01  0.31540690640E+02  0.32712605719E+02  0.00000000000E+00 0.  1.
</event>
<event>
 7    1  0.2318319E-009  0.4778731E+02  0.7816164E-02  0.1312668E+00
        -11   -1    0    0    0    0  0.00000000000E+00  0.00000000000E+00  0.45593999997E+02  0.45594000000E+02  0.51100000000E-03 0.  1.
         11   -1    0    0    0    0 -0.00000000000E+00 -0.00000000000E+00 -0.45593999997E+02  0.45594000000E+02  0.51100000000E-03 0. -1.
    9900012    2    1    2    0    0  0.26142240152E+02 -0.34617234142E+02 -0.13601195205E+01  0.47787314004E+02  0.20000195870E+02 0.  0.
         12    1    1    2    0    0 -0.26142240152E+02  0.34617234142E+02  0.13601195205E+01  0.43400685996E+02  0.00000000000E+00 0. -1.
         11    1    3    3    0    0  0.11437633725E+02 -0.26065620615E+02  0.22951397976E+00  0.28465570786E+02  0.51100000000E-03 0.  1.
        -11    1    3    3    0    0  0.30523817696E+01 -0.44832484704E+01 -0.40093598524E+01  0.67447400248E+01  0.51100000000E-03 0. -1.
        -12    1    3    3    0    0  0.11652224657E+02 -0.40683650567E+01  0.24197263522E+01  0.12577003193E+02  0.00000000000E+00 0.  1.
</event>
<event>
 7    1  0.2318319E-009  0.4778727E+02  0.7816164E-02  0.1312668E+00
        -11   -1    0    0    0    0  0.00000000000E+00  0.00000000000E+00  0.45593999997E+02  0.45594000000E+02  0.51100000000E-03 0.  1.
         11   -1    0    0    0    0 -0.00000000000E+00 -0.00000000000E+00 -0.45593999997E+02  0.45594000000E+02  0.51100000000E-03 0. -1.
    9900012    2    1    2    0    0  0.14117902708E+01  0.18579711343E+02  0.39197248549E+02  0.47787272827E+02  0.20000008125E+02 0.  0.
         12    1    1    2    0    0 -0.14117902708E+01 -0.18579711343E+02 -0.39197248549E+02  0.43400727173E+02  0.00000000000E+00 0. -1.
         11    1    3    3    0    0 -0.11442709877E+00  0.16399465096E+02  0.31737464259E+02  0.35724252082E+02  0.51100000000E-03 0.  1.
        -11    1    3    3    0    0 -0.20161238201E+01  0.45914548713E+01  0.28445865281E+01  0.57652307733E+01  0.51100000000E-03 0. -1.
        -12    1    3    3    0    0  0.35423411897E+01 -0.24112086241E+01  0.46151977621E+01  0.62977899708E+01  0.00000000000E+00 0.  1.
</event>
<event>
 7    1  0.2318319E-009  0.4778727E+02  0.7816164E-02  0.1312668E+00
        -11   -1    0    0    0    0  0.00000000000E+00  0.00000000000E+00  0.45593999997E+02  0.45594000000E+02  0.51100000000E-03 0. -1.
         11   -1    0    0    0    0 -0.00000000000E+00 -0.00000000000E+00 -0.45593999997E+02  0.45594000000E+02  0.51100000000E-03 0.  1.
    9900012    2    1    2    0    0 -0.19466679197E+02 -0.59559026388E+01 -0.38330132337E+02  0.47787269359E+02  0.19999992314E+02 0.  0.
         12    1    1    2    0    0  0.19466679197E+02  0.59559026388E+01  0.38330132337E+02  0.43400730641E+02  0.00000000000E+00 0. -1.
         11    1    3    3    0    0  0.19162343775E+01 -0.58609251962E+00 -0.33788119400E+01  0.39283366732E+01  0.51100000000E-03 0.  1.
        -11    1    3    3    0    0 -0.68434164391E+01  0.17154649077E+01 -0.22106279888E+02  0.23204800778E+02  0.51100000000E-03 0. -1.
        -12    1    3    3    0    0 -0.14539497135E+02 -0.70852750269E+01 -0.12845040509E+02  0.20654131907E+02  0.00000000000E+00 0.  1.
</event>
<event>
 7    1  0.2318319E-009  0.4778727E+02  0.7816164E-02  0.1312668E+00
        -11   -1    0    0    0    0  0.00000000000E+00  0.00000000000E+00  0.45593999997E+02  0.45594000000E+02  0.51100000000E-03 0.  1.
         11   -1    0    0    0    0 -0.00000000000E+00 -0.00000000000E+00 -0.45593999997E+02  0.45594000000E+02  0.51100000000E-03 0. -1.
    9900012    2    1    2    0    0 -0.35751119627E+01 -0.12358767758E+02  0.41450003747E+02  0.47787269860E+02  0.19999994602E+02 0.  0.
         12    1    1    2    0    0  0.35751119627E+01  0.12358767758E+02 -0.41450003747E+02  0.43400730140E+02  0.00000000000E+00 0. -1.
         11    1    3    3    0    0 -0.75546098223E+01 -0.78392598093E+01  0.21732327214E+02  0.24306792679E+02  0.51100000000E-03 0. -1.
        -11    1    3    3    0    0  0.14540064230E+01 -0.75546929765E+01  0.17078115962E+02  0.18730978771E+02  0.51100000000E-03 0.  1.
         12    1    3    3    0    0  0.25254914366E+01  0.30351850275E+01  0.26395605704E+01  0.47494984106E+01  0.00000000000E+00 0. -1.
</event>
<event>
 7    1  0.2318319E-009  0.4778727E+02  0.7816164E-02  0.1312668E+00
        -11   -1    0    0    0    0  0.00000000000E+00  0.00000000000E+00  0.45593999997E+02  0.45594000000E+02  0.51100000000E-03 0. -1.
         11   -1    0    0    0    0 -0.00000000000E+00 -0.00000000000E+00 -0.45593999997E+02  0.45594000000E+02  0.51100000000E-03 0.  1.
    9900012    2    1    2    0    0 -0.20589259074E+02 -0.18752581899E+02 -0.33287330456E+02  0.47787270905E+02  0.19999999363E+02 0.  0.
         12    1    1    2    0    0  0.20589259074E+02  0.18752581899E+02  0.33287330456E+02  0.43400729095E+02  0.00000000000E+00 0. -1.
         11    1    3    3    0    0 -0.14445772568E+02 -0.64351301240E+01 -0.21562473929E+02  0.26740073429E+02  0.51100000000E-03 0. -1.
        -11    1    3    3    0    0 -0.48363720267E+01 -0.50386706061E+00 -0.63625185590E+01  0.80078723186E+01  0.51100000000E-03 0.  1.
        -12    1    3    3    0    0 -0.13071144793E+01 -0.11813584714E+02 -0.53623379689E+01  0.13039325157E+02  0.00000000000E+00 0.  1.
</event>
<event>
 7    1  0.2318319E-009  0.4778727E+02  0.7816164E-02  0.1312668E+00
        -11   -1    0    0    0    0  0.00000000000E+00  0.00000000000E+00  0.45593999997E+02  0.45594000000E+02  0.51100000000E-03 0.  1.
         11   -1    0    0    0    0 -0.00000000000E+00 -0.00000000000E+00 -0.45593999997E+02  0.45594000000E+02  0.51100000000E-03 0. -1.
    9900012    2    1    2    0    0  0.39729218799E+02 -0.16470678127E+02 -0.58248960980E+01  0.47787268682E+02  0.19999989230E+02 0.  0.
         12    1    1    2    0    0 -0.39729218799E+02  0.16470678127E+02  0.58248960980E+01  0.43400731318E+02  0.00000000000E+00 0. -1.
         11    1    3    3    0    0  0.96981304956E+01 -0.58022480479E+01 -0.66449456490E+01  0.13110115196E+02  0.51100000000E-03 0. -1.
        -11    1    3    3    0    0  0.11550055044E+02 -0.11125317546E+02  0.19562049750E+01  0.16155593464E+02  0.51100000000E-03 0.  1.
        -12    1    3    3    0    0  0.18481033259E+02  0.45688746658E+00 -0.11361554240E+01  0.18521560022E+02  0.00000000000E+00 0.  1.
</event>
<event>
 7    1  0.2318319E-009  0.4778725E+02  0.7816164E-02  0.1312668E+00
        -11   -1    0    0    0    0  0.00000000000E+00  0.00000000000E+00  0.45593999997E+02  0.45594000000E+02  0.51100000000E-03 0. -1.
         11   -1    0    0    0    0 -0.00000000000E+00 -0.00000000000E+00 -0.45593999997E+02  0.45594000000E+02  0.51100000000E-03 0.  1.
    9900012    2    1    2    0    0 -0.35569442171E+02  0.81656361337E+01 -0.23489614321E+02  0.47787253338E+02  0.19999919271E+02 0.  0.
         12    1    1    2    0    0  0.35569442171E+02 -0.81656361337E+01  0.23489614321E+02  0.43400746662E+02  0.00000000000E+00 0. -1.
         11    1    3    3    0    0 -0.19329934125E+02  0.42496622642E+01 -0.89430511521E+01  0.21718290605E+02  0.51100000000E-03 0.  1.
        -11    1    3    3    0    0 -0.77056008389E+01  0.62949856372E+01 -0.11615339015E+01  0.10017599000E+02  0.51100000000E-03 0. -1.
         12    1    3    3    0    0 -0.85339072073E+01 -0.23790117676E+01 -0.13385029268E+02  0.16051363734E+02  0.00000000000E+00 0. -1.
</event>
<event>
 7    1  0.2318319E-009  0.4778724E+02  0.7816164E-02  0.1312668E+00
        -11   -1    0    0    0    0  0.00000000000E+00  0.00000000000E+00  0.45593999997E+02  0.45594000000E+02  0.51100000000E-03 0.  1.
         11   -1    0    0    0    0 -0.00000000000E+00 -0.00000000000E+00 -0.45593999997E+02  0.45594000000E+02  0.51100000000E-03 0. -1.
    9900012    2    1    2    0    0  0.34056873367E+02  0.20925641534E+02 -0.16907784797E+02  0.47787236368E+02  0.19999841895E+02 0.  0.
         12    1    1    2    0    0 -0.34056873367E+02 -0.20925641534E+02  0.16907784797E+02  0.43400763632E+02  0.00000000000E+00 0. -1.
         11    1    3    3    0    0  0.13267057709E+01  0.30551994543E+01 -0.62818170458E+00  0.33895433945E+01  0.51100000000E-03 0. -1.
        -11    1    3    3    0    0  0.24395893488E+02  0.98486019165E+01 -0.25312815566E+01  0.26430322839E+02  0.51100000000E-03 0.  1.
         12    1    3    3    0    0  0.83342741076E+01  0.80218401628E+01 -0.13748321536E+02  0.17967370134E+02  0.00000000000E+00 0. -1.
</event>
<event>
 7    1  0.2318319E-009  0.4778729E+02  0.7816164E-02  0.1312668E+00
        -11   -1    0    0    0    0  0.00000000000E+00  0.00000000000E+00  0.45593999997E+02  0.45594000000E+02  0.51100000000E-03 0. -1.
         11   -1    0    0    0    0 -0.00000000000E+00 -0.00000000000E+00 -0.45593999997E+02  0.45594000000E+02  0.51100000000E-03 0.  1.
    9900012    2    1    2    0    0 -0.18237076059E+02  0.39378212358E+02  0.62220554902E+00  0.47787289275E+02  0.20000083120E+02 0.  0.
         12    1    1    2    0    0  0.18237076059E+02 -0.39378212358E+02 -0.62220554902E+00  0.43400710725E+02  0.00000000000E+00 0. -1.
         11    1    3    3    0    0  0.22688385138E+01  0.43283534966E+01 -0.34862430017E+01  0.60030128037E+01  0.51100000000E-03 0. -1.
        -11    1    3    3    0    0 -0.58988503348E+01  0.15236684707E+02 -0.18919750781E+01  0.16447874212E+02  0.51100000000E-03 0.  1.
        -12    1    3    3    0    0 -0.14607064238E+02  0.19813174154E+02  0.60004236289E+01  0.25336402259E+02  0.00000000000E+00 0.  1.
</event>
<event>
 7    1  0.2318319E-009  0.4778727E+02  0.7816164E-02  0.1312668E+00
        -11   -1    0    0    0    0  0.00000000000E+00  0.00000000000E+00  0.45593999997E+02  0.45594000000E+02  0.51100000000E-03 0.  1.
         11   -1    0    0    0    0 -0.00000000000E+00 -0.00000000000E+00 -0.45593999997E+02  0.45594000000E+02  0.51100000000E-03 0. -1.
    9900012    2    1    2    0    0  0.36602305191E+02  0.20108465930E+01  0.23234703698E+02  0.47787266075E+02  0.19999977342E+02 0.  0.
         12    1    1    2    0    0 -0.36602305191E+02 -0.20108465930E+01 -0.23234703698E+02  0.43400733925E+02  0.00000000000E+00 0. -1.
         11    1    3    3    0    0  0.41030481676E+01  0.24411677653E+01  0.16280626799E+01  0.50442930798E+01  0.51100000000E-03 0. -1.
        -11    1    3    3    0    0  0.31738457701E+02  0.36346647174E+01  0.21678178747E+02  0.38606785918E+02  0.51100000000E-03 0.  1.
         12    1    3    3    0    0  0.76079932162E+00 -0.40649858897E+01 -0.71537728702E-01  0.41361870773E+01  0.00000000000E+00 0. -1.
</event>
<event>
 7    1  0.2318319E-009  0.4778729E+02  0.7816164E-02  0.1312668E+00
        -11   -1    0    0    0    0  0.00000000000E+00  0.00000000000E+00  0.45593999997E+02  0.45594000000E+02  0.51100000000E-03 0.  1.
         11   -1    0    0    0    0 -0.00000000000E+00 -0.00000000000E+00 -0.45593999997E+02  0.45594000000E+02  0.51100000000E-03 0. -1.
    9900012    2    1    2    0    0  0.36576536418E+02 -0.12748380977E+01  0.23327095804E+02  0.47787290015E+02  0.20000086496E+02 0.  0.
         12    1    1    2    0    0 -0.36576536418E+02  0.12748380977E+01 -0.23327095804E+02  0.43400709985E+02  0.00000000000E+00 0. -1.
         11    1    3    3    0    0  0.12597511181E+02 -0.21989997533E+01  0.11855280173E+02  0.17437905726E+02  0.51100000000E-03 0. -1.
        -11    1    3    3    0    0  0.18939034600E+02  0.56768664041E+01  0.12432643026E+02  0.23355608676E+02  0.51100000000E-03 0.  1.
         12    1    3    3    0    0  0.50399906369E+01 -0.47527047485E+01 -0.96082739472E+00  0.69937756132E+01  0.00000000000E+00 0. -1.
</event>
<event>
 7    1  0.2318319E-009  0.4778727E+02  0.7816164E-02  0.1312668E+00
        -11   -1    0    0    0    0  0.00000000000E+00  0.00000000000E+00  0.45593999997E+02  0.45594000000E+02  0.51100000000E-03 0.  1.
         11   -1    0    0    0    0 -0.00000000000E+00 -0.00000000000E+00 -0.45593999997E+02  0.45594000000E+02  0.51100000000E-03 0. -1.
    9900012    2    1    2    0    0  0.22187072047E+01  0.24836201252E+02  0.35522722817E+02  0.47787269699E+02  0.19999993868E+02 0.  0.
         12    1    1    2    0    0 -0.22187072047E+01 -0.24836201252E+02 -0.35522722817E+02  0.43400730301E+02  0.00000000000E+00 0. -1.
         11    1    3    3    0    0 -0.29580909979E+01 -0.13755273700E+01  0.18793724484E+01  0.37648929545E+01  0.51100000000E-03 0. -1.
        -11    1    3    3    0    0  0.62793441882E+01  0.84639579406E+01  0.11037793442E+02  0.15261115024E+02  0.51100000000E-03 0.  1.
        -12    1    3    3    0    0 -0.11025459855E+01  0.17747770681E+02  0.22605556927E+02  0.28761261721E+02  0.00000000000E+00 0.  1.
</event>
<event>
 7    1  0.2318319E-009  0.4778727E+02  0.7816164E-02  0.1312668E+00
        -11   -1    0    0    0    0  0.00000000000E+00  0.00000000000E+00  0.45593999997E+02  0.45594000000E+02  0.51100000000E-03 0. -1.
         11   -1    0    0    0    0 -0.00000000000E+00 -0.00000000000E+00 -0.45593999997E+02  0.45594000000E+02  0.51100000000E-03 0.  1.
    9900012    2    1    2    0    0  0.14906512960E+02  0.39708235679E+02 -0.92019125126E+01  0.47787270706E+02  0.19999998456E+02 0.  0.
         12    1    1    2    0    0 -0.14906512960E+02 -0.39708235679E+02  0.92019125126E+01  0.43400729294E+02  0.00000000000E+00 0. -1.
         11    1    3    3    0    0  0.10985089174E+01 -0.30732099248E+00 -0.35469179480E+01  0.37258281260E+01  0.51100000000E-03 0. -1.
        -11    1    3    3    0    0  0.98164299730E+01  0.12518140635E+02 -0.23224846931E+01  0.16076693621E+02  0.51100000000E-03 0.  1.
         12    1    3    3    0    0  0.39915740695E+01  0.27497416037E+02 -0.33325098715E+01  0.27984748959E+02  0.00000000000E+00 0. -1.
</event>
<event>
 7    1  0.2318319E-009  0.4778727E+02  0.7816164E-02  0.1312668E+00
        -11   -1    0    0    0    0  0.00000000000E+00  0.00000000000E+00  0.45593999997E+02  0.45594000000E+02  0.51100000000E-03 0. -1.
         11   -1    0    0    0    0 -0.00000000000E+00 -0.00000000000E+00 -0.45593999997E+02  0.45594000000E+02  0.51100000000E-03 0.  1.
    9900012    2    1    2    0    0  0.90720656105E+01  0.12180317843E+02 -0.40656618678E+02  0.47787272362E+02  0.20000006006E+02 0.  0.
         12    1    1    2    0    0 -0.90720656105E+01 -0.12180317843E+02  0.40656618678E+02  0.43400727638E+02  0.00000000000E+00 0. -1.
         11    1    3    3    0    0  0.13420318448E+02  0.10624818465E+02 -0.19131428503E+02  0.25671059025E+02  0.51100000000E-03 0. -1.
        -11    1    3    3    0    0  0.76049648848E-01 -0.14249755603E+00 -0.26605118575E+01  0.26654104201E+01  0.51100000000E-03 0.  1.
         12    1    3    3    0    0 -0.44243024860E+01  0.16979969343E+01 -0.18864678317E+02  0.19450802916E+02  0.00000000000E+00 0. -1.
</event>
<event>
 7    1  0.2318319E-009  0.4778727E+02  0.7816164E-02  0.1312668E+00
        -11   -1    0    0    0    0  0.00000000000E+00  0.00000000000E+00  0.45593999997E+02  0.45594000000E+02  0.51100000000E-03 0.  1.
         11   -1    0    0    0    0 -0.00000000000E+00 -0.00000000000E+00 -0.45593999997E+02  0.45594000000E+02  0.51100000000E-03 0. -1.
    9900012    2    1    2    0    0  0.40405557238E+02  0.92580192517E+01  0.12857050507E+02  0.47787265860E+02  0.19999976363E+02 0.  0.
         12    1    1    2    0    0 -0.40405557238E+02 -0.92580192517E+01 -0.12857050507E+02  0.43400734140E+02  0.00000000000E+00 0. -1.
         11    1    3    3    0    0  0.51072635834E+01 -0.13499797159E+01 -0.77601713588E-01  0.52832384794E+01  0.51100000000E-03 0. -1.
        -11    1    3    3    0    0  0.14470617142E+02  0.25182947718E+01  0.13785860096E+02  0.20144242549E+02  0.51100000000E-03 0.  1.
         12    1    3    3    0    0  0.20827676512E+02  0.80897041957E+01 -0.85120787553E+00  0.22359784831E+02  0.00000000000E+00 0. -1.
</event>
<event>
 7    1  0.2318319E-009  0.4778729E+02  0.7816164E-02  0.1312668E+00
        -11   -1    0    0    0    0  0.00000000000E+00  0.00000000000E+00  0.45593999997E+02  0.45594000000E+02  0.51100000000E-03 0.  1.
         11   -1    0    0    0    0 -0.00000000000E+00 -0.00000000000E+00 -0.45593999997E+02  0.45594000000E+02  0.51100000000E-03 0. -1.
    9900012    2    1    2    0    0 -0.25783596130E+02 -0.12542862498E+02 -0.32580738138E+02  0.47787288869E+02  0.20000081269E+02 0.  0.
         12    1    1    2    0    0  0.25783596130E+02  0.12542862498E+02  0.32580738138E+02  0.43400711131E+02  0.00000000000E+00 0. -1.
         11    1    3    3    0    0 -0.15995262456E+01 -0.44437725044E+01 -0.31518358454E+01  0.56779985680E+01  0.51100000000E-03 0.  1.
        -11    1    3    3    0    0 -0.87369716050E+01 -0.11119248950E+02 -0.16577079292E+02  0.21789261762E+02  0.51100000000E-03 0. -1.
         12    1    3    3    0    0 -0.15447098280E+02  0.30201589555E+01 -0.12851823001E+02  0.20320028539E+02  0.00000000000E+00 0. -1.
</event>
<event>
 7    1  0.2318319E-009  0.4778727E+02  0.7816164E-02  0.1312668E+00
        -11   -1    0    0    0    0  0.00000000000E+00  0.00000000000E+00  0.45593999997E+02  0.45594000000E+02  0.51100000000E-03 0.  1.
         11   -1    0    0    0    0 -0.00000000000E+00 -0.00000000000E+00 -0.45593999997E+02  0.45594000000E+02  0.51100000000E-03 0. -1.
    9900012    2    1    2    0    0 -0.16111635172E+02  0.40267910384E+02 -0.15918380177E+01  0.47787270250E+02  0.19999996376E+02 0.  0.
         12    1    1    2    0    0  0.16111635172E+02 -0.40267910384E+02  0.15918380177E+01  0.43400729750E+02  0.00000000000E+00 0. -1.
         11    1    3    3    0    0  0.91291308440E+00  0.53064722600E+01  0.18111119095E+01  0.56808612688E+01  0.51100000000E-03 0. -1.
        -11    1    3    3    0    0  0.28578064655E+01  0.65336413905E+01 -0.19141577065E+01  0.73837339876E+01  0.51100000000E-03 0.  1.
        -12    1    3    3    0    0 -0.19882354722E+02  0.28427796733E+02 -0.14887922208E+01  0.34722674993E+02  0.00000000000E+00 0.  1.
</event>
<event>
 7    1  0.2318319E-009  0.4778727E+02  0.7816164E-02  0.1312668E+00
        -11   -1    0    0    0    0  0.00000000000E+00  0.00000000000E+00  0.45593999997E+02  0.45594000000E+02  0.51100000000E-03 0.  1.
         11   -1    0    0    0    0 -0.00000000000E+00 -0.00000000000E+00 -0.45593999997E+02  0.45594000000E+02  0.51100000000E-03 0. -1.
    9900012    2    1    2    0    0  0.87732504250E+01  0.24139807084E+02  0.34984607480E+02  0.47787274549E+02  0.20000015981E+02 0.  0.
         12    1    1    2    0    0 -0.87732504250E+01 -0.24139807084E+02 -0.34984607480E+02  0.43400725451E+02  0.00000000000E+00 0. -1.
         11    1    3    3    0    0  0.32910737693E+01  0.51168334807E+01  0.12717834090E+01  0.62153507322E+01  0.51100000000E-03 0. -1.
        -11    1    3    3    0    0 -0.17393804512E+01 -0.48270913963E+00 -0.17126637449E+00  0.18132249997E+01  0.51100000000E-03 0.  1.
        -12    1    3    3    0    0  0.72215571070E+01  0.19505682743E+02  0.33884090446E+02  0.39758698818E+02  0.00000000000E+00 0.  1.
</event>
<event>
 7    1  0.2318319E-009  0.4778728E+02  0.7816164E-02  0.1312668E+00
        -11   -1    0    0    0    0  0.00000000000E+00  0.00000000000E+00  0.45593999997E+02  0.45594000000E+02  0.51100000000E-03 0.  1.
         11   -1    0    0    0    0 -0.00000000000E+00 -0.00000000000E+00 -0.45593999997E+02  0.45594000000E+02  0.51100000000E-03 0. -1.
    9900012    2    1    2    0    0  0.37119899156E+02 -0.20149105779E+02  0.99874389669E+01  0.47787282101E+02  0.20000050412E+02 0.  0.
         12    1    1    2    0    0 -0.37119899156E+02  0.20149105779E+02 -0.99874389669E+01  0.43400717899E+02  0.00000000000E+00 0. -1.
         11    1    3    3    0    0  0.18187615975E+02 -0.12320822867E+02  0.29868589093E+01  0.22170100978E+02  0.51100000000E-03 0. -1.
        -11    1    3    3    0    0  0.62455833029E+01 -0.91001717099E+01  0.66011648206E+01  0.12860630358E+02  0.51100000000E-03 0.  1.
         12    1    3    3    0    0  0.12686699878E+02  0.12718887981E+01  0.39941523701E+00  0.12756550766E+02  0.00000000000E+00 0. -1.
</event>
<event>
 7    1  0.2318319E-009  0.4778726E+02  0.7816164E-02  0.1312668E+00
        -11   -1    0    0    0    0  0.00000000000E+00  0.00000000000E+00  0.45593999997E+02  0.45594000000E+02  0.51100000000E-03 0.  1.
         11   -1    0    0    0    0 -0.00000000000E+00 -0.00000000000E+00 -0.45593999997E+02  0.45594000000E+02  0.51100000000E-03 0. -1.
    9900012    2    1    2    0    0 -0.10671578570E+02  0.72947224800E+01  0.41431007861E+02  0.47787262937E+02  0.19999963035E+02 0.  0.
         12    1    1    2    0    0  0.10671578570E+02 -0.72947224800E+01 -0.41431007861E+02  0.43400737063E+02  0.00000000000E+00 0. -1.
         11    1    3    3    0    0  0.10444429232E+01  0.78572099428E+01  0.88607901121E+01  0.11888658914E+02  0.51100000000E-03 0. -1.
        -11    1    3    3    0    0 -0.40367566768E+01  0.43103084741E+01  0.10892790432E+02  0.12390603184E+02  0.51100000000E-03 0.  1.
        -12    1    3    3    0    0 -0.76792648165E+01 -0.48727959369E+01  0.21677427317E+02  0.23508000839E+02  0.00000000000E+00 0.  1.
</event>
<event>
 7    1  0.2318319E-009  0.4778728E+02  0.7816164E-02  0.1312668E+00
        -11   -1    0    0    0    0  0.00000000000E+00  0.00000000000E+00  0.45593999997E+02  0.45594000000E+02  0.51100000000E-03 0.  1.
         11   -1    0    0    0    0 -0.00000000000E+00 -0.00000000000E+00 -0.45593999997E+02  0.45594000000E+02  0.51100000000E-03 0. -1.
    9900012    2    1    2    0    0  0.20016734095E+02 -0.38408812274E+02  0.27778073183E+01  0.47787277453E+02  0.20000029218E+02 0.  0.
         12    1    1    2    0    0 -0.20016734095E+02  0.38408812274E+02 -0.27778073183E+01  0.43400722547E+02  0.00000000000E+00 0. -1.
         11    1    3    3    0    0  0.73441610933E+01 -0.22316767508E+02  0.52011790875E+01  0.24062981493E+02  0.51100000000E-03 0. -1.
        -11    1    3    3    0    0  0.38291901515E+01 -0.13952152308E+02 -0.87153031807E+00  0.14494302901E+02  0.51100000000E-03 0.  1.
         12    1    3    3    0    0  0.88433828499E+01 -0.21398924579E+01 -0.15518414512E+01  0.92299930580E+01  0.00000000000E+00 0. -1.
</event>
<event>
 7    1  0.2318319E-009  0.4778725E+02  0.7816164E-02  0.1312668E+00
        -11   -1    0    0    0    0  0.00000000000E+00  0.00000000000E+00  0.45593999997E+02  0.45594000000E+02  0.51100000000E-03 0. -1.
         11   -1    0    0    0    0 -0.00000000000E+00 -0.00000000000E+00 -0.45593999997E+02  0.45594000000E+02  0.51100000000E-03 0.  1.
    9900012    2    1    2    0    0 -0.42286444974E+02 -0.94836464146E+01 -0.23542503849E+01  0.47787245713E+02  0.19999884502E+02 0.  0.
         12    1    1    2    0    0  0.42286444974E+02  0.94836464146E+01  0.23542503849E+01  0.43400754287E+02  0.00000000000E+00 0. -1.
         11    1    3    3    0    0 -0.11071601483E+02  0.25904434025E+01  0.33884809529E+01  0.11864761264E+02  0.51100000000E-03 0. -1.
        -11    1    3    3    0    0 -0.69667485900E+01  0.21930747690E+01 -0.17058172254E+01  0.75003316944E+01  0.51100000000E-03 0.  1.
        -12    1    3    3    0    0 -0.24248094901E+02 -0.14267164586E+02 -0.40369141125E+01  0.28422152754E+02  0.00000000000E+00 0.  1.
</event>
<event>
 7    1  0.2318319E-009  0.4778727E+02  0.7816164E-02  0.1312668E+00
        -11   -1    0    0    0    0  0.00000000000E+00  0.00000000000E+00  0.45593999997E+02  0.45594000000E+02  0.51100000000E-03 0. -1.
         11   -1    0    0    0    0 -0.00000000000E+00 -0.00000000000E+00 -0.45593999997E+02  0.45594000000E+02  0.51100000000E-03 0.  1.
    9900012    2    1    2    0    0  0.51419182651E+01 -0.23262914368E+02 -0.36277002086E+02  0.47787269722E+02  0.19999993970E+02 0.  0.
         12    1    1    2    0    0 -0.51419182651E+01  0.23262914368E+02  0.36277002086E+02  0.43400730278E+02  0.00000000000E+00 0. -1.
         11    1    3    3    0    0 -0.16333579100E+01 -0.58042048061E+01 -0.21356873121E+02  0.22191725513E+02  0.51100000000E-03 0. -1.
        -11    1    3    3    0    0  0.42410849745E+01 -0.11314422884E+02 -0.14585940861E+02  0.18940766564E+02  0.51100000000E-03 0.  1.
        -12    1    3    3    0    0  0.25341912006E+01 -0.61442866777E+01 -0.33418810446E+00  0.66547776453E+01  0.00000000000E+00 0.  1.
</event>
<event>
 7    1  0.2318319E-009  0.4778727E+02  0.7816164E-02  0.1312668E+00
        -11   -1    0    0    0    0  0.00000000000E+00  0.00000000000E+00  0.45593999997E+02  0.45594000000E+02  0.51100000000E-03 0.  1.
         11   -1    0    0    0    0 -0.00000000000E+00 -0.00000000000E+00 -0.45593999997E+02  0.45594000000E+02  0.51100000000E-03 0. -1.
    9900012    2    1    2    0    0  0.41180635987E+02  0.12462418019E+01  0.13646443380E+02  0.47787270561E+02  0.19999997796E+02 0.  0.
         12    1    1    2    0    0 -0.41180635987E+02 -0.12462418019E+01 -0.13646443380E+02  0.43400729439E+02  0.00000000000E+00 0. -1.
         11    1    3    3    0    0  0.22267987593E+01  0.34142226346E+01 -0.32184950354E+01  0.51936749482E+01  0.51100000000E-03 0. -1.
        -11    1    3    3    0    0  0.15805268825E+02 -0.81114001004E-01  0.80328018683E+01  0.17729608237E+02  0.51100000000E-03 0.  1.
         12    1    3    3    0    0  0.23148568402E+02 -0.20868668316E+01  0.88321365471E+01  0.24863987376E+02  0.00000000000E+00 0. -1.
</event>
<event>
 7    1  0.2318319E-009  0.4778727E+02  0.7816164E-02  0.1312668E+00
        -11   -1    0    0    0    0  0.00000000000E+00  0.00000000000E+00  0.45593999997E+02  0.45594000000E+02  0.51100000000E-03 0. -1.
         11   -1    0    0    0    0 -0.00000000000E+00 -0.00000000000E+00 -0.45593999997E+02  0.45594000000E+02  0.51100000000E-03 0.  1.
    9900012    2    1    2    0    0 -0.36217376085E+02 -0.44259504496E+01 -0.23501836685E+02  0.47787266188E+02  0.19999977858E+02 0.  0.
         12    1    1    2    0    0  0.36217376085E+02  0.44259504496E+01  0.23501836685E+02  0.43400733812E+02  0.00000000000E+00 0. -1.
         11    1    3    3    0    0 -0.57368171787E+01  0.31629798994E+01 -0.13442054814E+01  0.66874809774E+01  0.51100000000E-03 0. -1.
        -11    1    3    3    0    0 -0.24489608512E+02 -0.25856430316E+00 -0.19386960254E+02  0.31235588816E+02  0.51100000000E-03 0.  1.
        -12    1    3    3    0    0 -0.59909503941E+01 -0.73303660458E+01 -0.27706709500E+01  0.98641963942E+01  0.00000000000E+00 0.  1.
</event>
<event>
 7    1  0.2318319E-009  0.4778727E+02  0.7816164E-02  0.1312668E+00
        -11   -1    0    0    0    0  0.00000000000E+00  0.00000000000E+00  0.45593999997E+02  0.45594000000E+02  0.51100000000E-03 0.  1.
         11   -1    0    0    0    0 -0.00000000000E+00 -0.00000000000E+00 -0.45593999997E+02  0.45594000000E+02  0.51100000000E-03 0. -1.
    9900012    2    1    2    0    0 -0.26318591644E+02 -0.22038745410E+02  0.26556516852E+02  0.47787272441E+02  0.20000006367E+02 0.  0.
         12    1    1    2    0    0  0.26318591644E+02  0.22038745410E+02 -0.26556516852E+02  0.43400727559E+02  0.00000000000E+00 0. -1.
         11    1    3    3    0    0 -0.86843683937E+01 -0.11246783218E+02  0.18939089000E+02  0.23676939827E+02  0.51100000000E-03 0. -1.
        -11    1    3    3    0    0  0.42819180451E+00 -0.26995772014E+01 -0.38714942689E+00  0.27606068586E+01  0.51100000000E-03 0.  1.
        -12    1    3    3    0    0 -0.18062415054E+02 -0.80923849901E+01  0.80045772795E+01  0.21349725756E+02  0.00000000000E+00 0.  1.
</event>
<event>
 7    1  0.2318319E-009  0.4778727E+02  0.7816164E-02  0.1312668E+00
        -11   -1    0    0    0    0  0.00000000000E+00  0.00000000000E+00  0.45593999997E+02  0.45594000000E+02  0.51100000000E-03 0.  1.
         11   -1    0    0    0    0 -0.00000000000E+00 -0.00000000000E+00 -0.45593999997E+02  0.45594000000E+02  0.51100000000E-03 0. -1.
    9900012    2    1    2    0    0  0.27518194202E+02 -0.31417086183E+02  0.11804192402E+02  0.47787271035E+02  0.19999999958E+02 0.  0.
         12    1    1    2    0    0 -0.27518194202E+02  0.31417086183E+02 -0.11804192402E+02  0.43400728965E+02  0.00000000000E+00 0. -1.
         11    1    3    3    0    0  0.95108124719E+01 -0.73874451528E+01 -0.32958301556E+01  0.12485687664E+02  0.51100000000E-03 0. -1.
        -11    1    3    3    0    0  0.14202615226E+02 -0.14399569139E+02  0.49938492095E+01  0.20832676277E+02  0.51100000000E-03 0.  1.
        -12    1    3    3    0    0  0.38047665042E+01 -0.96300718914E+01  0.10106173348E+02  0.14468907095E+02  0.00000000000E+00 0.  1.
</event>
<event>
 7    1  0.2318319E-009  0.4778728E+02  0.7816164E-02  0.1312668E+00
        -11   -1    0    0    0    0  0.00000000000E+00  0.00000000000E+00  0.45593999997E+02  0.45594000000E+02  0.51100000000E-03 0.  1.
         11   -1    0    0    0    0 -0.00000000000E+00 -0.00000000000E+00 -0.45593999997E+02  0.45594000000E+02  0.51100000000E-03 0. -1.
    9900012    2    1    2    0    0  0.11187590788E+02 -0.27179831089E+02  0.31933009522E+02  0.47787279928E+02  0.20000040504E+02 0.  0.
         12    1    1    2    0    0 -0.11187590788E+02  0.27179831089E+02 -0.31933009522E+02  0.43400720072E+02  0.00000000000E+00 0. -1.
         11    1    3    3    0    0  0.88337511999E+01 -0.17505955096E+02  0.17979719187E+02  0.26603832926E+02  0.51100000000E-03 0. -1.
        -11    1    3    3    0    0  0.24852902236E+01 -0.99996743919E+01  0.37362531410E+01  0.10960371492E+02  0.51100000000E-03 0.  1.
         12    1    3    3    0    0 -0.13145063587E+00  0.32579839890E+00  0.10217037194E+02  0.10223075510E+02  0.00000000000E+00 0. -1.
</event>
<event>
 7    1  0.2318319E-009  0.4778727E+02  0.7816164E-02  0.1312668E+00
        -11   -1    0    0    0    0  0.00000000000E+00  0.00000000000E+00  0.45593999997E+02  0.45594000000E+02  0.51100000000E-03 0. -1.
         11   -1    0    0    0    0 -0.00000000000E+00 -0.00000000000E+00 -0.45593999997E+02  0.45594000000E+02  0.51100000000E-03 0.  1.
    9900012    2    1    2    0    0  0.88055297742E+01  0.41742525085E+02  0.79779432810E+01  0.47787270351E+02  0.19999996838E+02 0.  0.
         12    1    1    2    0    0 -0.88055297742E+01 -0.41742525085E+02 -0.79779432810E+01  0.43400729649E+02  0.00000000000E+00 0. -1.
         11    1    3    3    0    0  0.12206005094E+00  0.20630327990E+02  0.26662150123E+01  0.20802260320E+02  0.51100000000E-03 0. -1.
        -11    1    3    3    0    0  0.51903417115E+01  0.17696591770E+02 -0.16106584671E+01  0.18512245361E+02  0.51100000000E-03 0.  1.
         12    1    3    3    0    0  0.34931280117E+01  0.34156053248E+01  0.69223867358E+01  0.84727646705E+01  0.00000000000E+00 0. -1.
</event>
<event>
 7    1  0.2318319E-009  0.4778727E+02  0.7816164E-02  0.1312668E+00
        -11   -1    0    0    0    0  0.00000000000E+00  0.00000000000E+00  0.45593999997E+02  0.45594000000E+02  0.51100000000E-03 0.  1.
         11   -1    0    0    0    0 -0.00000000000E+00 -0.00000000000E+00 -0.45593999997E+02  0.45594000000E+02  0.51100000000E-03 0. -1.
    9900012    2    1    2    0    0  0.24207519704E+02  0.33926523904E+02  0.12108266267E+02  0.47787272513E+02  0.20000006694E+02 0.  0.
         12    1    1    2    0    0 -0.24207519704E+02 -0.33926523904E+02 -0.12108266267E+02  0.43400727487E+02  0.00000000000E+00 0. -1.
         11    1    3    3    0    0  0.16206712310E+01  0.10680072138E+02  0.33056088128E+01  0.11296794501E+02  0.51100000000E-03 0. -1.
        -11    1    3    3    0    0  0.17687941207E+02  0.11167144456E+02  0.28632735348E+00  0.20920094719E+02  0.51100000000E-03 0.  1.
         12    1    3    3    0    0  0.48989072661E+01  0.12079307310E+02  0.85163301003E+01  0.15570383293E+02  0.00000000000E+00 0. -1.
</event>
<event>
 7    1  0.2318319E-009  0.4778727E+02  0.7816164E-02  0.1312668E+00
        -11   -1    0    0    0    0  0.00000000000E+00  0.00000000000E+00  0.45593999997E+02  0.45594000000E+02  0.51100000000E-03 0.  1.
         11   -1    0    0    0    0 -0.00000000000E+00 -0.00000000000E+00 -0.45593999997E+02  0.45594000000E+02  0.51100000000E-03 0. -1.
    9900012    2    1    2    0    0 -0.10718035825E+02 -0.88213534283E+01  0.41120932318E+02  0.47787266793E+02  0.19999980614E+02 0.  0.
         12    1    1    2    0    0  0.10718035825E+02  0.88213534283E+01 -0.41120932318E+02  0.43400733207E+02  0.00000000000E+00 0. -1.
         11    1    3    3    0    0 -0.20278233882E+01 -0.47919653861E+00  0.45828836317E+00  0.21334773262E+01  0.51100000000E-03 0. -1.
        -11    1    3    3    0    0 -0.66391952434E+01  0.26872943768E+01  0.27211817954E+02  0.28138647821E+02  0.51100000000E-03 0.  1.
         12    1    3    3    0    0 -0.20510171930E+01 -0.11029451267E+02  0.13450826001E+02  0.17515141646E+02  0.00000000000E+00 0. -1.
</event>
<event>
 7    1  0.2318319E-009  0.4778728E+02  0.7816164E-02  0.1312668E+00
        -11   -1    0    0    0    0  0.00000000000E+00  0.00000000000E+00  0.45593999997E+02  0.45594000000E+02  0.51100000000E-03 0.  1.
         11   -1    0    0    0    0 -0.00000000000E+00 -0.00000000000E+00 -0.45593999997E+02  0.45594000000E+02  0.51100000000E-03 0. -1.
    9900012    2    1    2    0    0 -0.30437735376E+02  0.18563053112E+02  0.24750358236E+02  0.47787275255E+02  0.20000019195E+02 0.  0.
         12    1    1    2    0    0  0.30437735376E+02 -0.18563053112E+02 -0.24750358236E+02  0.43400724745E+02  0.00000000000E+00 0. -1.
         11    1    3    3    0    0  0.93088044847E+00  0.59891657539E+01  0.90938821184E+00  0.61289176873E+01  0.51100000000E-03 0. -1.
        -11    1    3    3    0    0 -0.80254284922E+01  0.51269443777E+01  0.83845734182E+01  0.12688346338E+02  0.51100000000E-03 0.  1.
         12    1    3    3    0    0 -0.23343187332E+02  0.74469429803E+01  0.15456396605E+02  0.28970011229E+02  0.00000000000E+00 0. -1.
</event>
<event>
 7    1  0.2318319E-009  0.4778728E+02  0.7816164E-02  0.1312668E+00
        -11   -1    0    0    0    0  0.00000000000E+00  0.00000000000E+00  0.45593999997E+02  0.45594000000E+02  0.51100000000E-03 0.  1.
         11   -1    0    0    0    0 -0.00000000000E+00 -0.00000000000E+00 -0.45593999997E+02  0.45594000000E+02  0.51100000000E-03 0. -1.
    9900012    2    1    2    0    0  0.30579273190E+02 -0.27302639847E+02  0.14251193339E+02  0.47787278773E+02  0.20000035237E+02 0.  0.
         12    1    1    2    0    0 -0.30579273190E+02  0.27302639847E+02 -0.14251193339E+02  0.43400721227E+02  0.00000000000E+00 0. -1.
         11    1    3    3    0    0  0.18290310007E+02 -0.12777853437E+02  0.57867815753E+01  0.23049855094E+02  0.51100000000E-03 0. -1.
        -11    1    3    3    0    0  0.13618909900E+02 -0.64684572021E+01  0.53409198216E+01  0.15995032674E+02  0.51100000000E-03 0.  1.
         12    1    3    3    0    0 -0.13299467160E+01 -0.80563292079E+01  0.31234919418E+01  0.87423910050E+01  0.00000000000E+00 0. -1.
</event>
<event>
 7    1  0.2318319E-009  0.4778728E+02  0.7816164E-02  0.1312668E+00
        -11   -1    0    0    0    0  0.00000000000E+00  0.00000000000E+00  0.45593999997E+02  0.45594000000E+02  0.51100000000E-03 0. -1.
         11   -1    0    0    0    0 -0.00000000000E+00 -0.00000000000E+00 -0.45593999997E+02  0.45594000000E+02  0.51100000000E-03 0.  1.
    9900012    2    1    2    0    0  0.25645178839E+02 -0.31404707640E+02 -0.15481989179E+02  0.47787275944E+02  0.20000022338E+02 0.  0.
         12    1    1    2    0    0 -0.25645178839E+02  0.31404707640E+02  0.15481989179E+02  0.43400724056E+02  0.00000000000E+00 0. -1.
         11    1    3    3    0    0  0.21208089325E+01 -0.15003690077E+02 -0.67108951284E+01  0.16572406589E+02  0.51100000000E-03 0. -1.
        -11    1    3    3    0    0  0.10550602231E+02 -0.26490342447E+01 -0.48316292814E+01  0.11902824524E+02  0.51100000000E-03 0.  1.
        -12    1    3    3    0    0  0.12973767676E+02 -0.13751983319E+02 -0.39394647695E+01  0.19312044831E+02  0.00000000000E+00 0.  1.
</event>
<event>
 7    1  0.2318319E-009  0.4778727E+02  0.7816164E-02  0.1312668E+00
        -11   -1    0    0    0    0  0.00000000000E+00  0.00000000000E+00  0.45593999997E+02  0.45594000000E+02  0.51100000000E-03 0.  1.
         11   -1    0    0    0    0 -0.00000000000E+00 -0.00000000000E+00 -0.45593999997E+02  0.45594000000E+02  0.51100000000E-03 0. -1.
    9900012    2    1    2    0    0  0.71784841244E+01  0.15421195158E+02  0.39928425836E+02  0.47787273230E+02  0.20000009964E+02 0.  0.
         12    1    1    2    0    0 -0.71784841244E+01 -0.15421195158E+02 -0.39928425836E+02  0.43400726770E+02  0.00000000000E+00 0. -1.
         11    1    3    3    0    0  0.49590826511E+00  0.97415888618E+01  0.99031563655E+01  0.13900251250E+02  0.51100000000E-03 0. -1.
        -11    1    3    3    0    0  0.39390604889E+01  0.85028497209E+01  0.10961983753E+02  0.14421502660E+02  0.51100000000E-03 0.  1.
        -12    1    3    3    0    0  0.27435153704E+01 -0.28232434249E+01  0.19063285718E+02  0.19465519320E+02  0.00000000000E+00 0.  1.
</event>
<event>
 7    1  0.2318319E-009  0.4778727E+02  0.7816164E-02  0.1312668E+00
        -11   -1    0    0    0    0  0.00000000000E+00  0.00000000000E+00  0.45593999997E+02  0.45594000000E+02  0.51100000000E-03 0.  1.
         11   -1    0    0    0    0 -0.00000000000E+00 -0.00000000000E+00 -0.45593999997E+02  0.45594000000E+02  0.51100000000E-03 0. -1.
    9900012    2    1    2    0    0 -0.35976424260E+02  0.24271487133E+02 -0.46402886481E+00  0.47787268290E+02  0.19999987442E+02 0.  0.
         12    1    1    2    0    0  0.35976424260E+02 -0.24271487133E+02  0.46402886481E+00  0.43400731710E+02  0.00000000000E+00 0. -1.
         11    1    3    3    0    0  0.81333423236E-01  0.49421154927E+01 -0.69887450448E+00  0.49919481672E+01  0.51100000000E-03 0.  1.
        -11    1    3    3    0    0 -0.12021272476E+02  0.86060741278E+01 -0.56471050784E+01  0.15826095534E+02  0.51100000000E-03 0. -1.
        -12    1    3    3    0    0 -0.24036485207E+02  0.10723297512E+02  0.58819507181E+01  0.26969224589E+02  0.00000000000E+00 0.  1.
</event>
<event>
 7    1  0.2318319E-009  0.4778727E+02  0.7816164E-02  0.1312668E+00
        -11   -1    0    0    0    0  0.00000000000E+00  0.00000000000E+00  0.45593999997E+02  0.45594000000E+02  0.51100000000E-03 0.  1.
         11   -1    0    0    0    0 -0.00000000000E+00 -0.00000000000E+00 -0.45593999997E+02  0.45594000000E+02  0.51100000000E-03 0. -1.
    9900012    2    1    2    0    0  0.37980199188E+02 -0.20712648739E+02  0.34805090310E+01  0.47787270844E+02  0.19999999087E+02 0.  0.
         12    1    1    2    0    0 -0.37980199188E+02  0.20712648739E+02 -0.34805090310E+01  0.43400729156E+02  0.00000000000E+00 0. -1.
         11    1    3    3    0    0  0.14450072694E+02  0.22875382608E+00  0.11273276128E+01  0.14495785490E+02  0.51100000000E-03 0. -1.
        -11    1    3    3    0    0  0.93083532948E+01 -0.66671837517E+01  0.58226433774E+01  0.12845230882E+02  0.51100000000E-03 0.  1.
        -12    1    3    3    0    0  0.14221773200E+02 -0.14274218814E+02 -0.34694619592E+01  0.20446254473E+02  0.00000000000E+00 0.  1.
</event>
<event>
 7    1  0.2318319E-009  0.4778726E+02  0.7816164E-02  0.1312668E+00
        -11   -1    0    0    0    0  0.00000000000E+00  0.00000000000E+00  0.45593999997E+02  0.45594000000E+02  0.51100000000E-03 0.  1.
         11   -1    0    0    0    0 -0.00000000000E+00 -0.00000000000E+00 -0.45593999997E+02  0.45594000000E+02  0.51100000000E-03 0. -1.
    9900012    2    1    2    0    0 -0.29696125412E+02 -0.20993199341E+02  0.23686498578E+02  0.47787256943E+02  0.19999935704E+02 0.  0.
         12    1    1    2    0    0  0.29696125412E+02  0.20993199341E+02 -0.23686498578E+02  0.43400743057E+02  0.00000000000E+00 0. -1.
         11    1    3    3    0    0 -0.55525050063E+01 -0.99949351471E+01  0.10325921581E+02  0.15406287587E+02  0.51100000000E-03 0. -1.
        -11    1    3    3    0    0 -0.10037542523E+02 -0.10734574087E+02  0.33264775988E+01  0.15068138379E+02  0.51100000000E-03 0.  1.
         12    1    3    3    0    0 -0.14106077883E+02 -0.26369010662E+00  0.10034099398E+02  0.17312830977E+02  0.00000000000E+00 0. -1.
</event>
<event>
 7    1  0.2318319E-009  0.4778727E+02  0.7816164E-02  0.1312668E+00
        -11   -1    0    0    0    0  0.00000000000E+00  0.00000000000E+00  0.45593999997E+02  0.45594000000E+02  0.51100000000E-03 0. -1.
         11   -1    0    0    0    0 -0.00000000000E+00 -0.00000000000E+00 -0.45593999997E+02  0.45594000000E+02  0.51100000000E-03 0.  1.
    9900012    2    1    2    0    0  0.34823014157E+02 -0.93782647845E+00 -0.25886316429E+02  0.47787271761E+02  0.20000003266E+02 0.  0.
         12    1    1    2    0    0 -0.34823014157E+02  0.93782647845E+00  0.25886316429E+02  0.43400728239E+02  0.00000000000E+00 0. -1.
         11    1    3    3    0    0  0.88411773083E+00 -0.32365118942E+01 -0.18288824598E+01  0.38211889140E+01  0.51100000000E-03 0. -1.
        -11    1    3    3    0    0  0.81443889121E+01 -0.25017167363E+01 -0.22867196914E+00  0.85230246104E+01  0.51100000000E-03 0.  1.
        -12    1    3    3    0    0  0.25794507514E+02  0.48004021521E+01 -0.23828762000E+02  0.35443058236E+02  0.00000000000E+00 0.  1.
</event>
<event>
 7    1  0.2318319E-009  0.4778726E+02  0.7816164E-02  0.1312668E+00
        -11   -1    0    0    0    0  0.00000000000E+00  0.00000000000E+00  0.45593999997E+02  0.45594000000E+02  0.51100000000E-03 0.  1.
         11   -1    0    0    0    0 -0.00000000000E+00 -0.00000000000E+00 -0.45593999997E+02  0.45594000000E+02  0.51100000000E-03 0. -1.
    9900012    2    1    2    0    0 -0.55075261524E+01 -0.42089571024E+02  0.90420771410E+01  0.47787262768E+02  0.19999962262E+02 0.  0.
         12    1    1    2    0    0  0.55075261524E+01  0.42089571024E+02 -0.90420771410E+01  0.43400737232E+02  0.00000000000E+00 0. -1.
         11    1    3    3    0    0 -0.63314328788E+01 -0.85671857469E+01 -0.29702864586E+01  0.11059218590E+02  0.51100000000E-03 0. -1.
        -11    1    3    3    0    0  0.57235506979E+00 -0.15444630458E+02  0.84637441808E+00  0.15478389782E+02  0.51100000000E-03 0.  1.
        -12    1    3    3    0    0  0.25155165666E+00 -0.18077754819E+02  0.11165989182E+02  0.21249654395E+02  0.00000000000E+00 0.  1.
</event>
<event>
 7    1  0.2318319E-009  0.4778727E+02  0.7816164E-02  0.1312668E+00
        -11   -1    0    0    0    0  0.00000000000E+00  0.00000000000E+00  0.45593999997E+02  0.45594000000E+02  0.51100000000E-03 0. -1.
         11   -1    0    0    0    0 -0.00000000000E+00 -0.00000000000E+00 -0.45593999997E+02  0.45594000000E+02  0.51100000000E-03 0.  1.
    9900012    2    1    2    0    0 -0.34845779368E+02  0.83048380022E+01 -0.24503566423E+02  0.47787269114E+02  0.19999991198E+02 0.  0.
         12    1    1    2    0    0  0.34845779368E+02 -0.83048380022E+01  0.24503566423E+02  0.43400730886E+02  0.00000000000E+00 0. -1.
         11    1    3    3    0    0 -0.25974526106E+02  0.80921730398E+01 -0.11515632103E+02  0.29542664977E+02  0.51100000000E-03 0.  1.
        -11    1    3    3    0    0 -0.34019003724E+01 -0.49508413025E+00  0.68145408957E+00  0.35046275661E+01  0.51100000000E-03 0. -1.
        -12    1    3    3    0    0 -0.54693528890E+01  0.70774909269E+00 -0.13669388410E+02  0.14739976571E+02  0.00000000000E+00 0.  1.
</event>
<event>
 7    1  0.2318319E-009  0.4778727E+02  0.7816164E-02  0.1312668E+00
        -11   -1    0    0    0    0  0.00000000000E+00  0.00000000000E+00  0.45593999997E+02  0.45594000000E+02  0.51100000000E-03 0.  1.
         11   -1    0    0    0    0 -0.00000000000E+00 -0.00000000000E+00 -0.45593999997E+02  0.45594000000E+02  0.51100000000E-03 0. -1.
    9900012    2    1    2    0    0  0.16416112118E+02 -0.10347656999E+02  0.38820877828E+02  0.47787270769E+02  0.19999998745E+02 0.  0.
         12    1    1    2    0    0 -0.16416112118E+02  0.10347656999E+02 -0.38820877828E+02  0.43400729231E+02  0.00000000000E+00 0. -1.
         11    1    3    3    0    0  0.28098120477E+01  0.19266582101E+01  0.17738594881E+01  0.38410458662E+01  0.51100000000E-03 0. -1.
        -11    1    3    3    0    0  0.15470934893E+02 -0.52139257890E+01  0.24989951658E+02  0.29850168052E+02  0.51100000000E-03 0.  1.
         12    1    3    3    0    0 -0.18646348226E+01 -0.70603894199E+01  0.12057066682E+02  0.14096056851E+02  0.00000000000E+00 0. -1.
</event>
<event>
 7    1  0.2318319E-009  0.4778727E+02  0.7816164E-02  0.1312668E+00
        -11   -1    0    0    0    0  0.00000000000E+00  0.00000000000E+00  0.45593999997E+02  0.45594000000E+02  0.51100000000E-03 0.  1.
         11   -1    0    0    0    0 -0.00000000000E+00 -0.00000000000E+00 -0.45593999997E+02  0.45594000000E+02  0.51100000000E-03 0. -1.
    9900012    2    1    2    0    0 -0.58545045629E+01  0.35840859108E+02  0.23765112685E+02  0.47787274359E+02  0.20000015111E+02 0.  0.
         12    1    1    2    0    0  0.58545045629E+01 -0.35840859108E+02 -0.23765112685E+02  0.43400725641E+02  0.00000000000E+00 0. -1.
         11    1    3    3    0    0 -0.23579471861E+01  0.16367835666E+02  0.14928061081E+01  0.16604048593E+02  0.51100000000E-03 0. -1.
        -11    1    3    3    0    0  0.40856608103E+00  0.15262715372E+01 -0.73610589346E+00  0.17430671804E+01  0.51100000000E-03 0.  1.
        -12    1    3    3    0    0 -0.39051234579E+01  0.17946751905E+02  0.23008412470E+02  0.29440158585E+02  0.00000000000E+00 0.  1.
</event>
<event>
 7    1  0.2318319E-009  0.4778727E+02  0.7816164E-02  0.1312668E+00
        -11   -1    0    0    0    0  0.00000000000E+00  0.00000000000E+00  0.45593999997E+02  0.45594000000E+02  0.51100000000E-03 0.  1.
         11   -1    0    0    0    0 -0.00000000000E+00 -0.00000000000E+00 -0.45593999997E+02  0.45594000000E+02  0.51100000000E-03 0. -1.
    9900012    2    1    2    0    0 -0.61866085685E+01 -0.36745122743E+02  0.22251852210E+02  0.47787273074E+02  0.20000009252E+02 0.  0.
         12    1    1    2    0    0  0.61866085685E+01  0.36745122743E+02 -0.22251852210E+02  0.43400726926E+02  0.00000000000E+00 0. -1.
         11    1    3    3    0    0  0.38420697862E+01 -0.80986719946E+01  0.58484916116E+01  0.10703029604E+02  0.51100000000E-03 0. -1.
        -11    1    3    3    0    0 -0.57792778889E+01 -0.23964591897E+02  0.18046781975E+02  0.30551400256E+02  0.51100000000E-03 0.  1.
        -12    1    3    3    0    0 -0.42494004658E+01 -0.46818588516E+01 -0.16434213772E+01  0.65328432132E+01  0.00000000000E+00 0.  1.
</event>
<event>
 7    1  0.2318319E-009  0.4778727E+02  0.7816164E-02  0.1312668E+00
        -11   -1    0    0    0    0  0.00000000000E+00  0.00000000000E+00  0.45593999997E+02  0.45594000000E+02  0.51100000000E-03 0. -1.
         11   -1    0    0    0    0 -0.00000000000E+00 -0.00000000000E+00 -0.45593999997E+02  0.45594000000E+02  0.51100000000E-03 0.  1.
    9900012    2    1    2    0    0  0.24586418783E+02  0.29715603762E+02 -0.19902627820E+02  0.47787266254E+02  0.19999978159E+02 0.  0.
         12    1    1    2    0    0 -0.24586418783E+02 -0.29715603762E+02  0.19902627820E+02  0.43400733746E+02  0.00000000000E+00 0. -1.
         11    1    3    3    0    0  0.63424742206E+01  0.14267657435E+01 -0.75203280749E+01  0.99407230291E+01  0.51100000000E-03 0. -1.
        -11    1    3    3    0    0  0.24680676181E+01  0.62538463406E+01 -0.79076450584E+01  0.10379441336E+02  0.51100000000E-03 0.  1.
         12    1    3    3    0    0  0.15775876945E+02  0.22034991678E+02 -0.44746546872E+01  0.27467101889E+02  0.00000000000E+00 0. -1.
</event>
<event>
 7    1  0.2318319E-009  0.4778726E+02  0.7816164E-02  0.1312668E+00
        -11   -1    0    0    0    0  0.00000000000E+00  0.00000000000E+00  0.45593999997E+02  0.45594000000E+02  0.51100000000E-03 0.  1.
         11   -1    0    0    0    0 -0.00000000000E+00 -0.00000000000E+00 -0.45593999997E+02  0.45594000000E+02  0.51100000000E-03 0. -1.
    9900012    2    1    2    0    0 -0.89053207128E+01  0.17497705347E+02  0.38705937647E+02  0.47787262235E+02  0.19999959835E+02 0.  0.
         12    1    1    2    0    0  0.89053207128E+01 -0.17497705347E+02 -0.38705937647E+02  0.43400737765E+02  0.00000000000E+00 0. -1.
         11    1    3    3    0    0 -0.17114431134E+01 -0.10424435370E+01 -0.86363703335E+00  0.21821079819E+01  0.51100000000E-03 0. -1.
        -11    1    3    3    0    0  0.26038036701E+01  0.15221295067E+01  0.46375316617E+01  0.55320314498E+01  0.51100000000E-03 0.  1.
         12    1    3    3    0    0 -0.97976812695E+01  0.17018019377E+02  0.34932043019E+02  0.40073122804E+02  0.00000000000E+00 0. -1.
</event>
<event>
 7    1  0.2318319E-009  0.4778727E+02  0.7816164E-02  0.1312668E+00
        -11   -1    0    0    0    0  0.00000000000E+00  0.00000000000E+00  0.45593999997E+02  0.45594000000E+02  0.51100000000E-03 0. -1.
         11   -1    0    0    0    0 -0.00000000000E+00 -0.00000000000E+00 -0.45593999997E+02  0.45594000000E+02  0.51100000000E-03 0.  1.
    9900012    2    1    2    0    0  0.36246361484E+02 -0.12044462077E+02 -0.20609606380E+02  0.47787266565E+02  0.19999979577E+02 0.  0.
         12    1    1    2    0    0 -0.36246361484E+02  0.12044462077E+02  0.20609606380E+02  0.43400733435E+02  0.00000000000E+00 0. -1.
         11    1    3    3    0    0  0.50612729776E+01  0.28562111504E+01 -0.22877955816E+01  0.62456733163E+01  0.51100000000E-03 0. -1.
        -11    1    3    3    0    0  0.17593394707E+02 -0.15091816027E+02 -0.81744028542E+01  0.24578675932E+02  0.51100000000E-03 0.  1.
         12    1    3    3    0    0  0.13591693800E+02  0.19114279929E+00 -0.10147407944E+02  0.16962917317E+02  0.00000000000E+00 0. -1.
</event>
<event>
 7    1  0.2318319E-009  0.4778727E+02  0.7816164E-02  0.1312668E+00
        -11   -1    0    0    0    0  0.00000000000E+00  0.00000000000E+00  0.45593999997E+02  0.45594000000E+02  0.51100000000E-03 0. -1.
         11   -1    0    0    0    0 -0.00000000000E+00 -0.00000000000E+00 -0.45593999997E+02  0.45594000000E+02  0.51100000000E-03 0.  1.
    9900012    2    1    2    0    0  0.19883451026E+02  0.13044729567E+02 -0.36305737821E+02  0.47787271977E+02  0.20000004252E+02 0.  0.
         12    1    1    2    0    0 -0.19883451026E+02 -0.13044729567E+02  0.36305737821E+02  0.43400728023E+02  0.00000000000E+00 0. -1.
         11    1    3    3    0    0  0.10637648907E+02  0.73814581471E+01 -0.22969213656E+02  0.26367219703E+02  0.51100000000E-03 0. -1.
        -11    1    3    3    0    0  0.18334765334E+01 -0.28905466067E+01 -0.84021394555E+01  0.90726425904E+01  0.51100000000E-03 0.  1.
         12    1    3    3    0    0  0.74123255853E+01  0.85538180269E+01 -0.49343847100E+01  0.12347409683E+02  0.00000000000E+00 0. -1.
</event>
<event>
 7    1  0.2318319E-009  0.4778727E+02  0.7816164E-02  0.1312668E+00
        -11   -1    0    0    0    0  0.00000000000E+00  0.00000000000E+00  0.45593999997E+02  0.45594000000E+02  0.51100000000E-03 0.  1.
         11   -1    0    0    0    0 -0.00000000000E+00 -0.00000000000E+00 -0.45593999997E+02  0.45594000000E+02  0.51100000000E-03 0. -1.
    9900012    2    1    2    0    0  0.71566750961E+01 -0.35241225752E+02  0.24299415865E+02  0.47787267261E+02  0.19999982748E+02 0.  0.
         12    1    1    2    0    0 -0.71566750961E+01  0.35241225752E+02 -0.24299415865E+02  0.43400732739E+02  0.00000000000E+00 0. -1.
         11    1    3    3    0    0  0.27541188632E+01 -0.20970871061E+02  0.12848213859E+02  0.24747509034E+02  0.51100000000E-03 0. -1.
        -11    1    3    3    0    0  0.79090241697E+01 -0.14424866062E+02  0.99210520662E+01  0.19210848461E+02  0.51100000000E-03 0.  1.
         12    1    3    3    0    0 -0.35064679368E+01  0.15451137093E+00  0.15301499397E+01  0.38289097656E+01  0.00000000000E+00 0. -1.
</event>
<event>
 7    1  0.2318319E-009  0.4778728E+02  0.7816164E-02  0.1312668E+00
        -11   -1    0    0    0    0  0.00000000000E+00  0.00000000000E+00  0.45593999997E+02  0.45594000000E+02  0.51100000000E-03 0.  1.
         11   -1    0    0    0    0 -0.00000000000E+00 -0.00000000000E+00 -0.45593999997E+02  0.45594000000E+02  0.51100000000E-03 0. -1.
    9900012    2    1    2    0    0 -0.34948313558E+02 -0.59127905715E-01  0.25733912781E+02  0.47787281299E+02  0.20000046757E+02 0.  0.
         12    1    1    2    0    0  0.34948313558E+02  0.59127905715E-01 -0.25733912781E+02  0.43400718701E+02  0.00000000000E+00 0. -1.
         11    1    3    3    0    0 -0.59624457789E+01  0.12843315587E+01  0.57159441912E+00  0.61259274939E+01  0.51100000000E-03 0. -1.
        -11    1    3    3    0    0 -0.28249112725E+02 -0.44175530146E+01  0.17880495069E+02  0.33722978050E+02  0.51100000000E-03 0.  1.
         12    1    3    3    0    0 -0.73675505455E+00  0.30740935502E+01  0.72818232929E+01  0.79383757555E+01  0.00000000000E+00 0. -1.
</event>
<event>
 7    1  0.2318319E-009  0.4778727E+02  0.7816164E-02  0.1312668E+00
        -11   -1    0    0    0    0  0.00000000000E+00  0.00000000000E+00  0.45593999997E+02  0.45594000000E+02  0.51100000000E-03 0.  1.
         11   -1    0    0    0    0 -0.00000000000E+00 -0.00000000000E+00 -0.45593999997E+02  0.45594000000E+02  0.51100000000E-03 0. -1.
    9900012    2    1    2    0    0  0.25126757449E+02 -0.78433586088E+01  0.34507257136E+02  0.47787274094E+02  0.20000013902E+02 0.  0.
         12    1    1    2    0    0 -0.25126757449E+02  0.78433586088E+01 -0.34507257136E+02  0.43400725906E+02  0.00000000000E+00 0. -1.
         11    1    3    3    0    0  0.95071919942E+01  0.60841536745E+01  0.11942538631E+02  0.16432524297E+02  0.51100000000E-03 0. -1.
        -11    1    3    3    0    0  0.20896166928E+01  0.95602548711E-01  0.35989371070E+01  0.41626897952E+01  0.51100000000E-03 0.  1.
         12    1    3    3    0    0  0.13529948762E+02 -0.14023114832E+02  0.18965781398E+02  0.27192060002E+02  0.00000000000E+00 0. -1.
</event>
<event>
 7    1  0.2318319E-009  0.4778727E+02  0.7816164E-02  0.1312668E+00
        -11   -1    0    0    0    0  0.00000000000E+00  0.00000000000E+00  0.45593999997E+02  0.45594000000E+02  0.51100000000E-03 0.  1.
         11   -1    0    0    0    0 -0.00000000000E+00 -0.00000000000E+00 -0.45593999997E+02  0.45594000000E+02  0.51100000000E-03 0. -1.
    9900012    2    1    2    0    0 -0.25886255772E+02 -0.12531969098E+02  0.32503456013E+02  0.47787272585E+02  0.20000007026E+02 0.  0.
         12    1    1    2    0    0  0.25886255772E+02  0.12531969098E+02 -0.32503456013E+02  0.43400727415E+02  0.00000000000E+00 0. -1.
         11    1    3    3    0    0 -0.20177791911E+00  0.14899460811E+01 -0.34225441994E+00  0.15420090798E+01  0.51100000000E-03 0. -1.
        -11    1    3    3    0    0  0.13549504559E+01 -0.18110782687E+01  0.43069156648E+00  0.23024749119E+01  0.51100000000E-03 0.  1.
        -12    1    3    3    0    0 -0.27039428309E+02 -0.12210836910E+02  0.32415018866E+02  0.43942788594E+02  0.00000000000E+00 0.  1.
</event>
<event>
 7    1  0.2318319E-009  0.4778727E+02  0.7816164E-02  0.1312668E+00
        -11   -1    0    0    0    0  0.00000000000E+00  0.00000000000E+00  0.45593999997E+02  0.45594000000E+02  0.51100000000E-03 0.  1.
         11   -1    0    0    0    0 -0.00000000000E+00 -0.00000000000E+00 -0.45593999997E+02  0.45594000000E+02  0.51100000000E-03 0. -1.
    9900012    2    1    2    0    0 -0.22739445241E+02  0.25147949318E+02  0.27094677995E+02  0.47787270739E+02  0.19999998606E+02 0.  0.
         12    1    1    2    0    0  0.22739445241E+02 -0.25147949318E+02 -0.27094677995E+02  0.43400729261E+02  0.00000000000E+00 0. -1.
         11    1    3    3    0    0 -0.73450398265E+01  0.83238584172E+00  0.28520957420E+01  0.79231891701E+01  0.51100000000E-03 0. -1.
        -11    1    3    3    0    0 -0.60900576551E+01  0.54618977881E+01  0.56608888998E+00  0.82000967422E+01  0.51100000000E-03 0.  1.
        -12    1    3    3    0    0 -0.93043477595E+01  0.18853665688E+02  0.23676493363E+02  0.31663984826E+02  0.00000000000E+00 0.  1.
</event>
<event>
 7    1  0.2318319E-009  0.4778727E+02  0.7816164E-02  0.1312668E+00
        -11   -1    0    0    0    0  0.00000000000E+00  0.00000000000E+00  0.45593999997E+02  0.45594000000E+02  0.51100000000E-03 0. -1.
         11   -1    0    0    0    0 -0.00000000000E+00 -0.00000000000E+00 -0.45593999997E+02  0.45594000000E+02  0.51100000000E-03 0.  1.
    9900012    2    1    2    0    0 -0.22621344940E+02  0.18322394167E+02  0.32189872620E+02  0.47787271041E+02  0.19999999983E+02 0.  0.
         12    1    1    2    0    0  0.22621344940E+02 -0.18322394167E+02 -0.32189872620E+02  0.43400728959E+02  0.00000000000E+00 0. -1.
         11    1    3    3    0    0 -0.49561567729E+01  0.79794838304E+01  0.62656084844E+01  0.11291302055E+02  0.51100000000E-03 0. -1.
        -11    1    3    3    0    0 -0.11175051300E+02  0.13950534413E+02  0.15267355079E+02  0.23507260864E+02  0.51100000000E-03 0.  1.
         12    1    3    3    0    0 -0.64901368663E+01 -0.36076240763E+01  0.10656909057E+02  0.12988708121E+02  0.00000000000E+00 0. -1.
</event>
<event>
 7    1  0.2318319E-009  0.4778727E+02  0.7816164E-02  0.1312668E+00
        -11   -1    0    0    0    0  0.00000000000E+00  0.00000000000E+00  0.45593999997E+02  0.45594000000E+02  0.51100000000E-03 0. -1.
         11   -1    0    0    0    0 -0.00000000000E+00 -0.00000000000E+00 -0.45593999997E+02  0.45594000000E+02  0.51100000000E-03 0.  1.
    9900012    2    1    2    0    0  0.21801301545E+02  0.12693611162E+02  0.35315704216E+02  0.47787268697E+02  0.19999989299E+02 0.  0.
         12    1    1    2    0    0 -0.21801301545E+02 -0.12693611162E+02 -0.35315704216E+02  0.43400731303E+02  0.00000000000E+00 0. -1.
         11    1    3    3    0    0  0.42102371842E+01  0.77638479752E+01  0.58951923639E+01  0.10618696992E+02  0.51100000000E-03 0. -1.
        -11    1    3    3    0    0  0.11905664340E+02  0.93240447299E+01  0.23037115014E+02  0.27557055756E+02  0.51100000000E-03 0.  1.
        -12    1    3    3    0    0  0.56854000200E+01 -0.43942815431E+01  0.63833968379E+01  0.96115159500E+01  0.00000000000E+00 0.  1.
</event>
<event>
 7    1  0.2318319E-009  0.4778726E+02  0.7816164E-02  0.1312668E+00
        -11   -1    0    0    0    0  0.00000000000E+00  0.00000000000E+00  0.45593999997E+02  0.45594000000E+02  0.51100000000E-03 0.  1.
         11   -1    0    0    0    0 -0.00000000000E+00 -0.00000000000E+00 -0.45593999997E+02  0.45594000000E+02  0.51100000000E-03 0. -1.
    9900012    2    1    2    0    0 -0.59770217113E+00  0.19288499385E+02  0.38874419237E+02  0.47787263516E+02  0.19999965673E+02 0.  0.
         12    1    1    2    0    0  0.59770217113E+00 -0.19288499385E+02 -0.38874419237E+02  0.43400736484E+02  0.00000000000E+00 0. -1.
         11    1    3    3    0    0  0.36699631769E+01  0.14102398230E+02  0.29347025240E+02  0.32765746692E+02  0.51100000000E-03 0. -1.
        -11    1    3    3    0    0 -0.29789664203E+01  0.76513562931E+01  0.90135574788E+01  0.12192690956E+02  0.51100000000E-03 0.  1.
        -12    1    3    3    0    0 -0.12886989278E+01 -0.24652551388E+01  0.51383651797E+00  0.28288258683E+01  0.00000000000E+00 0.  1.
</event>
<event>
 7    1  0.2318319E-009  0.4778727E+02  0.7816164E-02  0.1312668E+00
        -11   -1    0    0    0    0  0.00000000000E+00  0.00000000000E+00  0.45593999997E+02  0.45594000000E+02  0.51100000000E-03 0. -1.
         11   -1    0    0    0    0 -0.00000000000E+00 -0.00000000000E+00 -0.45593999997E+02  0.45594000000E+02  0.51100000000E-03 0.  1.
    9900012    2    1    2    0    0  0.11818768208E+02 -0.38786585153E+02 -0.15477105752E+02  0.47787271063E+02  0.20000000084E+02 0.  0.
         12    1    1    2    0    0 -0.11818768208E+02  0.38786585153E+02  0.15477105752E+02  0.43400728937E+02  0.00000000000E+00 0. -1.
         11    1    3    3    0    0 -0.13854893978E+01  0.36517711163E+00  0.17730137940E+01  0.22795862276E+01  0.51100000000E-03 0. -1.
        -11    1    3    3    0    0  0.74995404290E+00 -0.53007674290E+00  0.68018615018E+00  0.11428323936E+01  0.51100000000E-03 0.  1.
        -12    1    3    3    0    0  0.12454303563E+02 -0.38621685522E+02 -0.17930305696E+02  0.44364852442E+02  0.00000000000E+00 0.  1.
</event>
<event>
 7    1  0.2318319E-009  0.4778731E+02  0.7816164E-02  0.1312668E+00
        -11   -1    0    0    0    0  0.00000000000E+00  0.00000000000E+00  0.45593999997E+02  0.45594000000E+02  0.51100000000E-03 0.  1.
         11   -1    0    0    0    0 -0.00000000000E+00 -0.00000000000E+00 -0.45593999997E+02  0.45594000000E+02  0.51100000000E-03 0. -1.
    9900012    2    1    2    0    0  0.41011103350E+01 -0.71521504330E+01  0.42610418689E+02  0.47787307117E+02  0.20000164471E+02 0.  0.
         12    1    1    2    0    0 -0.41011103350E+01  0.71521504330E+01 -0.42610418689E+02  0.43400692883E+02  0.00000000000E+00 0. -1.
         11    1    3    3    0    0  0.67792409977E+01 -0.27727583875E+01  0.18761109914E+02  0.20140147542E+02  0.51100000000E-03 0. -1.
        -11    1    3    3    0    0  0.54099205047E-01  0.40724458284E+01  0.13013660163E+02  0.13636095220E+02  0.51100000000E-03 0.  1.
         12    1    3    3    0    0 -0.27322298678E+01 -0.84518378740E+01  0.10835648613E+02  0.14011064355E+02  0.00000000000E+00 0. -1.
</event>
<event>
 7    1  0.2318319E-009  0.4778731E+02  0.7816164E-02  0.1312668E+00
        -11   -1    0    0    0    0  0.00000000000E+00  0.00000000000E+00  0.45593999997E+02  0.45594000000E+02  0.51100000000E-03 0.  1.
         11   -1    0    0    0    0 -0.00000000000E+00 -0.00000000000E+00 -0.45593999997E+02  0.45594000000E+02  0.51100000000E-03 0. -1.
    9900012    2    1    2    0    0  0.30360329203E+02  0.29262249233E+02  0.10275742036E+02  0.47787312288E+02  0.20000188045E+02 0.  0.
         12    1    1    2    0    0 -0.30360329203E+02 -0.29262249233E+02 -0.10275742036E+02  0.43400687712E+02  0.00000000000E+00 0. -1.
         11    1    3    3    0    0  0.12695784948E+02  0.80392851656E+01  0.72161883884E+01  0.16669926110E+02  0.51100000000E-03 0. -1.
        -11    1    3    3    0    0  0.84511125186E+01  0.15297940030E+02  0.78530545555E+01  0.19160342849E+02  0.51100000000E-03 0.  1.
         12    1    3    3    0    0  0.92134317372E+01  0.59250240370E+01 -0.47935009082E+01  0.11957043329E+02  0.00000000000E+00 0. -1.
</event>
<event>
 7    1  0.2318319E-009  0.4778727E+02  0.7816164E-02  0.1312668E+00
        -11   -1    0    0    0    0  0.00000000000E+00  0.00000000000E+00  0.45593999997E+02  0.45594000000E+02  0.51100000000E-03 0.  1.
         11   -1    0    0    0    0 -0.00000000000E+00 -0.00000000000E+00 -0.45593999997E+02  0.45594000000E+02  0.51100000000E-03 0. -1.
    9900012    2    1    2    0    0 -0.26425626872E+02  0.16903501733E+02  0.29993013364E+02  0.47787274464E+02  0.20000015591E+02 0.  0.
         12    1    1    2    0    0  0.26425626872E+02 -0.16903501733E+02 -0.29993013364E+02  0.43400725536E+02  0.00000000000E+00 0. -1.
         11    1    3    3    0    0 -0.16071942795E+02  0.40195721898E+01  0.15041587439E+02  0.22376631979E+02  0.51100000000E-03 0. -1.
        -11    1    3    3    0    0 -0.57865689613E+01  0.60220282392E+01  0.14999327851E+02  0.17167674295E+02  0.51100000000E-03 0.  1.
         12    1    3    3    0    0 -0.45671151154E+01  0.68619013037E+01 -0.47901925678E-01  0.82429681895E+01  0.00000000000E+00 0. -1.
</event>
<event>
 7    1  0.2318319E-009  0.4778727E+02  0.7816164E-02  0.1312668E+00
        -11   -1    0    0    0    0  0.00000000000E+00  0.00000000000E+00  0.45593999997E+02  0.45594000000E+02  0.51100000000E-03 0.  1.
         11   -1    0    0    0    0 -0.00000000000E+00 -0.00000000000E+00 -0.45593999997E+02  0.45594000000E+02  0.51100000000E-03 0. -1.
    9900012    2    1    2    0    0 -0.86061150022E+01  0.17634092599E+02  0.38711714486E+02  0.47787271024E+02  0.19999999906E+02 0.  0.
         12    1    1    2    0    0  0.86061150022E+01 -0.17634092599E+02 -0.38711714486E+02  0.43400728976E+02  0.00000000000E+00 0. -1.
         11    1    3    3    0    0 -0.28438417096E+01 -0.59729644252E+00  0.35009547108E+01  0.45498222886E+01  0.51100000000E-03 0.  1.
        -11    1    3    3    0    0 -0.74289934078E+01  0.15560786285E+02  0.15217383608E+02  0.22997755912E+02  0.51100000000E-03 0. -1.
        -12    1    3    3    0    0  0.16667201152E+01  0.26706027565E+01  0.19993376167E+02  0.20239692823E+02  0.00000000000E+00 0.  1.
</event>
<event>
 7    1  0.2318319E-009  0.4778728E+02  0.7816164E-02  0.1312668E+00
        -11   -1    0    0    0    0  0.00000000000E+00  0.00000000000E+00  0.45593999997E+02  0.45594000000E+02  0.51100000000E-03 0. -1.
         11   -1    0    0    0    0 -0.00000000000E+00 -0.00000000000E+00 -0.45593999997E+02  0.45594000000E+02  0.51100000000E-03 0.  1.
    9900012    2    1    2    0    0  0.33661516160E+01  0.32769028221E+02 -0.28257432880E+02  0.47787277653E+02  0.20000030130E+02 0.  0.
         12    1    1    2    0    0 -0.33661516160E+01 -0.32769028221E+02  0.28257432880E+02  0.43400722347E+02  0.00000000000E+00 0. -1.
         11    1    3    3    0    0  0.11822062620E+00  0.95829280773E+01 -0.99241313125E+01  0.13796190388E+02  0.51100000000E-03 0.  1.
        -11    1    3    3    0    0  0.20819980098E+01  0.18348400051E+02 -0.41039286569E+01  0.18916678642E+02  0.51100000000E-03 0. -1.
        -12    1    3    3    0    0  0.11659329799E+01  0.48377000929E+01 -0.14229372911E+02  0.15074408623E+02  0.00000000000E+00 0.  1.
</event>
<event>
 7    1  0.2318319E-009  0.4778726E+02  0.7816164E-02  0.1312668E+00
        -11   -1    0    0    0    0  0.00000000000E+00  0.00000000000E+00  0.45593999997E+02  0.45594000000E+02  0.51100000000E-03 0.  1.
         11   -1    0    0    0    0 -0.00000000000E+00 -0.00000000000E+00 -0.45593999997E+02  0.45594000000E+02  0.51100000000E-03 0. -1.
    9900012    2    1    2    0    0  0.88802158960E+01  0.20089612614E+02  0.37432256927E+02  0.47787255444E+02  0.19999928873E+02 0.  0.
         12    1    1    2    0    0 -0.88802158960E+01 -0.20089612614E+02 -0.37432256927E+02  0.43400744556E+02  0.00000000000E+00 0. -1.
         11    1    3    3    0    0  0.11230965605E+01  0.73187569891E+01  0.37124365530E+01  0.82829786413E+01  0.51100000000E-03 0. -1.
        -11    1    3    3    0    0 -0.46103613839E+00  0.12230413831E+02  0.18162309168E+02  0.21901256845E+02  0.51100000000E-03 0.  1.
        -12    1    3    3    0    0  0.82181554739E+01  0.54044179320E+00  0.15557511206E+02  0.17603019958E+02  0.00000000000E+00 0.  1.
</event>
<event>
 7    1  0.2318319E-009  0.4778727E+02  0.7816164E-02  0.1312668E+00
        -11   -1    0    0    0    0  0.00000000000E+00  0.00000000000E+00  0.45593999997E+02  0.45594000000E+02  0.51100000000E-03 0. -1.
         11   -1    0    0    0    0 -0.00000000000E+00 -0.00000000000E+00 -0.45593999997E+02  0.45594000000E+02  0.51100000000E-03 0.  1.
    9900012    2    1    2    0    0  0.36861595939E+02 -0.21047621882E+02  0.90467582902E+01  0.47787268698E+02  0.19999989299E+02 0.  0.
         12    1    1    2    0    0 -0.36861595939E+02  0.21047621882E+02 -0.90467582902E+01  0.43400731302E+02  0.00000000000E+00 0. -1.
         11    1    3    3    0    0  0.31432009666E+02 -0.13521240328E+02  0.14004605360E+02  0.36971937239E+02  0.51100000000E-03 0. -1.
        -11    1    3    3    0    0  0.30983450035E+01 -0.31769438234E+01 -0.11556815238E+01  0.45856639501E+01  0.51100000000E-03 0.  1.
         12    1    3    3    0    0  0.23312412692E+01 -0.43494377303E+01 -0.38021655461E+01  0.62296675084E+01  0.00000000000E+00 0. -1.
</event>
<event>
 7    1  0.2318319E-009  0.4778728E+02  0.7816164E-02  0.1312668E+00
        -11   -1    0    0    0    0  0.00000000000E+00  0.00000000000E+00  0.45593999997E+02  0.45594000000E+02  0.51100000000E-03 0. -1.
         11   -1    0    0    0    0 -0.00000000000E+00 -0.00000000000E+00 -0.45593999997E+02  0.45594000000E+02  0.51100000000E-03 0.  1.
    9900012    2    1    2    0    0 -0.18289467296E+01 -0.41222089849E+02 -0.13454239350E+02  0.47787282331E+02  0.20000051462E+02 0.  0.
         12    1    1    2    0    0  0.18289467296E+01  0.41222089849E+02  0.13454239350E+02  0.43400717669E+02  0.00000000000E+00 0. -1.
         11    1    3    3    0    0  0.20296568222E+01 -0.44053512315E+00  0.22117200568E+00  0.20886587390E+01  0.51100000000E-03 0. -1.
        -11    1    3    3    0    0 -0.16423326926E+01  0.85046394049E+00 -0.96330970394E-01  0.18519788077E+01  0.51100000000E-03 0.  1.
        -12    1    3    3    0    0 -0.22162708593E+01 -0.41632018667E+02 -0.13579080385E+02  0.43846644785E+02  0.00000000000E+00 0.  1.
</event>
<event>
 7    1  0.2318319E-009  0.4778727E+02  0.7816164E-02  0.1312668E+00
        -11   -1    0    0    0    0  0.00000000000E+00  0.00000000000E+00  0.45593999997E+02  0.45594000000E+02  0.51100000000E-03 0.  1.
         11   -1    0    0    0    0 -0.00000000000E+00 -0.00000000000E+00 -0.45593999997E+02  0.45594000000E+02  0.51100000000E-03 0. -1.
    9900012    2    1    2    0    0  0.25436805770E+02  0.63195878640E+01  0.34592701568E+02  0.47787270970E+02  0.19999999660E+02 0.  0.
         12    1    1    2    0    0 -0.25436805770E+02 -0.63195878640E+01 -0.34592701568E+02  0.43400729030E+02  0.00000000000E+00 0. -1.
         11    1    3    3    0    0  0.13169370220E+02  0.14733288671E+01  0.19621855575E+02  0.23677420180E+02  0.51100000000E-03 0. -1.
        -11    1    3    3    0    0 -0.54355101077E+00 -0.18195131998E+00  0.91485859690E+01  0.91665249401E+01  0.51100000000E-03 0.  1.
         12    1    3    3    0    0  0.12810986561E+02  0.50282103169E+01  0.58222600246E+01  0.14943325850E+02  0.00000000000E+00 0. -1.
</event>
<event>
 7    1  0.2318319E-009  0.4778729E+02  0.7816164E-02  0.1312668E+00
        -11   -1    0    0    0    0  0.00000000000E+00  0.00000000000E+00  0.45593999997E+02  0.45594000000E+02  0.51100000000E-03 0.  1.
         11   -1    0    0    0    0 -0.00000000000E+00 -0.00000000000E+00 -0.45593999997E+02  0.45594000000E+02  0.51100000000E-03 0. -1.
    9900012    2    1    2    0    0  0.82100618903E+00  0.24236304301E+02  0.35993742739E+02  0.47787285562E+02  0.20000066191E+02 0.  0.
         12    1    1    2    0    0 -0.82100618903E+00 -0.24236304301E+02 -0.35993742739E+02  0.43400714438E+02  0.00000000000E+00 0. -1.
         11    1    3    3    0    0 -0.37674880967E+01  0.16315283944E+02  0.33916322002E+02  0.37824586649E+02  0.51100000000E-03 0.  1.
        -11    1    3    3    0    0  0.23675618635E+01  0.69081367881E+01  0.15783574628E+01  0.74712057663E+01  0.51100000000E-03 0. -1.
        -12    1    3    3    0    0  0.22209324223E+01  0.10128835689E+01  0.49906327418E+00  0.24914931467E+01  0.00000000000E+00 0.  1.
</event>
<event>
 7    1  0.3292342E-009  0.4778730E+02  0.7816164E-02  0.1312668E+00
        -11   -1    0    0    0    0  0.00000000000E+00  0.00000000000E+00  0.45593999997E+02  0.45594000000E+02  0.51100000000E-03 0. -1.
         11   -1    0    0    0    0 -0.00000000000E+00 -0.00000000000E+00 -0.45593999997E+02  0.45594000000E+02  0.51100000000E-03 0.  1.
    9900012    2    1    2    0    0 -0.17901502848E+02 -0.93306534472E+01 -0.38419990717E+02  0.47787302025E+02  0.20000141254E+02 0.  0.
         12    1    1    2    0    0  0.17901502848E+02  0.93306534472E+01  0.38419990717E+02  0.43400697975E+02  0.00000000000E+00 0. -1.
         11    1    3    3    0    0  0.95807385992E+00  0.67463453288E+00 -0.85340828277E+01  0.86141515685E+01  0.51100000000E-03 0. -1.
        -11    1    3    3    0    0 -0.95707581272E+01 -0.76470401542E+01 -0.26168230034E+02  0.28893821098E+02  0.51100000000E-03 0.  1.
         12    1    3    3    0    0 -0.92888185810E+01 -0.23582478258E+01 -0.37176778551E+01  0.10279329359E+02  0.00000000000E+00 0. -1.
</event>
<event>
 7    1  0.2318319E-009  0.4778727E+02  0.7816164E-02  0.1312668E+00
        -11   -1    0    0    0    0  0.00000000000E+00  0.00000000000E+00  0.45593999997E+02  0.45594000000E+02  0.51100000000E-03 0. -1.
         11   -1    0    0    0    0 -0.00000000000E+00 -0.00000000000E+00 -0.45593999997E+02  0.45594000000E+02  0.51100000000E-03 0.  1.
    9900012    2    1    2    0    0  0.39197286875E+02  0.27810842003E+01 -0.18424486604E+02  0.47787269197E+02  0.19999991575E+02 0.  0.
         12    1    1    2    0    0 -0.39197286875E+02 -0.27810842003E+01  0.18424486604E+02  0.43400730803E+02  0.00000000000E+00 0. -1.
         11    1    3    3    0    0  0.28482147565E+01  0.45459213520E+01 -0.21518785213E+01  0.57799921859E+01  0.51100000000E-03 0. -1.
        -11    1    3    3    0    0 -0.48842889831E+00  0.68450743065E+00 -0.24421849613E+01  0.25829016353E+01  0.51100000000E-03 0.  1.
        -12    1    3    3    0    0  0.36837501016E+02 -0.24493445824E+01 -0.13830423121E+02  0.39424375375E+02  0.00000000000E+00 0.  1.
</event>
<event>
 7    1  0.2318319E-009  0.4778727E+02  0.7816164E-02  0.1312668E+00
        -11   -1    0    0    0    0  0.00000000000E+00  0.00000000000E+00  0.45593999997E+02  0.45594000000E+02  0.51100000000E-03 0. -1.
         11   -1    0    0    0    0 -0.00000000000E+00 -0.00000000000E+00 -0.45593999997E+02  0.45594000000E+02  0.51100000000E-03 0.  1.
    9900012    2    1    2    0    0  0.36251923711E+02 -0.80627180840E+01 -0.22459165419E+02  0.47787268359E+02  0.19999987757E+02 0.  0.
         12    1    1    2    0    0 -0.36251923711E+02  0.80627180840E+01  0.22459165419E+02  0.43400731641E+02  0.00000000000E+00 0. -1.
         11    1    3    3    0    0  0.11340518502E+02 -0.33618116114E+01 -0.55587914963E+01  0.13069403214E+02  0.51100000000E-03 0. -1.
        -11    1    3    3    0    0  0.16974912093E+02 -0.10069308586E+02 -0.70029940937E+01  0.20942314641E+02  0.51100000000E-03 0.  1.
         12    1    3    3    0    0  0.79364931157E+01  0.53684021138E+01 -0.98973798285E+01  0.13775550504E+02  0.00000000000E+00 0. -1.
</event>
<event>
 7    1  0.2318319E-009  0.4778727E+02  0.7816164E-02  0.1312668E+00
        -11   -1    0    0    0    0  0.00000000000E+00  0.00000000000E+00  0.45593999997E+02  0.45594000000E+02  0.51100000000E-03 0.  1.
         11   -1    0    0    0    0 -0.00000000000E+00 -0.00000000000E+00 -0.45593999997E+02  0.45594000000E+02  0.51100000000E-03 0. -1.
    9900012    2    1    2    0    0  0.42236568334E+01 -0.34921550345E+02  0.25421827875E+02  0.47787270881E+02  0.19999999257E+02 0.  0.
         12    1    1    2    0    0 -0.42236568334E+01  0.34921550345E+02 -0.25421827875E+02  0.43400729119E+02  0.00000000000E+00 0. -1.
         11    1    3    3    0    0 -0.10540712364E+01  0.72129228748E+00 -0.91698894031E-01  0.12805224261E+01  0.51100000000E-03 0. -1.
        -11    1    3    3    0    0  0.93377233621E+00  0.12897809642E+01  0.42576196784E+00  0.16482533864E+01  0.51100000000E-03 0.  1.
        -12    1    3    3    0    0  0.43439557336E+01 -0.36932623597E+02  0.25087764801E+02  0.44858495069E+02  0.00000000000E+00 0.  1.
</event>
<event>
 7    1  0.2318319E-009  0.4778727E+02  0.7816164E-02  0.1312668E+00
        -11   -1    0    0    0    0  0.00000000000E+00  0.00000000000E+00  0.45593999997E+02  0.45594000000E+02  0.51100000000E-03 0. -1.
         11   -1    0    0    0    0 -0.00000000000E+00 -0.00000000000E+00 -0.45593999997E+02  0.45594000000E+02  0.51100000000E-03 0.  1.
    9900012    2    1    2    0    0 -0.33897685823E+02  0.52907888035E+01 -0.26581530706E+02  0.47787270455E+02  0.19999997314E+02 0.  0.
         12    1    1    2    0    0  0.33897685823E+02 -0.52907888035E+01  0.26581530706E+02  0.43400729545E+02  0.00000000000E+00 0. -1.
         11    1    3    3    0    0 -0.24993292947E+02  0.28485928156E+01 -0.16559151262E+02  0.30116186083E+02  0.51100000000E-03 0. -1.
        -11    1    3    3    0    0 -0.80900634268E+01 -0.44211484581E-01 -0.11943178175E+02  0.14425345268E+02  0.51100000000E-03 0.  1.
         12    1    3    3    0    0 -0.81432944896E+00  0.24864074725E+01  0.19207987314E+01  0.32457391049E+01  0.00000000000E+00 0. -1.
</event>
<event>
 7    1  0.2318319E-009  0.4778728E+02  0.7816164E-02  0.1312668E+00
        -11   -1    0    0    0    0  0.00000000000E+00  0.00000000000E+00  0.45593999997E+02  0.45594000000E+02  0.51100000000E-03 0.  1.
         11   -1    0    0    0    0 -0.00000000000E+00 -0.00000000000E+00 -0.45593999997E+02  0.45594000000E+02  0.51100000000E-03 0. -1.
    9900012    2    1    2    0    0 -0.36839660581E+02  0.65086831838E+01  0.22002255587E+02  0.47787276510E+02  0.20000024918E+02 0.  0.
         12    1    1    2    0    0  0.36839660581E+02 -0.65086831838E+01 -0.22002255587E+02  0.43400723490E+02  0.00000000000E+00 0. -1.
         11    1    3    3    0    0 -0.25460425151E+02  0.99033188929E+01  0.68406788976E+01  0.28162099745E+02  0.51100000000E-03 0. -1.
        -11    1    3    3    0    0 -0.45259369274E+01 -0.21011751003E+01  0.37137899662E+01  0.62202313499E+01  0.51100000000E-03 0.  1.
         12    1    3    3    0    0 -0.68532985028E+01 -0.12934606089E+01  0.11447786724E+02  0.13404945415E+02  0.00000000000E+00 0. -1.
</event>
<event>
 7    1  0.2318319E-009  0.4778726E+02  0.7816164E-02  0.1312668E+00
        -11   -1    0    0    0    0  0.00000000000E+00  0.00000000000E+00  0.45593999997E+02  0.45594000000E+02  0.51100000000E-03 0. -1.
         11   -1    0    0    0    0 -0.00000000000E+00 -0.00000000000E+00 -0.45593999997E+02  0.45594000000E+02  0.51100000000E-03 0.  1.
    9900012    2    1    2    0    0  0.40475972930E+01  0.41601738830E+02 -0.11684890008E+02  0.47787258393E+02  0.19999942319E+02 0.  0.
         12    1    1    2    0    0 -0.40475972930E+01 -0.41601738830E+02  0.11684890008E+02  0.43400741607E+02  0.00000000000E+00 0. -1.
         11    1    3    3    0    0 -0.11933067374E+00 -0.35943088550E+00 -0.19220213099E+01  0.19589784450E+01  0.51100000000E-03 0. -1.
        -11    1    3    3    0    0  0.81904421537E+01  0.12447120152E+02 -0.18988755880E+01  0.15020648172E+02  0.51100000000E-03 0.  1.
        -12    1    3    3    0    0 -0.40235141869E+01  0.29514049563E+02 -0.78639931104E+01  0.30807631776E+02  0.00000000000E+00 0.  1.
</event>
<event>
 7    1  0.2318319E-009  0.4778727E+02  0.7816164E-02  0.1312668E+00
        -11   -1    0    0    0    0  0.00000000000E+00  0.00000000000E+00  0.45593999997E+02  0.45594000000E+02  0.51100000000E-03 0.  1.
         11   -1    0    0    0    0 -0.00000000000E+00 -0.00000000000E+00 -0.45593999997E+02  0.45594000000E+02  0.51100000000E-03 0. -1.
    9900012    2    1    2    0    0 -0.31298944234E+02  0.10040535062E+02  0.28340555824E+02  0.47787270065E+02  0.19999995535E+02 0.  0.
         12    1    1    2    0    0  0.31298944234E+02 -0.10040535062E+02 -0.28340555824E+02  0.43400729935E+02  0.00000000000E+00 0. -1.
         11    1    3    3    0    0 -0.17342978206E+01 -0.21999274082E+01  0.62739562387E-01  0.28020360536E+01  0.51100000000E-03 0. -1.
        -11    1    3    3    0    0 -0.14201845243E+02  0.31167073768E+01  0.21329783826E+02  0.25814064994E+02  0.51100000000E-03 0.  1.
        -12    1    3    3    0    0 -0.15362801170E+02  0.91237550935E+01  0.69480324358E+01  0.19171169018E+02  0.00000000000E+00 0.  1.
</event>
<event>
 7    1  0.2318319E-009  0.4778727E+02  0.7816164E-02  0.1312668E+00
        -11   -1    0    0    0    0  0.00000000000E+00  0.00000000000E+00  0.45593999997E+02  0.45594000000E+02  0.51100000000E-03 0.  1.
         11   -1    0    0    0    0 -0.00000000000E+00 -0.00000000000E+00 -0.45593999997E+02  0.45594000000E+02  0.51100000000E-03 0. -1.
    9900012    2    1    2    0    0 -0.17583373403E+02 -0.26535194623E+02  0.29501388385E+02  0.47787268548E+02  0.19999988618E+02 0.  0.
         12    1    1    2    0    0  0.17583373403E+02  0.26535194623E+02 -0.29501388385E+02  0.43400731452E+02  0.00000000000E+00 0. -1.
         11    1    3    3    0    0 -0.14174023768E+01  0.28826132582E+01  0.16578500155E+01  0.36148244258E+01  0.51100000000E-03 0. -1.
        -11    1    3    3    0    0 -0.39775981868E+01 -0.66966968128E+01  0.10600035060E+02  0.13154002397E+02  0.51100000000E-03 0.  1.
         12    1    3    3    0    0 -0.12188372840E+02 -0.22721111069E+02  0.17243503309E+02  0.31018441725E+02  0.00000000000E+00 0. -1.
</event>
<event>
 7    1  0.2318319E-009  0.4778727E+02  0.7816164E-02  0.1312668E+00
        -11   -1    0    0    0    0  0.00000000000E+00  0.00000000000E+00  0.45593999997E+02  0.45594000000E+02  0.51100000000E-03 0.  1.
         11   -1    0    0    0    0 -0.00000000000E+00 -0.00000000000E+00 -0.45593999997E+02  0.45594000000E+02  0.51100000000E-03 0. -1.
    9900012    2    1    2    0    0 -0.19852560997E+01  0.20789669012E+02  0.38045650231E+02  0.47787273267E+02  0.20000010133E+02 0.  0.
         12    1    1    2    0    0  0.19852560997E+01 -0.20789669012E+02 -0.38045650231E+02  0.43400726733E+02  0.00000000000E+00 0. -1.
         11    1    3    3    0    0  0.10101714904E+01  0.74418928242E+00  0.34403812835E+01  0.36620332829E+01  0.51100000000E-03 0. -1.
        -11    1    3    3    0    0  0.35745618742E+01  0.20459242260E+02  0.25453135155E+02  0.32851486663E+02  0.51100000000E-03 0.  1.
         12    1    3    3    0    0 -0.65699894643E+01 -0.41376253015E+00  0.91521337927E+01  0.11273753321E+02  0.00000000000E+00 0. -1.
</event>
<event>
 7    1  0.2318319E-009  0.4778727E+02  0.7816164E-02  0.1312668E+00
        -11   -1    0    0    0    0  0.00000000000E+00  0.00000000000E+00  0.45593999997E+02  0.45594000000E+02  0.51100000000E-03 0. -1.
         11   -1    0    0    0    0 -0.00000000000E+00 -0.00000000000E+00 -0.45593999997E+02  0.45594000000E+02  0.51100000000E-03 0.  1.
    9900012    2    1    2    0    0 -0.42403344893E+02  0.29194595224E+01  0.87781834952E+01  0.47787269505E+02  0.19999992980E+02 0.  0.
         12    1    1    2    0    0  0.42403344893E+02 -0.29194595224E+01 -0.87781834952E+01  0.43400730495E+02  0.00000000000E+00 0. -1.
         11    1    3    3    0    0 -0.83109038349E+00  0.71429426481E+00 -0.10558116960E+01  0.15217312906E+01  0.51100000000E-03 0. -1.
        -11    1    3    3    0    0 -0.28515795129E+02  0.40390663431E-01 -0.18987518951E+01  0.28578968880E+02  0.51100000000E-03 0.  1.
         12    1    3    3    0    0 -0.13056459381E+02  0.21647745942E+01  0.11732747086E+02  0.17686569334E+02  0.00000000000E+00 0. -1.
</event>
<event>
 7    1  0.2318319E-009  0.4778727E+02  0.7816164E-02  0.1312668E+00
        -11   -1    0    0    0    0  0.00000000000E+00  0.00000000000E+00  0.45593999997E+02  0.45594000000E+02  0.51100000000E-03 0.  1.
         11   -1    0    0    0    0 -0.00000000000E+00 -0.00000000000E+00 -0.45593999997E+02  0.45594000000E+02  0.51100000000E-03 0. -1.
    9900012    2    1    2    0    0  0.10628587815E+02  0.57928815080E+01  0.41678522276E+02  0.47787267585E+02  0.19999984226E+02 0.  0.
         12    1    1    2    0    0 -0.10628587815E+02 -0.57928815080E+01 -0.41678522276E+02  0.43400732415E+02  0.00000000000E+00 0. -1.
         11    1    3    3    0    0  0.21879954400E+01  0.53102051298E+01  0.73026455985E+01  0.92905454934E+01  0.51100000000E-03 0. -1.
        -11    1    3    3    0    0  0.10999153984E+02  0.43037154667E+01  0.18337288515E+02  0.21811912010E+02  0.51100000000E-03 0.  1.
        -12    1    3    3    0    0 -0.25585616092E+01 -0.38210390886E+01  0.16038588162E+02  0.16684810082E+02  0.00000000000E+00 0.  1.
</event>
<event>
 7    1  0.2318319E-009  0.4778727E+02  0.7816164E-02  0.1312668E+00
        -11   -1    0    0    0    0  0.00000000000E+00  0.00000000000E+00  0.45593999997E+02  0.45594000000E+02  0.51100000000E-03 0.  1.
         11   -1    0    0    0    0 -0.00000000000E+00 -0.00000000000E+00 -0.45593999997E+02  0.45594000000E+02  0.51100000000E-03 0. -1.
    9900012    2    1    2    0    0 -0.16073346283E+01 -0.12412566075E+02  0.41556804363E+02  0.47787270628E+02  0.19999998100E+02 0.  0.
         12    1    1    2    0    0  0.16073346283E+01  0.12412566075E+02 -0.41556804363E+02  0.43400729372E+02  0.00000000000E+00 0. -1.
         11    1    3    3    0    0 -0.34361920230E+01 -0.14102997044E+01  0.74766328920E+01  0.83484370117E+01  0.51100000000E-03 0. -1.
        -11    1    3    3    0    0 -0.99479261341E+00 -0.88071574579E+01  0.34695573418E+02  0.35809753558E+02  0.51100000000E-03 0.  1.
         12    1    3    3    0    0  0.28236500080E+01 -0.21951089130E+01 -0.61540194729E+00  0.36290800576E+01  0.00000000000E+00 0. -1.
</event>
<event>
 7    1  0.2318319E-009  0.4778727E+02  0.7816164E-02  0.1312668E+00
        -11   -1    0    0    0    0  0.00000000000E+00  0.00000000000E+00  0.45593999997E+02  0.45594000000E+02  0.51100000000E-03 0. -1.
         11   -1    0    0    0    0 -0.00000000000E+00 -0.00000000000E+00 -0.45593999997E+02  0.45594000000E+02  0.51100000000E-03 0.  1.
    9900012    2    1    2    0    0 -0.26351078224E+02  0.59807621285E+01 -0.33962837870E+02  0.47787271949E+02  0.20000004122E+02 0.  0.
         12    1    1    2    0    0  0.26351078224E+02 -0.59807621285E+01  0.33962837870E+02  0.43400728051E+02  0.00000000000E+00 0. -1.
         11    1    3    3    0    0 -0.89706367656E+01 -0.14755563302E+01 -0.11448873140E+02  0.14619380523E+02  0.51100000000E-03 0. -1.
        -11    1    3    3    0    0 -0.11245809296E+02 -0.40397346350E+00 -0.36487995985E+01  0.11829841928E+02  0.51100000000E-03 0.  1.
        -12    1    3    3    0    0 -0.61346321627E+01  0.78602919221E+01 -0.18865165132E+02  0.21338049497E+02  0.00000000000E+00 0.  1.
</event>
<event>
 7    1  0.2318319E-009  0.4778727E+02  0.7816164E-02  0.1312668E+00
        -11   -1    0    0    0    0  0.00000000000E+00  0.00000000000E+00  0.45593999997E+02  0.45594000000E+02  0.51100000000E-03 0.  1.
         11   -1    0    0    0    0 -0.00000000000E+00 -0.00000000000E+00 -0.45593999997E+02  0.45594000000E+02  0.51100000000E-03 0. -1.
    9900012    2    1    2    0    0  0.54324150241E+01 -0.24351608453E+02  0.35512128121E+02  0.47787271770E+02  0.20000003308E+02 0.  0.
         12    1    1    2    0    0 -0.54324150241E+01  0.24351608453E+02 -0.35512128121E+02  0.43400728230E+02  0.00000000000E+00 0. -1.
         11    1    3    3    0    0  0.24714667662E+01 -0.12085723421E+00  0.22185778639E+01  0.33233781679E+01  0.51100000000E-03 0. -1.
        -11    1    3    3    0    0  0.94918527818E+01 -0.17624012757E+02  0.20489350540E+02  0.28644625686E+02  0.51100000000E-03 0.  1.
         12    1    3    3    0    0 -0.65309045239E+01 -0.66067384619E+01  0.12804199717E+02  0.15819267916E+02  0.00000000000E+00 0. -1.
</event>
<event>
 7    1  0.2318319E-009  0.4778727E+02  0.7816164E-02  0.1312668E+00
        -11   -1    0    0    0    0  0.00000000000E+00  0.00000000000E+00  0.45593999997E+02  0.45594000000E+02  0.51100000000E-03 0.  1.
         11   -1    0    0    0    0 -0.00000000000E+00 -0.00000000000E+00 -0.45593999997E+02  0.45594000000E+02  0.51100000000E-03 0. -1.
    9900012    2    1    2    0    0  0.16732166049E+02  0.19606138751E+02  0.34917861402E+02  0.47787273021E+02  0.20000009012E+02 0.  0.
         12    1    1    2    0    0 -0.16732166049E+02 -0.19606138751E+02 -0.34917861402E+02  0.43400726979E+02  0.00000000000E+00 0. -1.
         11    1    3    3    0    0  0.12921059289E+02  0.16635611520E+02  0.13867449749E+02  0.25219109949E+02  0.51100000000E-03 0. -1.
        -11    1    3    3    0    0  0.38646015948E+00  0.18800950379E+01  0.93651978743E+00  0.21356915460E+01  0.51100000000E-03 0.  1.
        -12    1    3    3    0    0  0.34246466005E+01  0.10904321929E+01  0.20113891865E+02  0.20432471526E+02  0.00000000000E+00 0.  1.
</event>
<event>
 7    1  0.2318319E-009  0.4778727E+02  0.7816164E-02  0.1312668E+00
        -11   -1    0    0    0    0  0.00000000000E+00  0.00000000000E+00  0.45593999997E+02  0.45594000000E+02  0.51100000000E-03 0.  1.
         11   -1    0    0    0    0 -0.00000000000E+00 -0.00000000000E+00 -0.45593999997E+02  0.45594000000E+02  0.51100000000E-03 0. -1.
    9900012    2    1    2    0    0  0.17903363143E+02 -0.27251045797E+02  0.28643907993E+02  0.47787269891E+02  0.19999994742E+02 0.  0.
         12    1    1    2    0    0 -0.17903363143E+02  0.27251045797E+02 -0.28643907993E+02  0.43400730109E+02  0.00000000000E+00 0. -1.
         11    1    3    3    0    0  0.18209724374E+01 -0.33944422904E+01  0.13326195769E+01  0.40760341361E+01  0.51100000000E-03 0. -1.
        -11    1    3    3    0    0  0.13263718930E+02 -0.39738864239E+01  0.13503629836E+02  0.19340786752E+02  0.51100000000E-03 0.  1.
        -12    1    3    3    0    0  0.28186717763E+01 -0.19882717083E+02  0.13807658579E+02  0.24370449003E+02  0.00000000000E+00 0.  1.
</event>
<event>
 7    1  0.2318319E-009  0.4778727E+02  0.7816164E-02  0.1312668E+00
        -11   -1    0    0    0    0  0.00000000000E+00  0.00000000000E+00  0.45593999997E+02  0.45594000000E+02  0.51100000000E-03 0.  1.
         11   -1    0    0    0    0 -0.00000000000E+00 -0.00000000000E+00 -0.45593999997E+02  0.45594000000E+02  0.51100000000E-03 0. -1.
    9900012    2    1    2    0    0  0.28125788400E+02  0.22861641628E+02  0.23872753134E+02  0.47787274508E+02  0.20000015790E+02 0.  0.
         12    1    1    2    0    0 -0.28125788400E+02 -0.22861641628E+02 -0.23872753134E+02  0.43400725492E+02  0.00000000000E+00 0. -1.
         11    1    3    3    0    0  0.58359605224E+01  0.68535343453E+01  0.67477515281E+01  0.11249956408E+02  0.51100000000E-03 0.  1.
        -11    1    3    3    0    0  0.23098589814E+02  0.17699396879E+02  0.12736700583E+02  0.31765343431E+02  0.51100000000E-03 0. -1.
         12    1    3    3    0    0 -0.80876193595E+00 -0.16912895964E+01  0.43883010234E+01  0.47719746689E+01  0.00000000000E+00 0. -1.
</event>
<event>
 7    1  0.2318319E-009  0.4778728E+02  0.7816164E-02  0.1312668E+00
        -11   -1    0    0    0    0  0.00000000000E+00  0.00000000000E+00  0.45593999997E+02  0.45594000000E+02  0.51100000000E-03 0.  1.
         11   -1    0    0    0    0 -0.00000000000E+00 -0.00000000000E+00 -0.45593999997E+02  0.45594000000E+02  0.51100000000E-03 0. -1.
    9900012    2    1    2    0    0 -0.10836047571E+02  0.31558535676E+02  0.27753590165E+02  0.47787275720E+02  0.20000021319E+02 0.  0.
         12    1    1    2    0    0  0.10836047571E+02 -0.31558535676E+02 -0.27753590165E+02  0.43400724280E+02  0.00000000000E+00 0. -1.
         11    1    3    3    0    0 -0.56655609682E+01  0.24723780925E+01  0.10080469368E+02  0.11824850843E+02  0.51100000000E-03 0. -1.
        -11    1    3    3    0    0 -0.40759379437E+01  0.12522146733E+02  0.13471618963E+02  0.18838841437E+02  0.51100000000E-03 0.  1.
         12    1    3    3    0    0 -0.10945486590E+01  0.16564010850E+02  0.42015018344E+01  0.17123583441E+02  0.00000000000E+00 0. -1.
</event>
<event>
 7    1  0.2318319E-009  0.4778728E+02  0.7816164E-02  0.1312668E+00
        -11   -1    0    0    0    0  0.00000000000E+00  0.00000000000E+00  0.45593999997E+02  0.45594000000E+02  0.51100000000E-03 0. -1.
         11   -1    0    0    0    0 -0.00000000000E+00 -0.00000000000E+00 -0.45593999997E+02  0.45594000000E+02  0.51100000000E-03 0.  1.
    9900012    2    1    2    0    0  0.33162461405E+02  0.27986459593E+02 -0.79477313103E+00  0.47787280752E+02  0.20000044259E+02 0.  0.
         12    1    1    2    0    0 -0.33162461405E+02 -0.27986459593E+02  0.79477313103E+00  0.43400719248E+02  0.00000000000E+00 0. -1.
         11    1    3    3    0    0  0.16478390230E+02  0.13559529252E+02  0.20791982770E+00  0.21341073287E+02  0.51100000000E-03 0. -1.
        -11    1    3    3    0    0  0.79565399936E+01  0.15701082016E+02 -0.42193663357E+00  0.17607059264E+02  0.51100000000E-03 0.  1.
         12    1    3    3    0    0  0.87275311806E+01 -0.12741516753E+01 -0.58075632516E+00  0.88391482004E+01  0.00000000000E+00 0. -1.
</event>
<event>
 7    1  0.2318319E-009  0.4778726E+02  0.7816164E-02  0.1312668E+00
        -11   -1    0    0    0    0  0.00000000000E+00  0.00000000000E+00  0.45593999997E+02  0.45594000000E+02  0.51100000000E-03 0.  1.
         11   -1    0    0    0    0 -0.00000000000E+00 -0.00000000000E+00 -0.45593999997E+02  0.45594000000E+02  0.51100000000E-03 0. -1.
    9900012    2    1    2    0    0 -0.23841885031E+02 -0.28226078278E+01  0.36155515919E+02  0.47787263507E+02  0.19999965633E+02 0.  0.
         12    1    1    2    0    0  0.23841885031E+02  0.28226078278E+01 -0.36155515919E+02  0.43400736493E+02  0.00000000000E+00 0. -1.
         11    1    3    3    0    0  0.10490549865E+01  0.12731893532E+01  0.22666358747E+01  0.28034204007E+01  0.51100000000E-03 0. -1.
        -11    1    3    3    0    0 -0.10839929540E+02 -0.72130262950E+01  0.77717499546E+01  0.15163506138E+02  0.51100000000E-03 0.  1.
        -12    1    3    3    0    0 -0.14051010478E+02  0.31172291139E+01  0.26117130090E+02  0.29820336968E+02  0.00000000000E+00 0.  1.
</event>
<event>
 7    1  0.2318319E-009  0.4778727E+02  0.7816164E-02  0.1312668E+00
        -11   -1    0    0    0    0  0.00000000000E+00  0.00000000000E+00  0.45593999997E+02  0.45594000000E+02  0.51100000000E-03 0. -1.
         11   -1    0    0    0    0 -0.00000000000E+00 -0.00000000000E+00 -0.45593999997E+02  0.45594000000E+02  0.51100000000E-03 0.  1.
    9900012    2    1    2    0    0 -0.42327431790E+00  0.23977394200E+02 -0.36173594184E+02  0.47787268325E+02  0.19999987602E+02 0.  0.
         12    1    1    2    0    0  0.42327431790E+00 -0.23977394200E+02  0.36173594184E+02  0.43400731675E+02  0.00000000000E+00 0. -1.
         11    1    3    3    0    0 -0.73907320251E+01  0.89899048058E+01 -0.14041911053E+02  0.18237778773E+02  0.51100000000E-03 0. -1.
        -11    1    3    3    0    0  0.21512775744E+01  0.24148332846E+01 -0.12714357603E+02  0.13119234143E+02  0.51100000000E-03 0.  1.
         12    1    3    3    0    0  0.48161801328E+01  0.12572656109E+02 -0.94173255278E+01  0.16430255409E+02  0.00000000000E+00 0. -1.
</event>
<event>
 7    1  0.2318319E-009  0.4778727E+02  0.7816164E-02  0.1312668E+00
        -11   -1    0    0    0    0  0.00000000000E+00  0.00000000000E+00  0.45593999997E+02  0.45594000000E+02  0.51100000000E-03 0.  1.
         11   -1    0    0    0    0 -0.00000000000E+00 -0.00000000000E+00 -0.45593999997E+02  0.45594000000E+02  0.51100000000E-03 0. -1.
    9900012    2    1    2    0    0  0.13662975085E+02 -0.34264452299E+02  0.22866869655E+02  0.47787270659E+02  0.19999998245E+02 0.  0.
         12    1    1    2    0    0 -0.13662975085E+02  0.34264452299E+02 -0.22866869655E+02  0.43400729341E+02  0.00000000000E+00 0. -1.
         11    1    3    3    0    0  0.46843000020E+00 -0.25623566336E+01 -0.97853110500E+00  0.27825566602E+01  0.51100000000E-03 0. -1.
        -11    1    3    3    0    0  0.37137139234E+01 -0.24771111962E+02  0.21541157920E+02  0.33036663629E+02  0.51100000000E-03 0.  1.
        -12    1    3    3    0    0  0.94808311614E+01 -0.69309837032E+01  0.23042428397E+01  0.11968050370E+02  0.00000000000E+00 0.  1.
</event>
<event>
 7    1  0.2318319E-009  0.4778727E+02  0.7816164E-02  0.1312668E+00
        -11   -1    0    0    0    0  0.00000000000E+00  0.00000000000E+00  0.45593999997E+02  0.45594000000E+02  0.51100000000E-03 0.  1.
         11   -1    0    0    0    0 -0.00000000000E+00 -0.00000000000E+00 -0.45593999997E+02  0.45594000000E+02  0.51100000000E-03 0. -1.
    9900012    2    1    2    0    0  0.87860261762E+00 -0.20832500040E+02  0.38063872322E+02  0.47787269861E+02  0.19999994602E+02 0.  0.
         12    1    1    2    0    0 -0.87860261762E+00  0.20832500040E+02 -0.38063872322E+02  0.43400730139E+02  0.00000000000E+00 0. -1.
         11    1    3    3    0    0  0.76582836373E+01 -0.55916551499E+01  0.11906602549E+02  0.15221139908E+02  0.51100000000E-03 0. -1.
        -11    1    3    3    0    0  0.19708121033E+00 -0.89426869152E+01  0.18086258705E+02  0.20177295271E+02  0.51100000000E-03 0.  1.
         12    1    3    3    0    0 -0.69767622300E+01 -0.62981579751E+01  0.80710110689E+01  0.12388834682E+02  0.00000000000E+00 0. -1.
</event>
<event>
 7    1  0.2318319E-009  0.4778727E+02  0.7816164E-02  0.1312668E+00
        -11   -1    0    0    0    0  0.00000000000E+00  0.00000000000E+00  0.45593999997E+02  0.45594000000E+02  0.51100000000E-03 0. -1.
         11   -1    0    0    0    0 -0.00000000000E+00 -0.00000000000E+00 -0.45593999997E+02  0.45594000000E+02  0.51100000000E-03 0.  1.
    9900012    2    1    2    0    0  0.13309628326E+02  0.40867458955E+02 -0.60272753811E+01  0.47787268945E+02  0.19999990426E+02 0.  0.
         12    1    1    2    0    0 -0.13309628326E+02 -0.40867458955E+02  0.60272753811E+01  0.43400731055E+02  0.00000000000E+00 0. -1.
         11    1    3    3    0    0  0.14344682875E+01  0.19805194596E+02  0.37278735279E+01  0.20203971728E+02  0.51100000000E-03 0. -1.
        -11    1    3    3    0    0  0.27937878879E+00  0.84271828427E+01 -0.49323833429E+01  0.97685141590E+01  0.51100000000E-03 0.  1.
        -12    1    3    3    0    0  0.11595781249E+02  0.12635081516E+02 -0.48227655660E+01  0.17814783058E+02  0.00000000000E+00 0.  1.
</event>
<event>
 7    1  0.2318319E-009  0.4778727E+02  0.7816164E-02  0.1312668E+00
        -11   -1    0    0    0    0  0.00000000000E+00  0.00000000000E+00  0.45593999997E+02  0.45594000000E+02  0.51100000000E-03 0. -1.
         11   -1    0    0    0    0 -0.00000000000E+00 -0.00000000000E+00 -0.45593999997E+02  0.45594000000E+02  0.51100000000E-03 0.  1.
    9900012    2    1    2    0    0 -0.40784242396E+02  0.11802875236E+02 -0.89978316702E+01  0.47787271130E+02  0.20000000390E+02 0.  0.
         12    1    1    2    0    0  0.40784242396E+02 -0.11802875236E+02  0.89978316702E+01  0.43400728870E+02  0.00000000000E+00 0. -1.
         11    1    3    3    0    0  0.42487238267E+00  0.25925722170E+01 -0.37034657169E+01  0.45406613857E+01  0.51100000000E-03 0. -1.
        -11    1    3    3    0    0 -0.84743665055E+01 -0.11332207953E+01 -0.18184358972E+01  0.87410403508E+01  0.51100000000E-03 0.  1.
        -12    1    3    3    0    0 -0.32734748274E+02  0.10343523814E+02 -0.34759300561E+01  0.34505569394E+02  0.00000000000E+00 0.  1.
</event>
<event>
 7    1  0.2318319E-009  0.4778727E+02  0.7816164E-02  0.1312668E+00
        -11   -1    0    0    0    0  0.00000000000E+00  0.00000000000E+00  0.45593999997E+02  0.45594000000E+02  0.51100000000E-03 0. -1.
         11   -1    0    0    0    0 -0.00000000000E+00 -0.00000000000E+00 -0.45593999997E+02  0.45594000000E+02  0.51100000000E-03 0.  1.
    9900012    2    1    2    0    0 -0.32913979788E+02  0.27907202356E+02 -0.46348212403E+01  0.47787267555E+02  0.19999984091E+02 0.  0.
         12    1    1    2    0    0  0.32913979788E+02 -0.27907202356E+02  0.46348212403E+01  0.43400732445E+02  0.00000000000E+00 0. -1.
         11    1    3    3    0    0 -0.21583731041E+02  0.17297777030E+02 -0.12433010812E+01  0.27687837288E+02  0.51100000000E-03 0. -1.
        -11    1    3    3    0    0 -0.11138805840E+02  0.29592277679E+01 -0.44889746010E+01  0.12368545498E+02  0.51100000000E-03 0.  1.
         12    1    3    3    0    0 -0.19144290736E+00  0.76501975577E+01  0.10974544419E+01  0.77308847690E+01  0.00000000000E+00 0. -1.
</event>
<event>
 7    1  0.2318319E-009  0.4778727E+02  0.7816164E-02  0.1312668E+00
        -11   -1    0    0    0    0  0.00000000000E+00  0.00000000000E+00  0.45593999997E+02  0.45594000000E+02  0.51100000000E-03 0. -1.
         11   -1    0    0    0    0 -0.00000000000E+00 -0.00000000000E+00 -0.45593999997E+02  0.45594000000E+02  0.51100000000E-03 0.  1.
    9900012    2    1    2    0    0  0.13258393095E+02 -0.37719572348E+02  0.16884085869E+02  0.47787268656E+02  0.19999989109E+02 0.  0.
         12    1    1    2    0    0 -0.13258393095E+02  0.37719572348E+02 -0.16884085869E+02  0.43400731344E+02  0.00000000000E+00 0. -1.
         11    1    3    3    0    0  0.67139162328E+01 -0.16544059854E+02  0.15041316870E+02  0.23345744818E+02  0.51100000000E-03 0. -1.
        -11    1    3    3    0    0 -0.80943286762E+00 -0.21300589419E+01 -0.26931474022E+01  0.35278004272E+01  0.51100000000E-03 0.  1.
        -12    1    3    3    0    0  0.73539097300E+01 -0.19045453552E+02  0.45359164015E+01  0.20913723411E+02  0.00000000000E+00 0.  1.
</event>
<event>
 7    1  0.2318319E-009  0.4778727E+02  0.7816164E-02  0.1312668E+00
        -11   -1    0    0    0    0  0.00000000000E+00  0.00000000000E+00  0.45593999997E+02  0.45594000000E+02  0.51100000000E-03 0. -1.
         11   -1    0    0    0    0 -0.00000000000E+00 -0.00000000000E+00 -0.45593999997E+02  0.45594000000E+02  0.51100000000E-03 0.  1.
    9900012    2    1    2    0    0 -0.52765338232E+01 -0.37988956550E+02 -0.20313065529E+02  0.47787271203E+02  0.20000000722E+02 0.  0.
         12    1    1    2    0    0  0.52765338232E+01  0.37988956550E+02  0.20313065529E+02  0.43400728797E+02  0.00000000000E+00 0. -1.
         11    1    3    3    0    0 -0.14189542777E+01 -0.12377715766E+02 -0.24976488079E+01  0.12706672603E+02  0.51100000000E-03 0.  1.
        -11    1    3    3    0    0 -0.74867091117E+00 -0.12004735697E+02  0.51772191671E+00  0.12039195302E+02  0.51100000000E-03 0. -1.
        -12    1    3    3    0    0 -0.31089086344E+01 -0.13606505088E+02 -0.18333138638E+02  0.23041403297E+02  0.00000000000E+00 0.  1.
</event>
<event>
 7    1  0.2318319E-009  0.4778727E+02  0.7816164E-02  0.1312668E+00
        -11   -1    0    0    0    0  0.00000000000E+00  0.00000000000E+00  0.45593999997E+02  0.45594000000E+02  0.51100000000E-03 0. -1.
         11   -1    0    0    0    0 -0.00000000000E+00 -0.00000000000E+00 -0.45593999997E+02  0.45594000000E+02  0.51100000000E-03 0.  1.
    9900012    2    1    2    0    0  0.29287001737E+02 -0.30285617916E+02 -0.10424804851E+02  0.47787266372E+02  0.19999978696E+02 0.  0.
         12    1    1    2    0    0 -0.29287001737E+02  0.30285617916E+02  0.10424804851E+02  0.43400733628E+02  0.00000000000E+00 0. -1.
         11    1    3    3    0    0  0.43861391720E+01 -0.26534361982E+01 -0.74262952715E+01  0.90237909004E+01  0.51100000000E-03 0. -1.
        -11    1    3    3    0    0  0.26744702468E+01  0.43723203808E+00  0.61192705525E+00  0.27782040851E+01  0.51100000000E-03 0.  1.
        -12    1    3    3    0    0  0.22226392318E+02 -0.28069413755E+02 -0.36104366347E+01  0.35985271386E+02  0.00000000000E+00 0.  1.
</event>
<event>
 7    1  0.2318319E-009  0.4778727E+02  0.7816164E-02  0.1312668E+00
        -11   -1    0    0    0    0  0.00000000000E+00  0.00000000000E+00  0.45593999997E+02  0.45594000000E+02  0.51100000000E-03 0.  1.
         11   -1    0    0    0    0 -0.00000000000E+00 -0.00000000000E+00 -0.45593999997E+02  0.45594000000E+02  0.51100000000E-03 0. -1.
    9900012    2    1    2    0    0 -0.24681716107E+02  0.13593556385E+02  0.33009867483E+02  0.47787271476E+02  0.20000001968E+02 0.  0.
         12    1    1    2    0    0  0.24681716107E+02 -0.13593556385E+02 -0.33009867483E+02  0.43400728524E+02  0.00000000000E+00 0. -1.
         11    1    3    3    0    0 -0.12473448372E+02  0.10163484630E+02  0.28353187335E+02  0.32600407458E+02  0.51100000000E-03 0. -1.
        -11    1    3    3    0    0 -0.65898059217E+01  0.48928131288E+01  0.45407530220E+01  0.93799573915E+01  0.51100000000E-03 0.  1.
         12    1    3    3    0    0 -0.56184618132E+01 -0.14627413738E+01  0.11592712601E+00  0.58069066267E+01  0.00000000000E+00 0. -1.
</event>
<event>
 7    1  0.2318319E-009  0.4778727E+02  0.7816164E-02  0.1312668E+00
        -11   -1    0    0    0    0  0.00000000000E+00  0.00000000000E+00  0.45593999997E+02  0.45594000000E+02  0.51100000000E-03 0.  1.
         11   -1    0    0    0    0 -0.00000000000E+00 -0.00000000000E+00 -0.45593999997E+02  0.45594000000E+02  0.51100000000E-03 0. -1.
    9900012    2    1    2    0    0  0.86721974711E+01  0.23381146003E+02  0.35520953985E+02  0.47787272248E+02  0.20000005488E+02 0.  0.
         12    1    1    2    0    0 -0.86721974711E+01 -0.23381146003E+02 -0.35520953985E+02  0.43400727752E+02  0.00000000000E+00 0. -1.
         11    1    3    3    0    0  0.88081269953E+01  0.77334486524E+01  0.10933396645E+02  0.16028989104E+02  0.51100000000E-03 0.  1.
        -11    1    3    3    0    0  0.30682170963E+01  0.13922918037E+01  0.12028197440E+02  0.12491195560E+02  0.51100000000E-03 0. -1.
         12    1    3    3    0    0 -0.32041466206E+01  0.14255405547E+02  0.12559359900E+02  0.19267087584E+02  0.00000000000E+00 0. -1.
</event>
<event>
 7    1  0.2318319E-009  0.4778728E+02  0.7816164E-02  0.1312668E+00
        -11   -1    0    0    0    0  0.00000000000E+00  0.00000000000E+00  0.45593999997E+02  0.45594000000E+02  0.51100000000E-03 0.  1.
         11   -1    0    0    0    0 -0.00000000000E+00 -0.00000000000E+00 -0.45593999997E+02  0.45594000000E+02  0.51100000000E-03 0. -1.
    9900012    2    1    2    0    0 -0.14408210645E+02 -0.81296357440E+01  0.40123998866E+02  0.47787276546E+02  0.20000025083E+02 0.  0.
         12    1    1    2    0    0  0.14408210645E+02  0.81296357440E+01 -0.40123998866E+02  0.43400723454E+02  0.00000000000E+00 0. -1.
         11    1    3    3    0    0 -0.40572705786E+01  0.32494343963E+01  0.13510801760E+01  0.53708180334E+01  0.51100000000E-03 0. -1.
        -11    1    3    3    0    0 -0.34853743229E+01 -0.73028907845E+00  0.37465710677E+01  0.51689410265E+01  0.51100000000E-03 0.  1.
        -12    1    3    3    0    0 -0.68655657435E+01 -0.10648781062E+02  0.35026347623E+02  0.37247517486E+02  0.00000000000E+00 0.  1.
</event>
<event>
 7    1  0.2318319E-009  0.4778728E+02  0.7816164E-02  0.1312668E+00
        -11   -1    0    0    0    0  0.00000000000E+00  0.00000000000E+00  0.45593999997E+02  0.45594000000E+02  0.51100000000E-03 0.  1.
         11   -1    0    0    0    0 -0.00000000000E+00 -0.00000000000E+00 -0.45593999997E+02  0.45594000000E+02  0.51100000000E-03 0. -1.
    9900012    2    1    2    0    0 -0.36883039455E+02 -0.15422207735E+02  0.16894369414E+02  0.47787276403E+02  0.20000024431E+02 0.  0.
         12    1    1    2    0    0  0.36883039455E+02  0.15422207735E+02 -0.16894369414E+02  0.43400723597E+02  0.00000000000E+00 0. -1.
         11    1    3    3    0    0 -0.38495429919E+00  0.82730792934E+00 -0.51289127631E+00  0.10467501826E+01  0.51100000000E-03 0. -1.
        -11    1    3    3    0    0 -0.32239573226E+02 -0.10614300166E+02  0.19785398947E+02  0.39287599336E+02  0.51100000000E-03 0.  1.
         12    1    3    3    0    0 -0.42585119297E+01 -0.56352154992E+01 -0.23781382569E+01  0.74529268845E+01  0.00000000000E+00 0. -1.
</event>
<event>
 7    1  0.2318319E-009  0.4778727E+02  0.7816164E-02  0.1312668E+00
        -11   -1    0    0    0    0  0.00000000000E+00  0.00000000000E+00  0.45593999997E+02  0.45594000000E+02  0.51100000000E-03 0.  1.
         11   -1    0    0    0    0 -0.00000000000E+00 -0.00000000000E+00 -0.45593999997E+02  0.45594000000E+02  0.51100000000E-03 0. -1.
    9900012    2    1    2    0    0 -0.18879850172E+02 -0.32316330184E+02  0.21973370784E+02  0.47787274629E+02  0.20000016343E+02 0.  0.
         12    1    1    2    0    0  0.18879850172E+02  0.32316330184E+02 -0.21973370784E+02  0.43400725371E+02  0.00000000000E+00 0. -1.
         11    1    3    3    0    0 -0.15566066247E+02 -0.10036595468E+02  0.44142004123E+01  0.19039979846E+02  0.51100000000E-03 0. -1.
        -11    1    3    3    0    0  0.35159420523E+00 -0.19266490030E+01  0.24437459145E+01  0.31316911121E+01  0.51100000000E-03 0.  1.
        -12    1    3    3    0    0 -0.36653781303E+01 -0.20353085714E+02  0.15115424457E+02  0.25615603671E+02  0.00000000000E+00 0.  1.
</event>
<event>
 7    1  0.2318319E-009  0.4778727E+02  0.7816164E-02  0.1312668E+00
        -11   -1    0    0    0    0  0.00000000000E+00  0.00000000000E+00  0.45593999997E+02  0.45594000000E+02  0.51100000000E-03 0.  1.
         11   -1    0    0    0    0 -0.00000000000E+00 -0.00000000000E+00 -0.45593999997E+02  0.45594000000E+02  0.51100000000E-03 0. -1.
    9900012    2    1    2    0    0 -0.11446558396E+02 -0.37558216188E+02  0.18492697732E+02  0.47787272221E+02  0.20000005365E+02 0.  0.
         12    1    1    2    0    0  0.11446558396E+02  0.37558216188E+02 -0.18492697732E+02  0.43400727779E+02  0.00000000000E+00 0. -1.
         11    1    3    3    0    0  0.81583961676E+00 -0.11032715009E+01 -0.22223035445E+01  0.26117878149E+01  0.51100000000E-03 0. -1.
        -11    1    3    3    0    0  0.57093271414E+00 -0.19157330451E+01 -0.11735735443E+01  0.23180320078E+01  0.51100000000E-03 0.  1.
        -12    1    3    3    0    0 -0.12833330727E+02 -0.34539211642E+02  0.21888574820E+02  0.42857452398E+02  0.00000000000E+00 0.  1.
</event>
<event>
 7    1  0.2318319E-009  0.4778727E+02  0.7816164E-02  0.1312668E+00
        -11   -1    0    0    0    0  0.00000000000E+00  0.00000000000E+00  0.45593999997E+02  0.45594000000E+02  0.51100000000E-03 0. -1.
         11   -1    0    0    0    0 -0.00000000000E+00 -0.00000000000E+00 -0.45593999997E+02  0.45594000000E+02  0.51100000000E-03 0.  1.
    9900012    2    1    2    0    0  0.20039828582E+01  0.25512991090E+02 -0.35052739120E+02  0.47787272109E+02  0.20000004852E+02 0.  0.
         12    1    1    2    0    0 -0.20039828582E+01 -0.25512991090E+02  0.35052739120E+02  0.43400727891E+02  0.00000000000E+00 0. -1.
         11    1    3    3    0    0  0.55980293120E+00  0.14338684513E+00 -0.35829133620E+01  0.36292158285E+01  0.51100000000E-03 0. -1.
        -11    1    3    3    0    0 -0.20583046462E+01  0.18579645803E+02 -0.31369962347E+02  0.36517316360E+02  0.51100000000E-03 0.  1.
        -12    1    3    3    0    0  0.35024845731E+01  0.67899584420E+01 -0.99863411101E-01  0.76407399203E+01  0.00000000000E+00 0.  1.
</event>
<event>
 7    1  0.2318319E-009  0.4778727E+02  0.7816164E-02  0.1312668E+00
        -11   -1    0    0    0    0  0.00000000000E+00  0.00000000000E+00  0.45593999997E+02  0.45594000000E+02  0.51100000000E-03 0.  1.
         11   -1    0    0    0    0 -0.00000000000E+00 -0.00000000000E+00 -0.45593999997E+02  0.45594000000E+02  0.51100000000E-03 0. -1.
    9900012    2    1    2    0    0 -0.41848172413E+02  0.11413154214E+02 -0.14469616306E+01  0.47787270497E+02  0.19999997503E+02 0.  0.
         12    1    1    2    0    0  0.41848172413E+02 -0.11413154214E+02  0.14469616306E+01  0.43400729503E+02  0.00000000000E+00 0. -1.
         11    1    3    3    0    0 -0.14638579310E+02  0.86517739663E+01 -0.55028243757E+01  0.17872388574E+02  0.51100000000E-03 0. -1.
        -11    1    3    3    0    0 -0.19946278262E+02  0.57854427254E+01 -0.59210557849E+00  0.20776812876E+02  0.51100000000E-03 0.  1.
         12    1    3    3    0    0 -0.72633148420E+01 -0.30240624777E+01  0.46479683236E+01  0.91380690465E+01  0.00000000000E+00 0. -1.
</event>
<event>
 7    1  0.2318319E-009  0.4778727E+02  0.7816164E-02  0.1312668E+00
        -11   -1    0    0    0    0  0.00000000000E+00  0.00000000000E+00  0.45593999997E+02  0.45594000000E+02  0.51100000000E-03 0.  1.
         11   -1    0    0    0    0 -0.00000000000E+00 -0.00000000000E+00 -0.45593999997E+02  0.45594000000E+02  0.51100000000E-03 0. -1.
    9900012    2    1    2    0    0 -0.65917536957E+01 -0.32515578022E+02  0.27980513648E+02  0.47787272185E+02  0.20000005198E+02 0.  0.
         12    1    1    2    0    0  0.65917536957E+01  0.32515578022E+02 -0.27980513648E+02  0.43400727815E+02  0.00000000000E+00 0. -1.
         11    1    3    3    0    0  0.24286469895E+01 -0.94750485618E+01  0.10277712724E+02  0.14188243392E+02  0.51100000000E-03 0.  1.
        -11    1    3    3    0    0 -0.41983877577E+01 -0.11231913082E+02  0.17027580492E+02  0.20825965257E+02  0.51100000000E-03 0. -1.
         12    1    3    3    0    0 -0.48220129274E+01 -0.11808616379E+02  0.67522043264E+00  0.12773063535E+02  0.00000000000E+00 0. -1.
</event>
<event>
 7    1  0.2318319E-009  0.4778727E+02  0.7816164E-02  0.1312668E+00
        -11   -1    0    0    0    0  0.00000000000E+00  0.00000000000E+00  0.45593999997E+02  0.45594000000E+02  0.51100000000E-03 0.  1.
         11   -1    0    0    0    0 -0.00000000000E+00 -0.00000000000E+00 -0.45593999997E+02  0.45594000000E+02  0.51100000000E-03 0. -1.
    9900012    2    1    2    0    0  0.16706845316E+02 -0.86435023266E+01  0.39112585728E+02  0.47787272181E+02  0.20000005181E+02 0.  0.
         12    1    1    2    0    0 -0.16706845316E+02  0.86435023266E+01 -0.39112585728E+02  0.43400727819E+02  0.00000000000E+00 0. -1.
         11    1    3    3    0    0  0.73264589741E+01 -0.18340401499E+01  0.14956200575E+02  0.16754958677E+02  0.51100000000E-03 0. -1.
        -11    1    3    3    0    0  0.49203500915E+01  0.43549044475E+01  0.13295929923E+02  0.14830940312E+02  0.51100000000E-03 0.  1.
         12    1    3    3    0    0  0.44600362507E+01 -0.11164366624E+02  0.10860455230E+02  0.16201373191E+02  0.00000000000E+00 0. -1.
</event>
<event>
 7    1  0.2318319E-009  0.4778726E+02  0.7816164E-02  0.1312668E+00
        -11   -1    0    0    0    0  0.00000000000E+00  0.00000000000E+00  0.45593999997E+02  0.45594000000E+02  0.51100000000E-03 0. -1.
         11   -1    0    0    0    0 -0.00000000000E+00 -0.00000000000E+00 -0.45593999997E+02  0.45594000000E+02  0.51100000000E-03 0.  1.
    9900012    2    1    2    0    0  0.19774489418E+02 -0.35988756735E+02 -0.14050021654E+02  0.47787260934E+02  0.19999953901E+02 0.  0.
         12    1    1    2    0    0 -0.19774489418E+02  0.35988756735E+02  0.14050021654E+02  0.43400739066E+02  0.00000000000E+00 0. -1.
         11    1    3    3    0    0  0.47980703423E+01 -0.14282219809E+02 -0.54046744727E+01  0.16006679484E+02  0.51100000000E-03 0. -1.
        -11    1    3    3    0    0  0.65282138205E+01 -0.15645292559E+02 -0.12095672448E+02  0.20825418295E+02  0.51100000000E-03 0.  1.
         12    1    3    3    0    0  0.84482052548E+01 -0.60612443672E+01  0.34503252667E+01  0.10955163155E+02  0.00000000000E+00 0. -1.
</event>
<event>
 7    1  0.2318319E-009  0.4778727E+02  0.7816164E-02  0.1312668E+00
        -11   -1    0    0    0    0  0.00000000000E+00  0.00000000000E+00  0.45593999997E+02  0.45594000000E+02  0.51100000000E-03 0.  1.
         11   -1    0    0    0    0 -0.00000000000E+00 -0.00000000000E+00 -0.45593999997E+02  0.45594000000E+02  0.51100000000E-03 0. -1.
    9900012    2    1    2    0    0 -0.72481793513E+01 -0.39446618817E+02  0.16584665872E+02  0.47787274406E+02  0.20000015325E+02 0.  0.
         12    1    1    2    0    0  0.72481793513E+01  0.39446618817E+02 -0.16584665872E+02  0.43400725594E+02  0.00000000000E+00 0. -1.
         11    1    3    3    0    0  0.56444601464E+00 -0.23721883351E+01  0.61732737885E+01  0.66374081032E+01  0.51100000000E-03 0. -1.
        -11    1    3    3    0    0  0.14840595923E+01 -0.63729960488E+01  0.57961162920E+01  0.87414229873E+01  0.51100000000E-03 0.  1.
         12    1    3    3    0    0 -0.92966849583E+01 -0.30701434433E+02  0.46152757918E+01  0.32408443315E+02  0.00000000000E+00 0. -1.
</event>
<event>
 7    1  0.2318319E-009  0.4778727E+02  0.7816164E-02  0.1312668E+00
        -11   -1    0    0    0    0  0.00000000000E+00  0.00000000000E+00  0.45593999997E+02  0.45594000000E+02  0.51100000000E-03 0.  1.
         11   -1    0    0    0    0 -0.00000000000E+00 -0.00000000000E+00 -0.45593999997E+02  0.45594000000E+02  0.51100000000E-03 0. -1.
    9900012    2    1    2    0    0 -0.85813985040E+01 -0.42510131197E+02  0.16946047037E+01  0.47787270285E+02  0.19999996539E+02 0.  0.
         12    1    1    2    0    0  0.85813985040E+01  0.42510131197E+02 -0.16946047037E+01  0.43400729715E+02  0.00000000000E+00 0. -1.
         11    1    3    3    0    0  0.19773692804E+01 -0.93987889268E+01  0.34611019587E+01  0.10209135595E+02  0.51100000000E-03 0. -1.
        -11    1    3    3    0    0 -0.31225161111E+01 -0.27781032181E+02 -0.37786254272E+01  0.28210173099E+02  0.51100000000E-03 0.  1.
        -12    1    3    3    0    0 -0.74362516732E+01 -0.53303100890E+01  0.20121281722E+01  0.93679615912E+01  0.00000000000E+00 0.  1.
</event>
<event>
 7    1  0.2318319E-009  0.4778727E+02  0.7816164E-02  0.1312668E+00
        -11   -1    0    0    0    0  0.00000000000E+00  0.00000000000E+00  0.45593999997E+02  0.45594000000E+02  0.51100000000E-03 0.  1.
         11   -1    0    0    0    0 -0.00000000000E+00 -0.00000000000E+00 -0.45593999997E+02  0.45594000000E+02  0.51100000000E-03 0. -1.
    9900012    2    1    2    0    0 -0.24713898036E+01  0.36010951176E+00  0.43328813423E+02  0.47787268220E+02  0.19999987121E+02 0.  0.
         12    1    1    2    0    0  0.24713898036E+01 -0.36010951176E+00 -0.43328813423E+02  0.43400731780E+02  0.00000000000E+00 0. -1.
         11    1    3    3    0    0 -0.52948515707E+00  0.31864708245E+01  0.50061733271E+01  0.59578286724E+01  0.51100000000E-03 0. -1.
        -11    1    3    3    0    0 -0.64418765865E+01 -0.74826691289E+01  0.18412817783E+02  0.20893060336E+02  0.51100000000E-03 0.  1.
        -12    1    3    3    0    0  0.44999719399E+01  0.46563078161E+01  0.19909822313E+02  0.20936379211E+02  0.00000000000E+00 0.  1.
</event>
<event>
 7    1  0.2318319E-009  0.4778726E+02  0.7816164E-02  0.1312668E+00
        -11   -1    0    0    0    0  0.00000000000E+00  0.00000000000E+00  0.45593999997E+02  0.45594000000E+02  0.51100000000E-03 0. -1.
         11   -1    0    0    0    0 -0.00000000000E+00 -0.00000000000E+00 -0.45593999997E+02  0.45594000000E+02  0.51100000000E-03 0.  1.
    9900012    2    1    2    0    0 -0.38414172093E+01  0.27374267516E+02 -0.33459184212E+02  0.47787262491E+02  0.19999961000E+02 0.  0.
         12    1    1    2    0    0  0.38414172093E+01 -0.27374267516E+02  0.33459184212E+02  0.43400737509E+02  0.00000000000E+00 0. -1.
         11    1    3    3    0    0 -0.33954012854E+01  0.12932562644E+02 -0.74827221308E+01  0.15322240605E+02  0.51100000000E-03 0. -1.
        -11    1    3    3    0    0 -0.49266602647E+01  0.11680241508E+02 -0.11705892613E+02  0.17254794846E+02  0.51100000000E-03 0.  1.
         12    1    3    3    0    0  0.44806443409E+01  0.27614633637E+01 -0.14270569469E+02  0.15210227039E+02  0.00000000000E+00 0. -1.
</event>
<event>
 7    1  0.2318319E-009  0.4778727E+02  0.7816164E-02  0.1312668E+00
        -11   -1    0    0    0    0  0.00000000000E+00  0.00000000000E+00  0.45593999997E+02  0.45594000000E+02  0.51100000000E-03 0.  1.
         11   -1    0    0    0    0 -0.00000000000E+00 -0.00000000000E+00 -0.45593999997E+02  0.45594000000E+02  0.51100000000E-03 0. -1.
    9900012    2    1    2    0    0 -0.20293137895E+00  0.16030384713E+02  0.40331239629E+02  0.47787270684E+02  0.19999998355E+02 0.  0.
         12    1    1    2    0    0  0.20293137895E+00 -0.16030384713E+02 -0.40331239629E+02  0.43400729316E+02  0.00000000000E+00 0. -1.
         11    1    3    3    0    0  0.71828355094E+00  0.45590605828E+01  0.64439922563E+01  0.79262854552E+01  0.51100000000E-03 0. -1.
        -11    1    3    3    0    0  0.11313459935E+01 -0.34221596281E+01  0.16436962227E+02  0.16827502720E+02  0.51100000000E-03 0.  1.
        -12    1    3    3    0    0 -0.20525609234E+01  0.14893483758E+02  0.17450285146E+02  0.23033482508E+02  0.00000000000E+00 0.  1.
</event>
<event>
 7    1  0.2318319E-009  0.4778727E+02  0.7816164E-02  0.1312668E+00
        -11   -1    0    0    0    0  0.00000000000E+00  0.00000000000E+00  0.45593999997E+02  0.45594000000E+02  0.51100000000E-03 0.  1.
         11   -1    0    0    0    0 -0.00000000000E+00 -0.00000000000E+00 -0.45593999997E+02  0.45594000000E+02  0.51100000000E-03 0. -1.
    9900012    2    1    2    0    0  0.21542866505E+02 -0.97162706296E+01  0.36402229866E+02  0.47787270151E+02  0.19999995926E+02 0.  0.
         12    1    1    2    0    0 -0.21542866505E+02  0.97162706296E+01 -0.36402229866E+02  0.43400729849E+02  0.00000000000E+00 0. -1.
         11    1    3    3    0    0 -0.12563000466E+01  0.17747947547E+01  0.37923169924E+00  0.22072614642E+01  0.51100000000E-03 0. -1.
        -11    1    3    3    0    0  0.88337692732E+01 -0.32661556280E+01  0.52069563012E+01  0.10761767807E+02  0.51100000000E-03 0.  1.
        -12    1    3    3    0    0  0.13965397279E+02 -0.82249097563E+01  0.30816041866E+02  0.34818240879E+02  0.00000000000E+00 0.  1.
</event>
<event>
 7    1  0.2318319E-009  0.4778727E+02  0.7816164E-02  0.1312668E+00
        -11   -1    0    0    0    0  0.00000000000E+00  0.00000000000E+00  0.45593999997E+02  0.45594000000E+02  0.51100000000E-03 0.  1.
         11   -1    0    0    0    0 -0.00000000000E+00 -0.00000000000E+00 -0.45593999997E+02  0.45594000000E+02  0.51100000000E-03 0. -1.
    9900012    2    1    2    0    0  0.22936779389E+01  0.40578895349E+02 -0.15222204343E+02  0.47787271766E+02  0.20000003288E+02 0.  0.
         12    1    1    2    0    0 -0.22936779389E+01 -0.40578895349E+02  0.15222204343E+02  0.43400728234E+02  0.00000000000E+00 0. -1.
         11    1    3    3    0    0  0.85591640961E+00 -0.40062447288E+00 -0.45289168109E+00  0.10479522911E+01  0.51100000000E-03 0. -1.
        -11    1    3    3    0    0  0.26148260522E+01  0.22598202763E+02  0.59008253234E+00  0.22756631584E+02  0.51100000000E-03 0.  1.
         12    1    3    3    0    0 -0.11770645229E+01  0.18381317059E+02 -0.15359395194E+02  0.23982687890E+02  0.00000000000E+00 0. -1.
</event>
<event>
 7    1  0.2318319E-009  0.4778727E+02  0.7816164E-02  0.1312668E+00
        -11   -1    0    0    0    0  0.00000000000E+00  0.00000000000E+00  0.45593999997E+02  0.45594000000E+02  0.51100000000E-03 0.  1.
         11   -1    0    0    0    0 -0.00000000000E+00 -0.00000000000E+00 -0.45593999997E+02  0.45594000000E+02  0.51100000000E-03 0. -1.
    9900012    2    1    2    0    0  0.85319658275E+01  0.40256038114E+02  0.13794210940E+02  0.47787270732E+02  0.19999998577E+02 0.  0.
         12    1    1    2    0    0 -0.85319658275E+01 -0.40256038114E+02 -0.13794210940E+02  0.43400729268E+02  0.00000000000E+00 0. -1.
         11    1    3    3    0    0  0.63513507725E+01  0.25581036868E+02  0.12669353751E+02  0.29244514504E+02  0.51100000000E-03 0. -1.
        -11    1    3    3    0    0  0.65687035922E+01  0.10533963641E+02  0.14609783822E+01  0.12499868598E+02  0.51100000000E-03 0.  1.
         12    1    3    3    0    0 -0.43880885371E+01  0.41410376054E+01 -0.33612119260E+00  0.60428876305E+01  0.00000000000E+00 0. -1.
</event>
<event>
 7    1  0.2318319E-009  0.4778728E+02  0.7816164E-02  0.1312668E+00
        -11   -1    0    0    0    0  0.00000000000E+00  0.00000000000E+00  0.45593999997E+02  0.45594000000E+02  0.51100000000E-03 0.  1.
         11   -1    0    0    0    0 -0.00000000000E+00 -0.00000000000E+00 -0.45593999997E+02  0.45594000000E+02  0.51100000000E-03 0. -1.
    9900012    2    1    2    0    0  0.35969064817E+02 -0.17030256761E+02  0.17315298301E+02  0.47787276223E+02  0.20000023611E+02 0.  0.
         12    1    1    2    0    0 -0.35969064817E+02  0.17030256761E+02 -0.17315298301E+02  0.43400723777E+02  0.00000000000E+00 0. -1.
         11    1    3    3    0    0  0.12764682283E+02 -0.80954569906E+01 -0.10752928692E+01  0.15153540599E+02  0.51100000000E-03 0. -1.
        -11    1    3    3    0    0  0.11150236757E+02 -0.37662717552E+00  0.36029331861E+01  0.11723939422E+02  0.51100000000E-03 0.  1.
        -12    1    3    3    0    0  0.12054145777E+02 -0.85581725950E+01  0.14787657984E+02  0.20909796202E+02  0.00000000000E+00 0.  1.
</event>
<event>
 7    1  0.2318319E-009  0.4778727E+02  0.7816164E-02  0.1312668E+00
        -11   -1    0    0    0    0  0.00000000000E+00  0.00000000000E+00  0.45593999997E+02  0.45594000000E+02  0.51100000000E-03 0.  1.
         11   -1    0    0    0    0 -0.00000000000E+00 -0.00000000000E+00 -0.45593999997E+02  0.45594000000E+02  0.51100000000E-03 0. -1.
    9900012    2    1    2    0    0 -0.32556982500E+02 -0.11293956348E+02  0.26383957550E+02  0.47787265266E+02  0.19999973653E+02 0.  0.
         12    1    1    2    0    0  0.32556982500E+02  0.11293956348E+02 -0.26383957550E+02  0.43400734734E+02  0.00000000000E+00 0. -1.
         11    1    3    3    0    0 -0.66347909674E+01 -0.47662244179E+01  0.12302167080E+02  0.14767554351E+02  0.51100000000E-03 0. -1.
        -11    1    3    3    0    0 -0.50253839402E+01 -0.65943531519E+01  0.96426785690E+00  0.83468431158E+01  0.51100000000E-03 0.  1.
        -12    1    3    3    0    0 -0.20896807592E+02  0.66621221978E-01  0.13117522613E+02  0.24672867799E+02  0.00000000000E+00 0.  1.
</event>
<event>
 7    1  0.2318319E-009  0.4778727E+02  0.7816164E-02  0.1312668E+00
        -11   -1    0    0    0    0  0.00000000000E+00  0.00000000000E+00  0.45593999997E+02  0.45594000000E+02  0.51100000000E-03 0.  1.
         11   -1    0    0    0    0 -0.00000000000E+00 -0.00000000000E+00 -0.45593999997E+02  0.45594000000E+02  0.51100000000E-03 0. -1.
    9900012    2    1    2    0    0  0.25589767525E+02 -0.31014564984E+02  0.16336578747E+02  0.47787271339E+02  0.20000001342E+02 0.  0.
         12    1    1    2    0    0 -0.25589767525E+02  0.31014564984E+02 -0.16336578747E+02  0.43400728661E+02  0.00000000000E+00 0. -1.
         11    1    3    3    0    0  0.18557344377E+01 -0.81366988059E+01  0.50447352099E+01  0.97518701469E+01  0.51100000000E-03 0. -1.
        -11    1    3    3    0    0  0.69810824075E+01 -0.13189034687E+02  0.11240421664E+02  0.18682430971E+02  0.51100000000E-03 0.  1.
         12    1    3    3    0    0  0.16752950680E+02 -0.96888314913E+01  0.51421873482E-01  0.19352970221E+02  0.00000000000E+00 0. -1.
</event>
<event>
 7    1  0.2318319E-009  0.4778726E+02  0.7816164E-02  0.1312668E+00
        -11   -1    0    0    0    0  0.00000000000E+00  0.00000000000E+00  0.45593999997E+02  0.45594000000E+02  0.51100000000E-03 0.  1.
         11   -1    0    0    0    0 -0.00000000000E+00 -0.00000000000E+00 -0.45593999997E+02  0.45594000000E+02  0.51100000000E-03 0. -1.
    9900012    2    1    2    0    0 -0.29559917508E+02  0.31591955786E+02  0.34327499637E+01  0.47787260769E+02  0.19999953150E+02 0.  0.
         12    1    1    2    0    0  0.29559917508E+02 -0.31591955786E+02 -0.34327499637E+01  0.43400739231E+02  0.00000000000E+00 0. -1.
         11    1    3    3    0    0 -0.10121705403E+02  0.19671644335E+02  0.50675352235E+01  0.22695868007E+02  0.51100000000E-03 0. -1.
        -11    1    3    3    0    0 -0.61991959193E+01  0.49493693298E+01  0.42669111206E+01  0.90073757322E+01  0.51100000000E-03 0.  1.
         12    1    3    3    0    0 -0.13239016186E+02  0.69709421211E+01 -0.59016963804E+01  0.16084017029E+02  0.00000000000E+00 0. -1.
</event>
<event>
 7    1  0.2318319E-009  0.4778727E+02  0.7816164E-02  0.1312668E+00
        -11   -1    0    0    0    0  0.00000000000E+00  0.00000000000E+00  0.45593999997E+02  0.45594000000E+02  0.51100000000E-03 0.  1.
         11   -1    0    0    0    0 -0.00000000000E+00 -0.00000000000E+00 -0.45593999997E+02  0.45594000000E+02  0.51100000000E-03 0. -1.
    9900012    2    1    2    0    0  0.23358097617E+02 -0.21732407845E+02  0.29423206357E+02  0.47787270198E+02  0.19999996142E+02 0.  0.
         12    1    1    2    0    0 -0.23358097617E+02  0.21732407845E+02 -0.29423206357E+02  0.43400729802E+02  0.00000000000E+00 0. -1.
         11    1    3    3    0    0  0.58658824880E+01 -0.74928641000E+01  0.94565186494E+01  0.13415563164E+02  0.51100000000E-03 0. -1.
        -11    1    3    3    0    0  0.48069359630E+01 -0.12510322811E+02  0.16202875369E+02  0.21027315108E+02  0.51100000000E-03 0.  1.
         12    1    3    3    0    0  0.12685279166E+02 -0.17292209335E+01  0.37638123390E+01  0.13344391926E+02  0.00000000000E+00 0. -1.
</event>
<event>
 7    1  0.2318319E-009  0.4778727E+02  0.7816164E-02  0.1312668E+00
        -11   -1    0    0    0    0  0.00000000000E+00  0.00000000000E+00  0.45593999997E+02  0.45594000000E+02  0.51100000000E-03 0.  1.
         11   -1    0    0    0    0 -0.00000000000E+00 -0.00000000000E+00 -0.45593999997E+02  0.45594000000E+02  0.51100000000E-03 0. -1.
    9900012    2    1    2    0    0  0.11702197970E+02 -0.26295514776E+02  0.32484274323E+02  0.47787267137E+02  0.19999982186E+02 0.  0.
         12    1    1    2    0    0 -0.11702197970E+02  0.26295514776E+02 -0.32484274323E+02  0.43400732863E+02  0.00000000000E+00 0. -1.
         11    1    3    3    0    0  0.43483685875E+01 -0.10461623941E+02  0.16376619239E+02  0.19913501521E+02  0.51100000000E-03 0. -1.
        -11    1    3    3    0    0  0.11386933577E+02 -0.91058115413E+01  0.12643506909E+02  0.19298609466E+02  0.51100000000E-03 0.  1.
         12    1    3    3    0    0 -0.40331041940E+01 -0.67280792936E+01  0.34641481754E+01  0.85751561503E+01  0.00000000000E+00 0. -1.
</event>
<event>
 7    1  0.2318319E-009  0.4778727E+02  0.7816164E-02  0.1312668E+00
        -11   -1    0    0    0    0  0.00000000000E+00  0.00000000000E+00  0.45593999997E+02  0.45594000000E+02  0.51100000000E-03 0.  1.
         11   -1    0    0    0    0 -0.00000000000E+00 -0.00000000000E+00 -0.45593999997E+02  0.45594000000E+02  0.51100000000E-03 0. -1.
    9900012    2    1    2    0    0  0.40234796694E+02  0.18323818483E+00  0.16271160317E+02  0.47787273056E+02  0.20000009170E+02 0.  0.
         12    1    1    2    0    0 -0.40234796694E+02 -0.18323818483E+00 -0.16271160317E+02  0.43400726944E+02  0.00000000000E+00 0. -1.
         11    1    3    3    0    0  0.13281846139E+02 -0.37251095078E+01  0.38513468993E+01  0.14321897601E+02  0.51100000000E-03 0. -1.
        -11    1    3    3    0    0  0.18513022925E+02 -0.42369829641E+01  0.10094366364E+02  0.21507679443E+02  0.51100000000E-03 0.  1.
         12    1    3    3    0    0  0.84399276296E+01  0.81453306567E+01  0.23254470541E+01  0.11957696011E+02  0.00000000000E+00 0. -1.
</event>
<event>
 7    1  0.2318319E-009  0.4778727E+02  0.7816164E-02  0.1312668E+00
        -11   -1    0    0    0    0  0.00000000000E+00  0.00000000000E+00  0.45593999997E+02  0.45594000000E+02  0.51100000000E-03 0.  1.
         11   -1    0    0    0    0 -0.00000000000E+00 -0.00000000000E+00 -0.45593999997E+02  0.45594000000E+02  0.51100000000E-03 0. -1.
    9900012    2    1    2    0    0  0.22499746634E+02  0.19940959541E+02  0.31300845467E+02  0.47787269673E+02  0.19999993747E+02 0.  0.
         12    1    1    2    0    0 -0.22499746634E+02 -0.19940959541E+02 -0.31300845467E+02  0.43400730327E+02  0.00000000000E+00 0. -1.
         11    1    3    3    0    0 -0.88558703588E+00 -0.49402594026E+00  0.50239583322E+01  0.51252788814E+01  0.51100000000E-03 0. -1.
        -11    1    3    3    0    0  0.16254533422E+02  0.73772753324E+01  0.19102562491E+02  0.26144635053E+02  0.51100000000E-03 0.  1.
        -12    1    3    3    0    0  0.71308002479E+01  0.13057710149E+02  0.71743246441E+01  0.16517355739E+02  0.00000000000E+00 0.  1.
</event>
<event>
 7    1  0.2318319E-009  0.4778727E+02  0.7816164E-02  0.1312668E+00
        -11   -1    0    0    0    0  0.00000000000E+00  0.00000000000E+00  0.45593999997E+02  0.45594000000E+02  0.51100000000E-03 0.  1.
         11   -1    0    0    0    0 -0.00000000000E+00 -0.00000000000E+00 -0.45593999997E+02  0.45594000000E+02  0.51100000000E-03 0. -1.
    9900012    2    1    2    0    0 -0.19621424294E+02  0.23395615813E+02  0.30842639481E+02  0.47787267970E+02  0.19999985982E+02 0.  0.
         12    1    1    2    0    0  0.19621424294E+02 -0.23395615813E+02 -0.30842639481E+02  0.43400732030E+02  0.00000000000E+00 0. -1.
         11    1    3    3    0    0 -0.99081263339E+01  0.68610456177E+01  0.74706500643E+01  0.14179405032E+02  0.51100000000E-03 0. -1.
        -11    1    3    3    0    0 -0.13054819963E+02  0.10315623465E+02  0.13263806840E+02  0.21278368920E+02  0.51100000000E-03 0.  1.
         12    1    3    3    0    0  0.33415220035E+01  0.62189467311E+01  0.10108182577E+02  0.12329494018E+02  0.00000000000E+00 0. -1.
</event>
<event>
 7    1  0.2318319E-009  0.4778727E+02  0.7816164E-02  0.1312668E+00
        -11   -1    0    0    0    0  0.00000000000E+00  0.00000000000E+00  0.45593999997E+02  0.45594000000E+02  0.51100000000E-03 0.  1.
         11   -1    0    0    0    0 -0.00000000000E+00 -0.00000000000E+00 -0.45593999997E+02  0.45594000000E+02  0.51100000000E-03 0. -1.
    9900012    2    1    2    0    0 -0.26087483281E+02  0.33830869861E+02  0.76510823297E+01  0.47787267284E+02  0.19999982856E+02 0.  0.
         12    1    1    2    0    0  0.26087483281E+02 -0.33830869861E+02 -0.76510823297E+01  0.43400732716E+02  0.00000000000E+00 0. -1.
         11    1    3    3    0    0 -0.23837665343E+02  0.21281432040E+02 -0.98954141415E+00  0.31970499389E+02  0.51100000000E-03 0. -1.
        -11    1    3    3    0    0 -0.22271208341E+01  0.35281936611E+01  0.34119115192E+01  0.53897456523E+01  0.51100000000E-03 0.  1.
         12    1    3    3    0    0 -0.22697103917E-01  0.90212441591E+01  0.52287122246E+01  0.10427022243E+02  0.00000000000E+00 0. -1.
</event>
<event>
 7    1  0.2318319E-009  0.4778727E+02  0.7816164E-02  0.1312668E+00
        -11   -1    0    0    0    0  0.00000000000E+00  0.00000000000E+00  0.45593999997E+02  0.45594000000E+02  0.51100000000E-03 0.  1.
         11   -1    0    0    0    0 -0.00000000000E+00 -0.00000000000E+00 -0.45593999997E+02  0.45594000000E+02  0.51100000000E-03 0. -1.
    9900012    2    1    2    0    0 -0.19099481376E+02  0.31628425049E+02  0.22770070392E+02  0.47787267684E+02  0.19999984678E+02 0.  0.
         12    1    1    2    0    0  0.19099481376E+02 -0.31628425049E+02 -0.22770070392E+02  0.43400732316E+02  0.00000000000E+00 0. -1.
         11    1    3    3    0    0  0.25037353756E+01  0.21888992930E+01  0.73588881649E+00  0.34060979958E+01  0.51100000000E-03 0. -1.
        -11    1    3    3    0    0 -0.10411527000E+02  0.74392982459E+01  0.28256576207E+01  0.13104479925E+02  0.51100000000E-03 0.  1.
         12    1    3    3    0    0 -0.11191689752E+02  0.22000227510E+02  0.19208523954E+02  0.31276689763E+02  0.00000000000E+00 0. -1.
</event>
<event>
 7    1  0.2318319E-009  0.4778728E+02  0.7816164E-02  0.1312668E+00
        -11   -1    0    0    0    0  0.00000000000E+00  0.00000000000E+00  0.45593999997E+02  0.45594000000E+02  0.51100000000E-03 0.  1.
         11   -1    0    0    0    0 -0.00000000000E+00 -0.00000000000E+00 -0.45593999997E+02  0.45594000000E+02  0.51100000000E-03 0. -1.
    9900012    2    1    2    0    0  0.76634813267E+01 -0.66397141219E+01  0.42199621357E+02  0.47787276592E+02  0.20000025295E+02 0.  0.
         12    1    1    2    0    0 -0.76634813267E+01  0.66397141219E+01 -0.42199621357E+02  0.43400723408E+02  0.00000000000E+00 0. -1.
         11    1    3    3    0    0 -0.36242812718E+01  0.27912648394E+01  0.27042992958E+01  0.53141141391E+01  0.51100000000E-03 0. -1.
        -11    1    3    3    0    0  0.20450207605E+01 -0.45165303288E+01  0.97223082507E+01  0.10913497794E+02  0.51100000000E-03 0.  1.
        -12    1    3    3    0    0  0.92427418380E+01 -0.49144486325E+01  0.29773013810E+02  0.31559664659E+02  0.00000000000E+00 0.  1.
</event>
<event>
 7    1  0.2318319E-009  0.4778728E+02  0.7816164E-02  0.1312668E+00
        -11   -1    0    0    0    0  0.00000000000E+00  0.00000000000E+00  0.45593999997E+02  0.45594000000E+02  0.51100000000E-03 0.  1.
         11   -1    0    0    0    0 -0.00000000000E+00 -0.00000000000E+00 -0.45593999997E+02  0.45594000000E+02  0.51100000000E-03 0. -1.
    9900012    2    1    2    0    0  0.33142227032E+01 -0.39602096655E+02  0.17444562738E+02  0.47787275343E+02  0.20000019601E+02 0.  0.
         12    1    1    2    0    0 -0.33142227032E+01  0.39602096655E+02 -0.17444562738E+02  0.43400724657E+02  0.00000000000E+00 0. -1.
         11    1    3    3    0    0  0.13749288230E+01  0.15229564167E+01  0.37695031569E+01  0.42917338951E+01  0.51100000000E-03 0. -1.
        -11    1    3    3    0    0 -0.81982991647E+00 -0.77023676860E+01  0.28940376271E+01  0.82688598434E+01  0.51100000000E-03 0.  1.
         12    1    3    3    0    0  0.27591237967E+01 -0.33422685386E+02  0.10781021954E+02  0.35226681605E+02  0.00000000000E+00 0. -1.
</event>
<event>
 7    1  0.2318319E-009  0.4778727E+02  0.7816164E-02  0.1312668E+00
        -11   -1    0    0    0    0  0.00000000000E+00  0.00000000000E+00  0.45593999997E+02  0.45594000000E+02  0.51100000000E-03 0.  1.
         11   -1    0    0    0    0 -0.00000000000E+00 -0.00000000000E+00 -0.45593999997E+02  0.45594000000E+02  0.51100000000E-03 0. -1.
    9900012    2    1    2    0    0  0.24369466256E+01 -0.34859364628E+02 -0.25739249409E+02  0.47787274531E+02  0.20000015896E+02 0.  0.
         12    1    1    2    0    0 -0.24369466256E+01  0.34859364628E+02  0.25739249409E+02  0.43400725469E+02  0.00000000000E+00 0. -1.
         11    1    3    3    0    0  0.15302514425E+01 -0.10109188476E+01 -0.23867735785E+01  0.30100356758E+01  0.51100000000E-03 0. -1.
        -11    1    3    3    0    0 -0.23693892332E+01 -0.91553303355E+01  0.15173759066E+01  0.95779177692E+01  0.51100000000E-03 0.  1.
        -12    1    3    3    0    0  0.32760844164E+01 -0.24693115445E+02 -0.24869851737E+02  0.35199321086E+02  0.00000000000E+00 0.  1.
</event>
<event>
 7    1  0.2318319E-009  0.4778727E+02  0.7816164E-02  0.1312668E+00
        -11   -1    0    0    0    0  0.00000000000E+00  0.00000000000E+00  0.45593999997E+02  0.45594000000E+02  0.51100000000E-03 0.  1.
         11   -1    0    0    0    0 -0.00000000000E+00 -0.00000000000E+00 -0.45593999997E+02  0.45594000000E+02  0.51100000000E-03 0. -1.
    9900012    2    1    2    0    0 -0.12360063869E+02  0.29651485224E+02  0.29182898710E+02  0.47787270375E+02  0.19999996949E+02 0.  0.
         12    1    1    2    0    0  0.12360063869E+02 -0.29651485224E+02 -0.29182898710E+02  0.43400729625E+02  0.00000000000E+00 0. -1.
         11    1    3    3    0    0  0.53576320018E+01  0.72377685859E+01  0.66070018723E+01  0.11168795314E+02  0.51100000000E-03 0. -1.
        -11    1    3    3    0    0 -0.34352761403E+01  0.42512800987E+01  0.25031987976E+01  0.60116976902E+01  0.51100000000E-03 0.  1.
         12    1    3    3    0    0 -0.14282419730E+02  0.18162436539E+02  0.20072698040E+02  0.30606777371E+02  0.00000000000E+00 0. -1.
</event>
<event>
 7    1  0.2318319E-009  0.4778727E+02  0.7816164E-02  0.1312668E+00
        -11   -1    0    0    0    0  0.00000000000E+00  0.00000000000E+00  0.45593999997E+02  0.45594000000E+02  0.51100000000E-03 0.  1.
         11   -1    0    0    0    0 -0.00000000000E+00 -0.00000000000E+00 -0.45593999997E+02  0.45594000000E+02  0.51100000000E-03 0. -1.
    9900012    2    1    2    0    0  0.24009239146E+02 -0.31753328660E+02  0.17288889897E+02  0.47787272365E+02  0.20000006022E+02 0.  0.
         12    1    1    2    0    0 -0.24009239146E+02  0.31753328660E+02 -0.17288889897E+02  0.43400727635E+02  0.00000000000E+00 0. -1.
         11    1    3    3    0    0 -0.61919122562E+00 -0.17002092177E+01  0.36068656318E+01  0.40352929392E+01  0.51100000000E-03 0. -1.
        -11    1    3    3    0    0 -0.18499148635E+01 -0.22859086892E+01 -0.20529805208E+00  0.29478315910E+01  0.51100000000E-03 0.  1.
        -12    1    3    3    0    0  0.26478345235E+02 -0.27767210753E+02  0.13887322317E+02  0.40804147835E+02  0.00000000000E+00 0.  1.
</event>
<event>
 7    1  0.2318319E-009  0.4778727E+02  0.7816164E-02  0.1312668E+00
        -11   -1    0    0    0    0  0.00000000000E+00  0.00000000000E+00  0.45593999997E+02  0.45594000000E+02  0.51100000000E-03 0. -1.
         11   -1    0    0    0    0 -0.00000000000E+00 -0.00000000000E+00 -0.45593999997E+02  0.45594000000E+02  0.51100000000E-03 0.  1.
    9900012    2    1    2    0    0 -0.41928843613E+02  0.38638519431E+01 -0.10519782246E+02  0.47787273081E+02  0.20000009288E+02 0.  0.
         12    1    1    2    0    0  0.41928843613E+02 -0.38638519431E+01  0.10519782246E+02  0.43400726919E+02  0.00000000000E+00 0. -1.
         11    1    3    3    0    0 -0.24315261227E+01  0.29937051636E+01 -0.48402846184E+00  0.38870134686E+01  0.51100000000E-03 0. -1.
        -11    1    3    3    0    0 -0.20165519199E+02 -0.10989434008E+01 -0.13320453085E+02  0.24192773959E+02  0.51100000000E-03 0.  1.
        -12    1    3    3    0    0 -0.19331798291E+02  0.19690901803E+01  0.32846993010E+01  0.19707485654E+02  0.00000000000E+00 0.  1.
</event>
<event>
 7    1  0.2318319E-009  0.4778727E+02  0.7816164E-02  0.1312668E+00
        -11   -1    0    0    0    0  0.00000000000E+00  0.00000000000E+00  0.45593999997E+02  0.45594000000E+02  0.51100000000E-03 0.  1.
         11   -1    0    0    0    0 -0.00000000000E+00 -0.00000000000E+00 -0.45593999997E+02  0.45594000000E+02  0.51100000000E-03 0. -1.
    9900012    2    1    2    0    0 -0.19441354508E+02  0.30254067658E+02  0.24297083291E+02  0.47787272685E+02  0.20000007482E+02 0.  0.
         12    1    1    2    0    0  0.19441354508E+02 -0.30254067658E+02 -0.24297083291E+02  0.43400727315E+02  0.00000000000E+00 0. -1.
         11    1    3    3    0    0 -0.19011706186E+01  0.36236962436E+01 -0.12204087351E+00  0.40939612141E+01  0.51100000000E-03 0.  1.
        -11    1    3    3    0    0 -0.12305870776E+02  0.19092094889E+02  0.25842695888E+02  0.34406212721E+02  0.51100000000E-03 0. -1.
         12    1    3    3    0    0 -0.52343131140E+01  0.75382765251E+01 -0.14235717230E+01  0.92870987501E+01  0.00000000000E+00 0. -1.
</event>
<event>
 7    1  0.2318319E-009  0.4778727E+02  0.7816164E-02  0.1312668E+00
        -11   -1    0    0    0    0  0.00000000000E+00  0.00000000000E+00  0.45593999997E+02  0.45594000000E+02  0.51100000000E-03 0. -1.
         11   -1    0    0    0    0 -0.00000000000E+00 -0.00000000000E+00 -0.45593999997E+02  0.45594000000E+02  0.51100000000E-03 0.  1.
    9900012    2    1    2    0    0  0.40424047624E+02 -0.97446443709E+01 -0.12432275426E+02  0.47787271982E+02  0.20000004274E+02 0.  0.
         12    1    1    2    0    0 -0.40424047624E+02  0.97446443709E+01  0.12432275426E+02  0.43400728018E+02  0.00000000000E+00 0. -1.
         11    1    3    3    0    0  0.84678224861E+00 -0.19101042304E+01 -0.18793151015E+01  0.28102248770E+01  0.51100000000E-03 0. -1.
        -11    1    3    3    0    0  0.31100274965E+02 -0.10576640245E+02 -0.13610516749E+02  0.35557539119E+02  0.51100000000E-03 0.  1.
         12    1    3    3    0    0  0.84769904106E+01  0.27421001047E+01  0.30575564245E+01  0.94195079858E+01  0.00000000000E+00 0. -1.
</event>
<event>
 7    1  0.2318319E-009  0.4778726E+02  0.7816164E-02  0.1312668E+00
        -11   -1    0    0    0    0  0.00000000000E+00  0.00000000000E+00  0.45593999997E+02  0.45594000000E+02  0.51100000000E-03 0.  1.
         11   -1    0    0    0    0 -0.00000000000E+00 -0.00000000000E+00 -0.45593999997E+02  0.45594000000E+02  0.51100000000E-03 0. -1.
    9900012    2    1    2    0    0 -0.37060672442E+02 -0.15723914538E+02  0.16213857071E+02  0.47787261626E+02  0.19999957059E+02 0.  0.
         12    1    1    2    0    0  0.37060672442E+02  0.15723914538E+02 -0.16213857071E+02  0.43400738374E+02  0.00000000000E+00 0. -1.
         11    1    3    3    0    0 -0.16271284739E+02 -0.27223988724E+01  0.38256047222E+00  0.16501894298E+02  0.51100000000E-03 0. -1.
        -11    1    3    3    0    0 -0.10570002614E+02 -0.17866777482E+01  0.23185277038E+01  0.10967804868E+02  0.51100000000E-03 0.  1.
        -12    1    3    3    0    0 -0.10219385089E+02 -0.11214837917E+02  0.13512768895E+02  0.20317562460E+02  0.00000000000E+00 0.  1.
</event>
<event>
 7    1  0.2318319E-009  0.4778727E+02  0.7816164E-02  0.1312668E+00
        -11   -1    0    0    0    0  0.00000000000E+00  0.00000000000E+00  0.45593999997E+02  0.45594000000E+02  0.51100000000E-03 0. -1.
         11   -1    0    0    0    0 -0.00000000000E+00 -0.00000000000E+00 -0.45593999997E+02  0.45594000000E+02  0.51100000000E-03 0.  1.
    9900012    2    1    2    0    0  0.34169331055E+02 -0.12592942661E+02  0.23611390208E+02  0.47787272619E+02  0.20000007180E+02 0.  0.
         12    1    1    2    0    0 -0.34169331055E+02  0.12592942661E+02 -0.23611390208E+02  0.43400727381E+02  0.00000000000E+00 0. -1.
         11    1    3    3    0    0  0.50621762436E+01  0.17941594131E+01  0.48264895987E+01  0.72207782426E+01  0.51100000000E-03 0. -1.
        -11    1    3    3    0    0  0.85782657290E+01 -0.98249820073E+01  0.13730569961E+02  0.18937937218E+02  0.51100000000E-03 0.  1.
        -12    1    3    3    0    0  0.20528889082E+02 -0.45621200671E+01  0.50543306486E+01  0.21628557159E+02  0.00000000000E+00 0.  1.
</event>
<event>
 7    1  0.2318319E-009  0.4778728E+02  0.7816164E-02  0.1312668E+00
        -11   -1    0    0    0    0  0.00000000000E+00  0.00000000000E+00  0.45593999997E+02  0.45594000000E+02  0.51100000000E-03 0. -1.
         11   -1    0    0    0    0 -0.00000000000E+00 -0.00000000000E+00 -0.45593999997E+02  0.45594000000E+02  0.51100000000E-03 0.  1.
    9900012    2    1    2    0    0  0.33063979008E+02 -0.19688242310E+02 -0.20069108388E+02  0.47787277603E+02  0.20000029902E+02 0.  0.
         12    1    1    2    0    0 -0.33063979008E+02  0.19688242310E+02  0.20069108388E+02  0.43400722397E+02  0.00000000000E+00 0. -1.
         11    1    3    3    0    0  0.17921108871E+02 -0.12870036959E+02 -0.64598325955E+01  0.22989854978E+02  0.51100000000E-03 0. -1.
        -11    1    3    3    0    0  0.61850639219E+01 -0.95051405562E+01 -0.81909998921E+01  0.13989109772E+02  0.51100000000E-03 0.  1.
         12    1    3    3    0    0  0.89578062160E+01  0.26869352056E+01 -0.54182759003E+01  0.10808312853E+02  0.00000000000E+00 0. -1.
</event>
<event>
 7    1  0.2318319E-009  0.4778727E+02  0.7816164E-02  0.1312668E+00
        -11   -1    0    0    0    0  0.00000000000E+00  0.00000000000E+00  0.45593999997E+02  0.45594000000E+02  0.51100000000E-03 0. -1.
         11   -1    0    0    0    0 -0.00000000000E+00 -0.00000000000E+00 -0.45593999997E+02  0.45594000000E+02  0.51100000000E-03 0.  1.
    9900012    2    1    2    0    0 -0.25799687903E+02 -0.16968835667E+02 -0.30496848802E+02  0.47787273432E+02  0.20000010885E+02 0.  0.
         12    1    1    2    0    0  0.25799687903E+02  0.16968835667E+02  0.30496848802E+02  0.43400726568E+02  0.00000000000E+00 0. -1.
         11    1    3    3    0    0 -0.10326685026E+02 -0.40727254414E+01 -0.38296513245E+01  0.11742816769E+02  0.51100000000E-03 0. -1.
        -11    1    3    3    0    0 -0.13409032720E+02 -0.66386647355E+01 -0.96711359502E+01  0.17815860877E+02  0.51100000000E-03 0.  1.
         12    1    3    3    0    0 -0.20639701567E+01 -0.62574454897E+01 -0.16996061528E+02  0.18228595786E+02  0.00000000000E+00 0. -1.
</event>
<event>
 7    1  0.2318319E-009  0.4778727E+02  0.7816164E-02  0.1312668E+00
        -11   -1    0    0    0    0  0.00000000000E+00  0.00000000000E+00  0.45593999997E+02  0.45594000000E+02  0.51100000000E-03 0.  1.
         11   -1    0    0    0    0 -0.00000000000E+00 -0.00000000000E+00 -0.45593999997E+02  0.45594000000E+02  0.51100000000E-03 0. -1.
    9900012    2    1    2    0    0 -0.97546611956E+01  0.21134872113E+02  0.36630409179E+02  0.47787272922E+02  0.20000008563E+02 0.  0.
         12    1    1    2    0    0  0.97546611956E+01 -0.21134872113E+02 -0.36630409179E+02  0.43400727078E+02  0.00000000000E+00 0. -1.
         11    1    3    3    0    0  0.10268317832E+01 -0.58075726959E-01  0.32095952202E+01  0.33703498394E+01  0.51100000000E-03 0. -1.
        -11    1    3    3    0    0 -0.85682044310E+01  0.16113791029E+01  0.15484444071E+02  0.17770162583E+02  0.51100000000E-03 0.  1.
         12    1    3    3    0    0 -0.22132885478E+01  0.19581568737E+02  0.17936369887E+02  0.26646760500E+02  0.00000000000E+00 0. -1.
</event>
<event>
 7    1  0.2318319E-009  0.4778727E+02  0.7816164E-02  0.1312668E+00
        -11   -1    0    0    0    0  0.00000000000E+00  0.00000000000E+00  0.45593999997E+02  0.45594000000E+02  0.51100000000E-03 0.  1.
         11   -1    0    0    0    0 -0.00000000000E+00 -0.00000000000E+00 -0.45593999997E+02  0.45594000000E+02  0.51100000000E-03 0. -1.
    9900012    2    1    2    0    0  0.12718080471E+02 -0.12299467237E+02  0.39630754247E+02  0.47787272501E+02  0.20000006643E+02 0.  0.
         12    1    1    2    0    0 -0.12718080471E+02  0.12299467237E+02 -0.39630754247E+02  0.43400727499E+02  0.00000000000E+00 0. -1.
         11    1    3    3    0    0  0.43167824806E+01 -0.95610297113E+01  0.28784559411E+02  0.30636559220E+02  0.51100000000E-03 0. -1.
        -11    1    3    3    0    0  0.33963239968E+01 -0.25416516282E+01  0.11349779321E+02  0.12116620840E+02  0.51100000000E-03 0.  1.
        -12    1    3    3    0    0  0.50049739940E+01 -0.19678589731E+00 -0.50358448429E+00  0.50340924408E+01  0.00000000000E+00 0.  1.
</event>
<event>
 7    1  0.2318319E-009  0.4778726E+02  0.7816164E-02  0.1312668E+00
        -11   -1    0    0    0    0  0.00000000000E+00  0.00000000000E+00  0.45593999997E+02  0.45594000000E+02  0.51100000000E-03 0. -1.
         11   -1    0    0    0    0 -0.00000000000E+00 -0.00000000000E+00 -0.45593999997E+02  0.45594000000E+02  0.51100000000E-03 0.  1.
    9900012    2    1    2    0    0 -0.30331131871E+02 -0.10280600715E+02 -0.29290884874E+02  0.47787259818E+02  0.19999948813E+02 0.  0.
         12    1    1    2    0    0  0.30331131871E+02  0.10280600715E+02  0.29290884874E+02  0.43400740182E+02  0.00000000000E+00 0. -1.
         11    1    3    3    0    0 -0.96929200226E+01 -0.11221553267E+02 -0.87315520801E+01  0.17208020173E+02  0.51100000000E-03 0. -1.
        -11    1    3    3    0    0 -0.37578796613E+01 -0.13214771502E+01 -0.13509660610E+00  0.39857512167E+01  0.51100000000E-03 0.  1.
        -12    1    3    3    0    0 -0.16880332187E+02  0.22624297020E+01 -0.20424236188E+02  0.26593488428E+02  0.00000000000E+00 0.  1.
</event>
<event>
 7    1  0.2318319E-009  0.4778727E+02  0.7816164E-02  0.1312668E+00
        -11   -1    0    0    0    0  0.00000000000E+00  0.00000000000E+00  0.45593999997E+02  0.45594000000E+02  0.51100000000E-03 0.  1.
         11   -1    0    0    0    0 -0.00000000000E+00 -0.00000000000E+00 -0.45593999997E+02  0.45594000000E+02  0.51100000000E-03 0. -1.
    9900012    2    1    2    0    0  0.44880462471E+01  0.90448996719E+01  0.42209842830E+02  0.47787267277E+02  0.19999982822E+02 0.  0.
         12    1    1    2    0    0 -0.44880462471E+01 -0.90448996719E+01 -0.42209842830E+02  0.43400732723E+02  0.00000000000E+00 0. -1.
         11    1    3    3    0    0  0.32220500784E+01 -0.16406441694E+01  0.17979824659E+02  0.18339776854E+02  0.51100000000E-03 0. -1.
        -11    1    3    3    0    0  0.52172976514E+01  0.52955985318E+01  0.20472600037E+02  0.21780516778E+02  0.51100000000E-03 0.  1.
        -12    1    3    3    0    0 -0.39513014826E+01  0.53899453094E+01  0.37574181339E+01  0.76669736454E+01  0.00000000000E+00 0.  1.
</event>
<event>
 7    1  0.2318319E-009  0.4778728E+02  0.7816164E-02  0.1312668E+00
        -11   -1    0    0    0    0  0.00000000000E+00  0.00000000000E+00  0.45593999997E+02  0.45594000000E+02  0.51100000000E-03 0.  1.
         11   -1    0    0    0    0 -0.00000000000E+00 -0.00000000000E+00 -0.45593999997E+02  0.45594000000E+02  0.51100000000E-03 0. -1.
    9900012    2    1    2    0    0 -0.20344077919E+01 -0.33918413759E+02  0.27000461544E+02  0.47787279608E+02  0.20000039043E+02 0.  0.
         12    1    1    2    0    0  0.20344077919E+01  0.33918413759E+02 -0.27000461544E+02  0.43400720392E+02  0.00000000000E+00 0. -1.
         11    1    3    3    0    0  0.23063489642E+01 -0.10910035845E+02  0.10657672764E+02  0.15425113182E+02  0.51100000000E-03 0. -1.
        -11    1    3    3    0    0  0.20631329433E+01 -0.14450111867E+02  0.16013954730E+02  0.21668156287E+02  0.51100000000E-03 0.  1.
         12    1    3    3    0    0 -0.64038896994E+01 -0.85582660469E+01  0.32883405010E+00  0.10694010139E+02  0.00000000000E+00 0. -1.
</event>
<event>
 7    1  0.2318319E-009  0.4778727E+02  0.7816164E-02  0.1312668E+00
        -11   -1    0    0    0    0  0.00000000000E+00  0.00000000000E+00  0.45593999997E+02  0.45594000000E+02  0.51100000000E-03 0.  1.
         11   -1    0    0    0    0 -0.00000000000E+00 -0.00000000000E+00 -0.45593999997E+02  0.45594000000E+02  0.51100000000E-03 0. -1.
    9900012    2    1    2    0    0  0.35517024314E+02 -0.22548926054E+02  0.10663508830E+02  0.47787268406E+02  0.19999987970E+02 0.  0.
         12    1    1    2    0    0 -0.35517024314E+02  0.22548926054E+02 -0.10663508830E+02  0.43400731594E+02  0.00000000000E+00 0. -1.
         11    1    3    3    0    0  0.57119008276E+01 -0.30834934181E+01 -0.18591101173E+01  0.67520392041E+01  0.51100000000E-03 0. -1.
        -11    1    3    3    0    0  0.23838667892E+02 -0.15260821942E+02  0.21969011510E+01  0.28390159354E+02  0.51100000000E-03 0.  1.
         12    1    3    3    0    0  0.59664555947E+01 -0.42046106932E+01  0.10325717796E+02  0.12645069848E+02  0.00000000000E+00 0. -1.
</event>
<event>
 7    1  0.2318319E-009  0.4778727E+02  0.7816164E-02  0.1312668E+00
        -11   -1    0    0    0    0  0.00000000000E+00  0.00000000000E+00  0.45593999997E+02  0.45594000000E+02  0.51100000000E-03 0. -1.
         11   -1    0    0    0    0 -0.00000000000E+00 -0.00000000000E+00 -0.45593999997E+02  0.45594000000E+02  0.51100000000E-03 0.  1.
    9900012    2    1    2    0    0 -0.42691459587E+02  0.40425582475E+01  0.66873336847E+01  0.47787269238E+02  0.19999991762E+02 0.  0.
         12    1    1    2    0    0  0.42691459587E+02 -0.40425582475E+01 -0.66873336847E+01  0.43400730762E+02  0.00000000000E+00 0. -1.
         11    1    3    3    0    0 -0.19905535176E+01  0.32711494390E+00 -0.36300286558E+01  0.41528804216E+01  0.51100000000E-03 0. -1.
        -11    1    3    3    0    0 -0.63051600867E+01  0.12528722077E+01 -0.24264701273E+01  0.68711345517E+01  0.51100000000E-03 0.  1.
        -12    1    3    3    0    0 -0.34395745983E+02  0.24625710959E+01  0.12743832468E+02  0.36763254264E+02  0.00000000000E+00 0.  1.
</event>
<event>
 7    1  0.2318319E-009  0.4778733E+02  0.7816164E-02  0.1312667E+00
        -11   -1    0    0    0    0  0.00000000000E+00  0.00000000000E+00  0.45593999997E+02  0.45594000000E+02  0.51100000000E-03 0.  1.
         11   -1    0    0    0    0 -0.00000000000E+00 -0.00000000000E+00 -0.45593999997E+02  0.45594000000E+02  0.51100000000E-03 0. -1.
    9900012    2    1    2    0    0  0.73530460345E+01 -0.19498716520E+02 -0.38070336314E+02  0.47787334810E+02  0.20000290728E+02 0.  0.
         12    1    1    2    0    0 -0.73530460345E+01  0.19498716520E+02  0.38070336314E+02  0.43400665190E+02  0.00000000000E+00 0. -1.
         11    1    3    3    0    0  0.38496598666E+00  0.18485325517E+00 -0.49744320049E+01  0.49927290703E+01  0.51100000000E-03 0. -1.
        -11    1    3    3    0    0  0.46843415848E+01 -0.11016487931E+02 -0.44370493234E+01  0.12766889573E+02  0.51100000000E-03 0.  1.
        -12    1    3    3    0    0  0.22837384630E+01 -0.86670818446E+01 -0.28658854986E+02  0.30027716166E+02  0.00000000000E+00 0.  1.
</event>
<event>
 7    1  0.2318319E-009  0.4778728E+02  0.7816164E-02  0.1312668E+00
        -11   -1    0    0    0    0  0.00000000000E+00  0.00000000000E+00  0.45593999997E+02  0.45594000000E+02  0.51100000000E-03 0.  1.
         11   -1    0    0    0    0 -0.00000000000E+00 -0.00000000000E+00 -0.45593999997E+02  0.45594000000E+02  0.51100000000E-03 0. -1.
    9900012    2    1    2    0    0  0.13999031433E+02  0.29420161312E+01  0.40975534893E+02  0.47787276506E+02  0.20000024903E+02 0.  0.
         12    1    1    2    0    0 -0.13999031433E+02 -0.29420161312E+01 -0.40975534893E+02  0.43400723494E+02  0.00000000000E+00 0. -1.
         11    1    3    3    0    0  0.97416814835E+01  0.11547535713E+01  0.19429134755E+02  0.21765226660E+02  0.51100000000E-03 0. -1.
        -11    1    3    3    0    0  0.79046181091E+01  0.47982897606E+01  0.17520773860E+02  0.19811211194E+02  0.51100000000E-03 0.  1.
        -12    1    3    3    0    0 -0.36472681599E+01 -0.30110272008E+01  0.40256262783E+01  0.62108386524E+01  0.00000000000E+00 0.  1.
</event>
<event>
 7    1  0.2318319E-009  0.4778726E+02  0.7816164E-02  0.1312668E+00
        -11   -1    0    0    0    0  0.00000000000E+00  0.00000000000E+00  0.45593999997E+02  0.45594000000E+02  0.51100000000E-03 0.  1.
         11   -1    0    0    0    0 -0.00000000000E+00 -0.00000000000E+00 -0.45593999997E+02  0.45594000000E+02  0.51100000000E-03 0. -1.
    9900012    2    1    2    0    0  0.37929901477E+02 -0.72650484452E+00  0.21081241391E+02  0.47787262979E+02  0.19999963228E+02 0.  0.
         12    1    1    2    0    0 -0.37929901477E+02  0.72650484452E+00 -0.21081241391E+02  0.43400737021E+02  0.00000000000E+00 0. -1.
         11    1    3    3    0    0  0.24976473927E+02 -0.44113687092E+01  0.49743341796E+01  0.25846245849E+02  0.51100000000E-03 0. -1.
        -11    1    3    3    0    0  0.98083524650E+01 -0.66955435777E-01  0.90059581784E+01  0.13315988288E+02  0.51100000000E-03 0.  1.
         12    1    3    3    0    0  0.31450750849E+01  0.37518193005E+01  0.71009490335E+01  0.86250288422E+01  0.00000000000E+00 0. -1.
</event>
<event>
 7    1  0.2318319E-009  0.4778728E+02  0.7816164E-02  0.1312668E+00
        -11   -1    0    0    0    0  0.00000000000E+00  0.00000000000E+00  0.45593999997E+02  0.45594000000E+02  0.51100000000E-03 0.  1.
         11   -1    0    0    0    0 -0.00000000000E+00 -0.00000000000E+00 -0.45593999997E+02  0.45594000000E+02  0.51100000000E-03 0. -1.
    9900012    2    1    2    0    0 -0.25709788685E+02 -0.23429837036E+02  0.25955190794E+02  0.47787280802E+02  0.20000044488E+02 0.  0.
         12    1    1    2    0    0  0.25709788685E+02  0.23429837036E+02 -0.25955190794E+02  0.43400719198E+02  0.00000000000E+00 0. -1.
         11    1    3    3    0    0 -0.72911542048E+01 -0.45416434502E+01  0.31789751340E+01  0.91593306541E+01  0.51100000000E-03 0. -1.
        -11    1    3    3    0    0 -0.25253817816E+00 -0.23649832219E+01  0.11254016724E+02  0.11502600308E+02  0.51100000000E-03 0.  1.
         12    1    3    3    0    0 -0.18166096302E+02 -0.16523210364E+02  0.11522198936E+02  0.27125349839E+02  0.00000000000E+00 0. -1.
</event>
<event>
 7    1  0.2318319E-009  0.4778727E+02  0.7816164E-02  0.1312668E+00
        -11   -1    0    0    0    0  0.00000000000E+00  0.00000000000E+00  0.45593999997E+02  0.45594000000E+02  0.51100000000E-03 0.  1.
         11   -1    0    0    0    0 -0.00000000000E+00 -0.00000000000E+00 -0.45593999997E+02  0.45594000000E+02  0.51100000000E-03 0. -1.
    9900012    2    1    2    0    0  0.10284192059E+00  0.31558447274E+02  0.29793912902E+02  0.47787269398E+02  0.19999992494E+02 0.  0.
         12    1    1    2    0    0 -0.10284192059E+00 -0.31558447274E+02 -0.29793912902E+02  0.43400730602E+02  0.00000000000E+00 0. -1.
         11    1    3    3    0    0 -0.40300534454E+01  0.41436524499E+01  0.17237166254E+01  0.60317813011E+01  0.51100000000E-03 0. -1.
        -11    1    3    3    0    0 -0.41016006516E+01  0.17080554602E+02  0.14089833517E+02  0.22518700722E+02  0.51100000000E-03 0.  1.
        -12    1    3    3    0    0  0.82344960176E+01  0.10334240221E+02  0.13980362759E+02  0.19236787375E+02  0.00000000000E+00 0.  1.
</event>
<event>
 7    1  0.2318319E-009  0.4778723E+02  0.7816164E-02  0.1312668E+00
        -11   -1    0    0    0    0  0.00000000000E+00  0.00000000000E+00  0.45593999997E+02  0.45594000000E+02  0.51100000000E-03 0.  1.
         11   -1    0    0    0    0 -0.00000000000E+00 -0.00000000000E+00 -0.45593999997E+02  0.45594000000E+02  0.51100000000E-03 0. -1.
    9900012    2    1    2    0    0 -0.35998356032E+01  0.81668972457E+01  0.42473162985E+02  0.47787232714E+02  0.19999825237E+02 0.  0.
         12    1    1    2    0    0  0.35998356032E+01 -0.81668972457E+01 -0.42473162985E+02  0.43400767286E+02  0.00000000000E+00 0. -1.
         11    1    3    3    0    0 -0.47427148254E+01 -0.52941556113E+01  0.20728883764E+02  0.21913649854E+02  0.51100000000E-03 0. -1.
        -11    1    3    3    0    0  0.33411301892E+00  0.32924144254E+01  0.87419207572E+01  0.93473420310E+01  0.51100000000E-03 0.  1.
         12    1    3    3    0    0  0.80876620323E+00  0.10168638432E+02  0.13002358465E+02  0.16526240830E+02  0.00000000000E+00 0. -1.
</event>
<event>
 7    1  0.2318319E-009  0.4778727E+02  0.7816164E-02  0.1312668E+00
        -11   -1    0    0    0    0  0.00000000000E+00  0.00000000000E+00  0.45593999997E+02  0.45594000000E+02  0.51100000000E-03 0.  1.
         11   -1    0    0    0    0 -0.00000000000E+00 -0.00000000000E+00 -0.45593999997E+02  0.45594000000E+02  0.51100000000E-03 0. -1.
    9900012    2    1    2    0    0 -0.17743043288E+02 -0.35011610133E+02  0.18520121443E+02  0.47787270427E+02  0.19999997186E+02 0.  0.
         12    1    1    2    0    0  0.17743043288E+02  0.35011610133E+02 -0.18520121443E+02  0.43400729573E+02  0.00000000000E+00 0. -1.
         11    1    3    3    0    0 -0.34158153983E+01 -0.26017124240E+01 -0.95570753260E+00  0.43988725284E+01  0.51100000000E-03 0. -1.
        -11    1    3    3    0    0  0.46557013529E+00 -0.14824683033E-01  0.48775346193E+01  0.48997264766E+01  0.51100000000E-03 0.  1.
        -12    1    3    3    0    0 -0.14792798025E+02 -0.32395073026E+02  0.14598294356E+02  0.38488671422E+02  0.00000000000E+00 0.  1.
</event>
<event>
 7    1  0.2318319E-009  0.4778727E+02  0.7816164E-02  0.1312668E+00
        -11   -1    0    0    0    0  0.00000000000E+00  0.00000000000E+00  0.45593999997E+02  0.45594000000E+02  0.51100000000E-03 0.  1.
         11   -1    0    0    0    0 -0.00000000000E+00 -0.00000000000E+00 -0.45593999997E+02  0.45594000000E+02  0.51100000000E-03 0. -1.
    9900012    2    1    2    0    0 -0.67709960753E+01  0.41912860322E+02  0.90049288739E+01  0.47787274289E+02  0.20000014795E+02 0.  0.
         12    1    1    2    0    0  0.67709960753E+01 -0.41912860322E+02 -0.90049288739E+01  0.43400725711E+02  0.00000000000E+00 0. -1.
         11    1    3    3    0    0  0.20411840669E+01  0.67609374274E+00  0.10011452970E+00  0.21525701670E+01  0.51100000000E-03 0. -1.
        -11    1    3    3    0    0 -0.73315466236E+01  0.65770967390E+01  0.38591401078E+01  0.10578409145E+02  0.51100000000E-03 0.  1.
         12    1    3    3    0    0 -0.14806335186E+01  0.34659669840E+02  0.50456742364E+01  0.35056294977E+02  0.00000000000E+00 0. -1.
</event>
<event>
 7    1  0.2318319E-009  0.4778727E+02  0.7816164E-02  0.1312668E+00
        -11   -1    0    0    0    0  0.00000000000E+00  0.00000000000E+00  0.45593999997E+02  0.45594000000E+02  0.51100000000E-03 0.  1.
         11   -1    0    0    0    0 -0.00000000000E+00 -0.00000000000E+00 -0.45593999997E+02  0.45594000000E+02  0.51100000000E-03 0. -1.
    9900012    2    1    2    0    0 -0.18470141811E+02  0.48634862979E+01  0.38972087931E+02  0.47787271029E+02  0.19999999931E+02 0.  0.
         12    1    1    2    0    0  0.18470141811E+02 -0.48634862979E+01 -0.38972087931E+02  0.43400728971E+02  0.00000000000E+00 0. -1.
         11    1    3    3    0    0 -0.14330666782E+02  0.48202838831E+01  0.15556751316E+02  0.21693677855E+02  0.51100000000E-03 0. -1.
        -11    1    3    3    0    0 -0.40776723484E+01  0.50254330512E+01  0.14541641385E+02  0.15916712084E+02  0.51100000000E-03 0.  1.
        -12    1    3    3    0    0 -0.61802680798E-01 -0.49822306364E+01  0.88736952295E+01  0.10176881090E+02  0.00000000000E+00 0.  1.
</event>
<event>
 7    1  0.2318319E-009  0.4778727E+02  0.7816164E-02  0.1312668E+00
        -11   -1    0    0    0    0  0.00000000000E+00  0.00000000000E+00  0.45593999997E+02  0.45594000000E+02  0.51100000000E-03 0.  1.
         11   -1    0    0    0    0 -0.00000000000E+00 -0.00000000000E+00 -0.45593999997E+02  0.45594000000E+02  0.51100000000E-03 0. -1.
    9900012    2    1    2    0    0  0.26171564153E+02  0.10958919728E+01  0.34604500658E+02  0.47787271720E+02  0.20000003081E+02 0.  0.
         12    1    1    2    0    0 -0.26171564153E+02 -0.10958919728E+01 -0.34604500658E+02  0.43400728280E+02  0.00000000000E+00 0. -1.
         11    1    3    3    0    0  0.93944252888E+01  0.21044837630E+01  0.35687720722E+01  0.10267434576E+02  0.51100000000E-03 0. -1.
        -11    1    3    3    0    0  0.51714678077E+01 -0.60371358338E+01  0.82344571544E+01  0.11445408392E+02  0.51100000000E-03 0.  1.
         12    1    3    3    0    0  0.11605671056E+02  0.50285440436E+01  0.22801271432E+02  0.26074428752E+02  0.00000000000E+00 0. -1.
</event>
<event>
 7    1  0.2318319E-009  0.4778727E+02  0.7816164E-02  0.1312668E+00
        -11   -1    0    0    0    0  0.00000000000E+00  0.00000000000E+00  0.45593999997E+02  0.45594000000E+02  0.51100000000E-03 0. -1.
         11   -1    0    0    0    0 -0.00000000000E+00 -0.00000000000E+00 -0.45593999997E+02  0.45594000000E+02  0.51100000000E-03 0.  1.
    9900012    2    1    2    0    0 -0.31125189090E+02 -0.29982615670E+02 -0.39860455296E+01  0.47787271927E+02  0.20000004025E+02 0.  0.
         12    1    1    2    0    0  0.31125189090E+02  0.29982615670E+02  0.39860455296E+01  0.43400728073E+02  0.00000000000E+00 0. -1.
         11    1    3    3    0    0 -0.15995571347E+02 -0.11242150377E+02  0.21730167429E+01  0.19671457746E+02  0.51100000000E-03 0. -1.
        -11    1    3    3    0    0 -0.95937182830E+01 -0.65101447517E+01  0.28613910644E+01  0.11941899944E+02  0.51100000000E-03 0.  1.
         12    1    3    3    0    0 -0.55358994595E+01 -0.12230320541E+02 -0.90204533369E+01  0.16173914238E+02  0.00000000000E+00 0. -1.
</event>
<event>
 7    1  0.2318319E-009  0.4778726E+02  0.7816164E-02  0.1312668E+00
        -11   -1    0    0    0    0  0.00000000000E+00  0.00000000000E+00  0.45593999997E+02  0.45594000000E+02  0.51100000000E-03 0.  1.
         11   -1    0    0    0    0 -0.00000000000E+00 -0.00000000000E+00 -0.45593999997E+02  0.45594000000E+02  0.51100000000E-03 0. -1.
    9900012    2    1    2    0    0  0.16444640046E+02  0.18437851240E+02  0.35682545094E+02  0.47787256124E+02  0.19999931972E+02 0.  0.
         12    1    1    2    0    0 -0.16444640046E+02 -0.18437851240E+02 -0.35682545094E+02  0.43400743876E+02  0.00000000000E+00 0. -1.
         11    1    3    3    0    0  0.11490357212E+02  0.14448577983E+02  0.31561752863E+02  0.36564107519E+02  0.51100000000E-03 0. -1.
        -11    1    3    3    0    0  0.51639138023E+01  0.35788564133E+01  0.63582232256E+01  0.89387483370E+01  0.51100000000E-03 0.  1.
         12    1    3    3    0    0 -0.20963096761E+00  0.41041684353E+00 -0.22374309949E+01  0.22844002681E+01  0.00000000000E+00 0. -1.
</event>
<event>
 7    1  0.2318319E-009  0.4778721E+02  0.7816164E-02  0.1312668E+00
        -11   -1    0    0    0    0  0.00000000000E+00  0.00000000000E+00  0.45593999997E+02  0.45594000000E+02  0.51100000000E-03 0.  1.
         11   -1    0    0    0    0 -0.00000000000E+00 -0.00000000000E+00 -0.45593999997E+02  0.45594000000E+02  0.51100000000E-03 0. -1.
    9900012    2    1    2    0    0 -0.10045458158E+02 -0.41965799937E+02  0.46463824125E+01  0.47787211257E+02  0.19999727404E+02 0.  0.
         12    1    1    2    0    0  0.10045458158E+02  0.41965799937E+02 -0.46463824125E+01  0.43400788743E+02  0.00000000000E+00 0. -1.
         11    1    3    3    0    0 -0.35981939403E+01 -0.59246315050E+01  0.27174581596E+01  0.74453231771E+01  0.51100000000E-03 0.  1.
        -11    1    3    3    0    0 -0.84441274724E+01 -0.36646141246E+02  0.34433321121E+01  0.37763732513E+02  0.51100000000E-03 0. -1.
         12    1    3    3    0    0  0.19968632551E+01  0.60497281367E+00 -0.15144078591E+01  0.25781555672E+01  0.00000000000E+00 0. -1.
</event>
<event>
 7    1  0.2318319E-009  0.4778727E+02  0.7816164E-02  0.1312668E+00
        -11   -1    0    0    0    0  0.00000000000E+00  0.00000000000E+00  0.45593999997E+02  0.45594000000E+02  0.51100000000E-03 0.  1.
         11   -1    0    0    0    0 -0.00000000000E+00 -0.00000000000E+00 -0.45593999997E+02  0.45594000000E+02  0.51100000000E-03 0. -1.
    9900012    2    1    2    0    0  0.96285235954E+01 -0.29652790374E+02  0.30193156545E+02  0.47787272520E+02  0.20000006730E+02 0.  0.
         12    1    1    2    0    0 -0.96285235954E+01  0.29652790374E+02 -0.30193156545E+02  0.43400727480E+02  0.00000000000E+00 0. -1.
         11    1    3    3    0    0 -0.42608354845E+01 -0.37057879128E+01  0.31931212055E+01  0.64871878634E+01  0.51100000000E-03 0. -1.
        -11    1    3    3    0    0  0.45656242096E+00 -0.10865137831E+02  0.11613557197E+02  0.15910197370E+02  0.51100000000E-03 0.  1.
        -12    1    3    3    0    0  0.13432796659E+02 -0.15081864630E+02  0.15386478143E+02  0.25389887287E+02  0.00000000000E+00 0.  1.
</event>
<event>
 7    1  0.2318319E-009  0.4778727E+02  0.7816164E-02  0.1312668E+00
        -11   -1    0    0    0    0  0.00000000000E+00  0.00000000000E+00  0.45593999997E+02  0.45594000000E+02  0.51100000000E-03 0.  1.
         11   -1    0    0    0    0 -0.00000000000E+00 -0.00000000000E+00 -0.45593999997E+02  0.45594000000E+02  0.51100000000E-03 0. -1.
    9900012    2    1    2    0    0 -0.38776205971E+02  0.17033471928E+02  0.94810225401E+01  0.47787273003E+02  0.20000008930E+02 0.  0.
         12    1    1    2    0    0  0.38776205971E+02 -0.17033471928E+02 -0.94810225401E+01  0.43400726997E+02  0.00000000000E+00 0. -1.
         11    1    3    3    0    0 -0.13482224811E+02  0.57530916491E+01  0.92458463753E+01  0.17330727764E+02  0.51100000000E-03 0. -1.
        -11    1    3    3    0    0 -0.21533367092E+02  0.10475358083E+02  0.48674885920E+01  0.24435864436E+02  0.51100000000E-03 0.  1.
         12    1    3    3    0    0 -0.37606140677E+01  0.80502219608E+00 -0.46323124272E+01  0.60206808025E+01  0.00000000000E+00 0. -1.
</event>
<event>
 7    1  0.2318319E-009  0.4778727E+02  0.7816164E-02  0.1312668E+00
        -11   -1    0    0    0    0  0.00000000000E+00  0.00000000000E+00  0.45593999997E+02  0.45594000000E+02  0.51100000000E-03 0.  1.
         11   -1    0    0    0    0 -0.00000000000E+00 -0.00000000000E+00 -0.45593999997E+02  0.45594000000E+02  0.51100000000E-03 0. -1.
    9900012    2    1    2    0    0  0.18162803228E+02 -0.92514362357E+01  0.38316405120E+02  0.47787269651E+02  0.19999993648E+02 0.  0.
         12    1    1    2    0    0 -0.18162803228E+02  0.92514362357E+01 -0.38316405120E+02  0.43400730349E+02  0.00000000000E+00 0. -1.
         11    1    3    3    0    0  0.55075184215E+01 -0.72359313094E+01  0.38817601840E+01  0.98873415772E+01  0.51100000000E-03 0. -1.
        -11    1    3    3    0    0  0.65815698791E+01 -0.53709141966E+01  0.14663049845E+02  0.16946055955E+02  0.51100000000E-03 0.  1.
        -12    1    3    3    0    0  0.60737149269E+01  0.33554092704E+01  0.19771595090E+02  0.20953872120E+02  0.00000000000E+00 0.  1.
</event>
<event>
 7    1  0.2318319E-009  0.4778727E+02  0.7816164E-02  0.1312668E+00
        -11   -1    0    0    0    0  0.00000000000E+00  0.00000000000E+00  0.45593999997E+02  0.45594000000E+02  0.51100000000E-03 0.  1.
         11   -1    0    0    0    0 -0.00000000000E+00 -0.00000000000E+00 -0.45593999997E+02  0.45594000000E+02  0.51100000000E-03 0. -1.
    9900012    2    1    2    0    0 -0.12250566878E+01  0.17767207105E+02  0.39578385124E+02  0.47787274416E+02  0.20000015373E+02 0.  0.
         12    1    1    2    0    0  0.12250566878E+01 -0.17767207105E+02 -0.39578385124E+02  0.43400725584E+02  0.00000000000E+00 0. -1.
         11    1    3    3    0    0 -0.94799203010E+00  0.53766210461E+01 -0.20677360953E+00  0.54634694425E+01  0.51100000000E-03 0. -1.
        -11    1    3    3    0    0 -0.14514843023E+00  0.57924199193E+01  0.81025005998E+01  0.99611100194E+01  0.51100000000E-03 0.  1.
        -12    1    3    3    0    0 -0.13191622750E+00  0.65981661395E+01  0.31682658134E+02  0.32362694954E+02  0.00000000000E+00 0.  1.
</event>
<event>
 7    1  0.2318319E-009  0.4778728E+02  0.7816164E-02  0.1312668E+00
        -11   -1    0    0    0    0  0.00000000000E+00  0.00000000000E+00  0.45593999997E+02  0.45594000000E+02  0.51100000000E-03 0.  1.
         11   -1    0    0    0    0 -0.00000000000E+00 -0.00000000000E+00 -0.45593999997E+02  0.45594000000E+02  0.51100000000E-03 0. -1.
    9900012    2    1    2    0    0 -0.34282000111E+02 -0.10695457353E+02  0.24371593846E+02  0.47787275050E+02  0.20000018262E+02 0.  0.
         12    1    1    2    0    0  0.34282000111E+02  0.10695457353E+02 -0.24371593846E+02  0.43400724950E+02  0.00000000000E+00 0. -1.
         11    1    3    3    0    0 -0.13703822958E+02 -0.82180549791E+01  0.13259212572E+02  0.20763860662E+02  0.51100000000E-03 0. -1.
        -11    1    3    3    0    0 -0.17654257752E+02 -0.69417395212E+01  0.10416176607E+02  0.21641564170E+02  0.51100000000E-03 0.  1.
         12    1    3    3    0    0 -0.29239194014E+01  0.44643371473E+01  0.69620466699E+00  0.53818502181E+01  0.00000000000E+00 0. -1.
</event>
<event>
 7    1  0.2318319E-009  0.4778727E+02  0.7816164E-02  0.1312668E+00
        -11   -1    0    0    0    0  0.00000000000E+00  0.00000000000E+00  0.45593999997E+02  0.45594000000E+02  0.51100000000E-03 0.  1.
         11   -1    0    0    0    0 -0.00000000000E+00 -0.00000000000E+00 -0.45593999997E+02  0.45594000000E+02  0.51100000000E-03 0. -1.
    9900012    2    1    2    0    0  0.54456226009E+01  0.13145021819E+02  0.41002156282E+02  0.47787271620E+02  0.20000002626E+02 0.  0.
         12    1    1    2    0    0 -0.54456226009E+01 -0.13145021819E+02 -0.41002156282E+02  0.43400728380E+02  0.00000000000E+00 0. -1.
         11    1    3    3    0    0 -0.45081549248E+01  0.10328314367E+02  0.32251623333E+02  0.34163792915E+02  0.51100000000E-03 0. -1.
        -11    1    3    3    0    0  0.18511834794E+01  0.28539516733E+00  0.22744873910E+01  0.29464595413E+01  0.51100000000E-03 0.  1.
         12    1    3    3    0    0  0.81025940463E+01  0.25313122846E+01  0.64760455580E+01  0.10677019164E+02  0.00000000000E+00 0. -1.
</event>
<event>
 7    1  0.2318319E-009  0.4778725E+02  0.7816164E-02  0.1312668E+00
        -11   -1    0    0    0    0  0.00000000000E+00  0.00000000000E+00  0.45593999997E+02  0.45594000000E+02  0.51100000000E-03 0.  1.
         11   -1    0    0    0    0 -0.00000000000E+00 -0.00000000000E+00 -0.45593999997E+02  0.45594000000E+02  0.51100000000E-03 0. -1.
    9900012    2    1    2    0    0  0.90736810163E+01  0.39819417589E+02  0.14686994249E+02  0.47787245348E+02  0.19999882838E+02 0.  0.
         12    1    1    2    0    0 -0.90736810163E+01 -0.39819417589E+02 -0.14686994249E+02  0.43400754652E+02  0.00000000000E+00 0. -1.
         11    1    3    3    0    0  0.80515553714E+01  0.76558489177E+01  0.60630022169E+01  0.12656996591E+02  0.51100000000E-03 0. -1.
        -11    1    3    3    0    0  0.17859713811E+00  0.97177931991E+01  0.81167534502E+01  0.12662902054E+02  0.51100000000E-03 0.  1.
        -12    1    3    3    0    0  0.84352850674E+00  0.22445775472E+02  0.50723858195E+00  0.22467346703E+02  0.00000000000E+00 0.  1.
</event>
<event>
 7    1  0.2318319E-009  0.4778727E+02  0.7816164E-02  0.1312668E+00
        -11   -1    0    0    0    0  0.00000000000E+00  0.00000000000E+00  0.45593999997E+02  0.45594000000E+02  0.51100000000E-03 0. -1.
         11   -1    0    0    0    0 -0.00000000000E+00 -0.00000000000E+00 -0.45593999997E+02  0.45594000000E+02  0.51100000000E-03 0.  1.
    9900012    2    1    2    0    0  0.15023501186E+02 -0.39078982581E+02 -0.11434626865E+02  0.47787272368E+02  0.20000006037E+02 0.  0.
         12    1    1    2    0    0 -0.15023501186E+02  0.39078982581E+02  0.11434626865E+02  0.43400727632E+02  0.00000000000E+00 0. -1.
         11    1    3    3    0    0  0.42896388523E+01 -0.18274381011E+02 -0.40397480542E-01  0.18771138352E+02  0.51100000000E-03 0.  1.
        -11    1    3    3    0    0 -0.13362208166E+01  0.24040570561E+00  0.10814116167E+01  0.17357224202E+01  0.51100000000E-03 0. -1.
         12    1    3    3    0    0  0.12070083150E+02 -0.21045007275E+02 -0.12475641001E+02  0.27280411596E+02  0.00000000000E+00 0. -1.
</event>
<event>
 7    1  0.2318319E-009  0.4778727E+02  0.7816164E-02  0.1312668E+00
        -11   -1    0    0    0    0  0.00000000000E+00  0.00000000000E+00  0.45593999997E+02  0.45594000000E+02  0.51100000000E-03 0. -1.
         11   -1    0    0    0    0 -0.00000000000E+00 -0.00000000000E+00 -0.45593999997E+02  0.45594000000E+02  0.51100000000E-03 0.  1.
    9900012    2    1    2    0    0  0.13292188896E+02  0.39266721172E+02 -0.12847780714E+02  0.47787272512E+02  0.20000006689E+02 0.  0.
         12    1    1    2    0    0 -0.13292188896E+02 -0.39266721172E+02  0.12847780714E+02  0.43400727488E+02  0.00000000000E+00 0. -1.
         11    1    3    3    0    0  0.43122300667E+01  0.19343799543E+02  0.25141682714E+01  0.19977461082E+02  0.51100000000E-03 0. -1.
        -11    1    3    3    0    0 -0.30883845655E+00 -0.58866330280E+00 -0.41985812119E+00  0.78624854808E+00  0.51100000000E-03 0.  1.
        -12    1    3    3    0    0  0.92887972857E+01  0.20511584932E+02 -0.14942090864E+02  0.27023562882E+02  0.00000000000E+00 0.  1.
</event>
<event>
 7    1  0.2318319E-009  0.4778727E+02  0.7816164E-02  0.1312668E+00
        -11   -1    0    0    0    0  0.00000000000E+00  0.00000000000E+00  0.45593999997E+02  0.45594000000E+02  0.51100000000E-03 0.  1.
         11   -1    0    0    0    0 -0.00000000000E+00 -0.00000000000E+00 -0.45593999997E+02  0.45594000000E+02  0.51100000000E-03 0. -1.
    9900012    2    1    2    0    0  0.32018501650E+02 -0.23153253804E+02  0.17954540559E+02  0.47787272629E+02  0.20000007227E+02 0.  0.
         12    1    1    2    0    0 -0.32018501650E+02  0.23153253804E+02 -0.17954540559E+02  0.43400727371E+02  0.00000000000E+00 0. -1.
         11    1    3    3    0    0  0.29915421210E+01 -0.14635655366E+01  0.84275905765E+01  0.90617675719E+01  0.51100000000E-03 0. -1.
        -11    1    3    3    0    0  0.16552141000E+02 -0.10202112346E+02  0.97810965058E+01  0.21765254815E+02  0.51100000000E-03 0.  1.
        -12    1    3    3    0    0  0.12474818528E+02 -0.11487575921E+02 -0.25414652285E+00  0.16960250243E+02  0.00000000000E+00 0.  1.
</event>
<event>
 7    1  0.2318319E-009  0.4778727E+02  0.7816164E-02  0.1312668E+00
        -11   -1    0    0    0    0  0.00000000000E+00  0.00000000000E+00  0.45593999997E+02  0.45594000000E+02  0.51100000000E-03 0.  1.
         11   -1    0    0    0    0 -0.00000000000E+00 -0.00000000000E+00 -0.45593999997E+02  0.45594000000E+02  0.51100000000E-03 0. -1.
    9900012    2    1    2    0    0 -0.33309838024E+02 -0.17358718144E+02 -0.21742878296E+02  0.47787272341E+02  0.20000005910E+02 0.  0.
         12    1    1    2    0    0  0.33309838024E+02  0.17358718144E+02  0.21742878296E+02  0.43400727659E+02  0.00000000000E+00 0. -1.
         11    1    3    3    0    0 -0.69854313680E+00  0.33893370229E+01 -0.38917046359E+01  0.52077762243E+01  0.51100000000E-03 0. -1.
        -11    1    3    3    0    0 -0.77847323724E+01 -0.51443167839E+01 -0.45350917972E+01  0.10374637881E+02  0.51100000000E-03 0.  1.
         12    1    3    3    0    0 -0.24826562514E+02 -0.15603738383E+02 -0.13316081863E+02  0.32204858236E+02  0.00000000000E+00 0. -1.
</event>
<event>
 7    1  0.2318319E-009  0.4778728E+02  0.7816164E-02  0.1312668E+00
        -11   -1    0    0    0    0  0.00000000000E+00  0.00000000000E+00  0.45593999997E+02  0.45594000000E+02  0.51100000000E-03 0.  1.
         11   -1    0    0    0    0 -0.00000000000E+00 -0.00000000000E+00 -0.45593999997E+02  0.45594000000E+02  0.51100000000E-03 0. -1.
    9900012    2    1    2    0    0 -0.71973648321E+01 -0.29903579819E+02  0.30620197477E+02  0.47787278347E+02  0.20000033295E+02 0.  0.
         12    1    1    2    0    0  0.71973648321E+01  0.29903579819E+02 -0.30620197477E+02  0.43400721653E+02  0.00000000000E+00 0. -1.
         11    1    3    3    0    0  0.60648918084E+01 -0.48532989036E+01  0.57599576267E+01  0.96702913616E+01  0.51100000000E-03 0. -1.
        -11    1    3    3    0    0 -0.25233437547E+01 -0.10562959923E+02  0.92346941022E+01  0.14255629115E+02  0.51100000000E-03 0.  1.
         12    1    3    3    0    0 -0.10738912886E+02 -0.14487320992E+02  0.15625545748E+02  0.23861357870E+02  0.00000000000E+00 0. -1.
</event>
<event>
 7    1  0.2318319E-009  0.4778727E+02  0.7816164E-02  0.1312668E+00
        -11   -1    0    0    0    0  0.00000000000E+00  0.00000000000E+00  0.45593999997E+02  0.45594000000E+02  0.51100000000E-03 0. -1.
         11   -1    0    0    0    0 -0.00000000000E+00 -0.00000000000E+00 -0.45593999997E+02  0.45594000000E+02  0.51100000000E-03 0.  1.
    9900012    2    1    2    0    0  0.39029239217E+02  0.18882804420E+02  0.19446851606E+01  0.47787267092E+02  0.19999981979E+02 0.  0.
         12    1    1    2    0    0 -0.39029239217E+02 -0.18882804420E+02 -0.19446851606E+01  0.43400732908E+02  0.00000000000E+00 0. -1.
         11    1    3    3    0    0  0.70394352488E+01  0.22945742347E-01  0.17548149912E+01  0.72548984172E+01  0.51100000000E-03 0. -1.
        -11    1    3    3    0    0  0.29864515664E+02  0.20907654364E+02  0.28395289564E+01  0.36566135041E+02  0.51100000000E-03 0.  1.
         12    1    3    3    0    0  0.21252883038E+01 -0.20477956871E+01 -0.26496587869E+01  0.39662336337E+01  0.00000000000E+00 0. -1.
</event>
<event>
 7    1  0.2318319E-009  0.4778728E+02  0.7816164E-02  0.1312668E+00
        -11   -1    0    0    0    0  0.00000000000E+00  0.00000000000E+00  0.45593999997E+02  0.45594000000E+02  0.51100000000E-03 0.  1.
         11   -1    0    0    0    0 -0.00000000000E+00 -0.00000000000E+00 -0.45593999997E+02  0.45594000000E+02  0.51100000000E-03 0. -1.
    9900012    2    1    2    0    0  0.24537479982E+02  0.34923667377E+02  0.78659014569E+01  0.47787275666E+02  0.20000021073E+02 0.  0.
         12    1    1    2    0    0 -0.24537479982E+02 -0.34923667377E+02 -0.78659014569E+01  0.43400724334E+02  0.00000000000E+00 0. -1.
         11    1    3    3    0    0  0.17085443308E+01  0.42873468637E+01  0.28106831740E+01  0.54037400961E+01  0.51100000000E-03 0. -1.
        -11    1    3    3    0    0  0.21918103849E+02  0.32952586277E+02  0.44795792697E+01  0.39828919761E+02  0.51100000000E-03 0.  1.
         12    1    3    3    0    0  0.91083180291E+00 -0.23162657632E+01  0.57563901315E+00  0.25546158092E+01  0.00000000000E+00 0. -1.
</event>
<event>
 7    1  0.2318319E-009  0.4778727E+02  0.7816164E-02  0.1312668E+00
        -11   -1    0    0    0    0  0.00000000000E+00  0.00000000000E+00  0.45593999997E+02  0.45594000000E+02  0.51100000000E-03 0. -1.
         11   -1    0    0    0    0 -0.00000000000E+00 -0.00000000000E+00 -0.45593999997E+02  0.45594000000E+02  0.51100000000E-03 0.  1.
    9900012    2    1    2    0    0  0.17030392126E+02  0.21960382810E+02 -0.33336630683E+02  0.47787267121E+02  0.19999982113E+02 0.  0.
         12    1    1    2    0    0 -0.17030392126E+02 -0.21960382810E+02  0.33336630683E+02  0.43400732879E+02  0.00000000000E+00 0. -1.
         11    1    3    3    0    0  0.41326340834E+01  0.37782553038E+01 -0.41860415757E+01  0.69911960308E+01  0.51100000000E-03 0. -1.
        -11    1    3    3    0    0  0.64863180969E+01  0.20660890249E+02 -0.21625799482E+02  0.30604246631E+02  0.51100000000E-03 0.  1.
         12    1    3    3    0    0  0.64114399456E+01 -0.24787627430E+01 -0.75247896249E+01  0.10191824459E+02  0.00000000000E+00 0. -1.
</event>
<event>
 7    1  0.2318319E-009  0.4778728E+02  0.7816164E-02  0.1312668E+00
        -11   -1    0    0    0    0  0.00000000000E+00  0.00000000000E+00  0.45593999997E+02  0.45594000000E+02  0.51100000000E-03 0. -1.
         11   -1    0    0    0    0 -0.00000000000E+00 -0.00000000000E+00 -0.45593999997E+02  0.45594000000E+02  0.51100000000E-03 0.  1.
    9900012    2    1    2    0    0  0.29245639195E+02  0.28817052263E+02  0.14067428892E+02  0.47787280321E+02  0.20000042294E+02 0.  0.
         12    1    1    2    0    0 -0.29245639195E+02 -0.28817052263E+02 -0.14067428892E+02  0.43400719679E+02  0.00000000000E+00 0. -1.
         11    1    3    3    0    0  0.56816945516E+01  0.78339432876E+01 -0.23153449165E+01  0.99505347974E+01  0.51100000000E-03 0. -1.
        -11    1    3    3    0    0  0.16912091610E+02  0.18919661935E+02  0.73282500320E+01  0.26413551430E+02  0.51100000000E-03 0.  1.
         12    1    3    3    0    0  0.66518530337E+01  0.20634470403E+01  0.90545237768E+01  0.11423194093E+02  0.00000000000E+00 0. -1.
</event>
<event>
 7    1  0.2318319E-009  0.4778727E+02  0.7816164E-02  0.1312668E+00
        -11   -1    0    0    0    0  0.00000000000E+00  0.00000000000E+00  0.45593999997E+02  0.45594000000E+02  0.51100000000E-03 0.  1.
         11   -1    0    0    0    0 -0.00000000000E+00 -0.00000000000E+00 -0.45593999997E+02  0.45594000000E+02  0.51100000000E-03 0. -1.
    9900012    2    1    2    0    0 -0.32043702192E+02 -0.15954464227E+02 -0.24541382045E+02  0.47787271762E+02  0.20000003270E+02 0.  0.
         12    1    1    2    0    0  0.32043702192E+02  0.15954464227E+02  0.24541382045E+02  0.43400728238E+02  0.00000000000E+00 0. -1.
         11    1    3    3    0    0  0.43684077822E+00 -0.11868762975E+01  0.15678456152E+00  0.12743966694E+01  0.51100000000E-03 0. -1.
        -11    1    3    3    0    0 -0.25335358956E+02 -0.18395437381E+02 -0.18356676083E+02  0.36293802321E+02  0.51100000000E-03 0.  1.
        -12    1    3    3    0    0 -0.71451840145E+01  0.36278494514E+01 -0.63414905230E+01  0.10219072771E+02  0.00000000000E+00 0.  1.
</event>
<event>
 7    1  0.2318319E-009  0.4778727E+02  0.7816164E-02  0.1312668E+00
        -11   -1    0    0    0    0  0.00000000000E+00  0.00000000000E+00  0.45593999997E+02  0.45594000000E+02  0.51100000000E-03 0.  1.
         11   -1    0    0    0    0 -0.00000000000E+00 -0.00000000000E+00 -0.45593999997E+02  0.45594000000E+02  0.51100000000E-03 0. -1.
    9900012    2    1    2    0    0 -0.42952684456E+02 -0.16580511574E+01  0.59950961676E+01  0.47787269434E+02  0.19999992656E+02 0.  0.
         12    1    1    2    0    0  0.42952684456E+02  0.16580511574E+01 -0.59950961676E+01  0.43400730566E+02  0.00000000000E+00 0. -1.
         11    1    3    3    0    0 -0.35206574772E+00  0.37716255545E+01  0.10760745365E+01  0.39378987142E+01  0.51100000000E-03 0. -1.
        -11    1    3    3    0    0 -0.99572496127E+01  0.15834695132E+01  0.24138068489E+01  0.10367287944E+02  0.51100000000E-03 0.  1.
        -12    1    3    3    0    0 -0.32643369096E+02 -0.70131462251E+01  0.25052147822E+01  0.33482082776E+02  0.00000000000E+00 0.  1.
</event>
<event>
 7    1  0.2318319E-009  0.4778727E+02  0.7816164E-02  0.1312668E+00
        -11   -1    0    0    0    0  0.00000000000E+00  0.00000000000E+00  0.45593999997E+02  0.45594000000E+02  0.51100000000E-03 0.  1.
         11   -1    0    0    0    0 -0.00000000000E+00 -0.00000000000E+00 -0.45593999997E+02  0.45594000000E+02  0.51100000000E-03 0. -1.
    9900012    2    1    2    0    0 -0.23745142098E+02  0.24521105349E+02  0.26804987592E+02  0.47787265667E+02  0.19999975483E+02 0.  0.
         12    1    1    2    0    0  0.23745142098E+02 -0.24521105349E+02 -0.26804987592E+02  0.43400734333E+02  0.00000000000E+00 0. -1.
         11    1    3    3    0    0 -0.66808942490E+01  0.60812559862E+01  0.12427164963E+02  0.15363933468E+02  0.51100000000E-03 0. -1.
        -11    1    3    3    0    0 -0.16570607750E+02  0.76457140627E+01  0.93562193904E+01  0.20508067347E+02  0.51100000000E-03 0.  1.
         12    1    3    3    0    0 -0.49364009902E+00  0.10794135300E+02  0.50216032393E+01  0.11915264853E+02  0.00000000000E+00 0. -1.
</event>
<event>
 7    1  0.2318319E-009  0.4778725E+02  0.7816164E-02  0.1312668E+00
        -11   -1    0    0    0    0  0.00000000000E+00  0.00000000000E+00  0.45593999997E+02  0.45594000000E+02  0.51100000000E-03 0. -1.
         11   -1    0    0    0    0 -0.00000000000E+00 -0.00000000000E+00 -0.45593999997E+02  0.45594000000E+02  0.51100000000E-03 0.  1.
    9900012    2    1    2    0    0  0.26415041017E+02  0.24498147219E+02 -0.24201470615E+02  0.47787253589E+02  0.19999920411E+02 0.  0.
         12    1    1    2    0    0 -0.26415041017E+02 -0.24498147219E+02  0.24201470615E+02  0.43400746411E+02  0.00000000000E+00 0. -1.
         11    1    3    3    0    0  0.12784147233E+02  0.11045331211E+02 -0.13247407332E+02  0.21469223631E+02  0.51100000000E-03 0.  1.
        -11    1    3    3    0    0  0.29130522855E+00  0.15194482167E+01 -0.80357824665E+01  0.81833600514E+01  0.51100000000E-03 0. -1.
         12    1    3    3    0    0  0.13339588555E+02  0.11933367791E+02 -0.29182808170E+01  0.18134669906E+02  0.00000000000E+00 0. -1.
</event>
<event>
 7    1  0.2318319E-009  0.4778727E+02  0.7816164E-02  0.1312668E+00
        -11   -1    0    0    0    0  0.00000000000E+00  0.00000000000E+00  0.45593999997E+02  0.45594000000E+02  0.51100000000E-03 0.  1.
         11   -1    0    0    0    0 -0.00000000000E+00 -0.00000000000E+00 -0.45593999997E+02  0.45594000000E+02  0.51100000000E-03 0. -1.
    9900012    2    1    2    0    0 -0.25673587629E+02  0.10351951288E+02  0.33426445369E+02  0.47787271351E+02  0.20000001400E+02 0.  0.
         12    1    1    2    0    0  0.25673587629E+02 -0.10351951288E+02 -0.33426445369E+02  0.43400728649E+02  0.00000000000E+00 0. -1.
         11    1    3    3    0    0 -0.47571661900E+01 -0.34339996090E+01  0.10667211887E+02  0.12174251237E+02  0.51100000000E-03 0.  1.
        -11    1    3    3    0    0 -0.53704372942E+00  0.11334066755E+01 -0.11811196090E+01  0.17228088841E+01  0.51100000000E-03 0. -1.
        -12    1    3    3    0    0 -0.20379377710E+02  0.12652544222E+02  0.23940353091E+02  0.33890211230E+02  0.00000000000E+00 0.  1.
</event>
<event>
 7    1  0.2318319E-009  0.4778727E+02  0.7816164E-02  0.1312668E+00
        -11   -1    0    0    0    0  0.00000000000E+00  0.00000000000E+00  0.45593999997E+02  0.45594000000E+02  0.51100000000E-03 0.  1.
         11   -1    0    0    0    0 -0.00000000000E+00 -0.00000000000E+00 -0.45593999997E+02  0.45594000000E+02  0.51100000000E-03 0. -1.
    9900012    2    1    2    0    0  0.34655989321E+02  0.94391842055E+01  0.24361598743E+02  0.47787270886E+02  0.19999999279E+02 0.  0.
         12    1    1    2    0    0 -0.34655989321E+02 -0.94391842055E+01 -0.24361598743E+02  0.43400729114E+02  0.00000000000E+00 0. -1.
         11    1    3    3    0    0  0.16478416906E+01 -0.20128815054E+01  0.68071153257E+01  0.72872418315E+01  0.51100000000E-03 0. -1.
        -11    1    3    3    0    0  0.14495267510E+02 -0.35724652929E+00  0.79064843401E+01  0.16515232367E+02  0.51100000000E-03 0.  1.
        -12    1    3    3    0    0  0.18512880120E+02  0.11809312240E+02  0.96479990777E+01  0.23984796688E+02  0.00000000000E+00 0.  1.
</event>
<event>
 7    1  0.2318319E-009  0.4778727E+02  0.7816164E-02  0.1312668E+00
        -11   -1    0    0    0    0  0.00000000000E+00  0.00000000000E+00  0.45593999997E+02  0.45594000000E+02  0.51100000000E-03 0.  1.
         11   -1    0    0    0    0 -0.00000000000E+00 -0.00000000000E+00 -0.45593999997E+02  0.45594000000E+02  0.51100000000E-03 0. -1.
    9900012    2    1    2    0    0 -0.22404733433E+02  0.36194670485E+02  0.84615062570E+01  0.47787270284E+02  0.19999996534E+02 0.  0.
         12    1    1    2    0    0  0.22404733433E+02 -0.36194670485E+02 -0.84615062570E+01  0.43400729716E+02  0.00000000000E+00 0. -1.
         11    1    3    3    0    0 -0.45492336965E+01  0.10313165783E+02  0.89243479462E+01  0.14377096446E+02  0.51100000000E-03 0.  1.
        -11    1    3    3    0    0  0.47684593672E+00  0.70076405523E+01 -0.99044961502E+00  0.70933348193E+01  0.51100000000E-03 0. -1.
         12    1    3    3    0    0 -0.18332345673E+02  0.18873864150E+02  0.52760792582E+00  0.26316839019E+02  0.00000000000E+00 0. -1.
</event>
<event>
 7    1  0.2318319E-009  0.4778727E+02  0.7816164E-02  0.1312668E+00
        -11   -1    0    0    0    0  0.00000000000E+00  0.00000000000E+00  0.45593999997E+02  0.45594000000E+02  0.51100000000E-03 0. -1.
         11   -1    0    0    0    0 -0.00000000000E+00 -0.00000000000E+00 -0.45593999997E+02  0.45594000000E+02  0.51100000000E-03 0.  1.
    9900012    2    1    2    0    0  0.35257986008E+02 -0.39322856316E+01  0.25000700023E+02  0.47787269024E+02  0.19999990786E+02 0.  0.
         12    1    1    2    0    0 -0.35257986008E+02  0.39322856316E+01 -0.25000700023E+02  0.43400730976E+02  0.00000000000E+00 0. -1.
         11    1    3    3    0    0  0.56978284106E+00 -0.16006224165E+01 -0.18548136992E+00  0.17091074296E+01  0.51100000000E-03 0. -1.
        -11    1    3    3    0    0  0.23200085107E+02 -0.53649632903E+00  0.65514265594E+01  0.24113335885E+02  0.51100000000E-03 0.  1.
         12    1    3    3    0    0  0.11488118060E+02 -0.17951668860E+01  0.18634754833E+02  0.21964825709E+02  0.00000000000E+00 0. -1.
</event>
<event>
 7    1  0.2318319E-009  0.4778727E+02  0.7816164E-02  0.1312668E+00
        -11   -1    0    0    0    0  0.00000000000E+00  0.00000000000E+00  0.45593999997E+02  0.45594000000E+02  0.51100000000E-03 0. -1.
         11   -1    0    0    0    0 -0.00000000000E+00 -0.00000000000E+00 -0.45593999997E+02  0.45594000000E+02  0.51100000000E-03 0.  1.
    9900012    2    1    2    0    0  0.10421335397E+02  0.41695670366E+02 -0.60407017853E+01  0.47787271472E+02  0.20000001948E+02 0.  0.
         12    1    1    2    0    0 -0.10421335397E+02 -0.41695670366E+02  0.60407017853E+01  0.43400728528E+02  0.00000000000E+00 0. -1.
         11    1    3    3    0    0  0.72423696511E+00  0.52556595963E+01  0.44706706096E+01  0.69378219157E+01  0.51100000000E-03 0. -1.
        -11    1    3    3    0    0 -0.15616764657E+01  0.16165599709E+02 -0.34011240209E+01  0.16593164021E+02  0.51100000000E-03 0.  1.
        -12    1    3    3    0    0  0.11258774898E+02  0.20274411060E+02 -0.71102483740E+01  0.24256285535E+02  0.00000000000E+00 0.  1.
</event>
<event>
 7    1  0.2318319E-009  0.4778727E+02  0.7816164E-02  0.1312668E+00
        -11   -1    0    0    0    0  0.00000000000E+00  0.00000000000E+00  0.45593999997E+02  0.45594000000E+02  0.51100000000E-03 0.  1.
         11   -1    0    0    0    0 -0.00000000000E+00 -0.00000000000E+00 -0.45593999997E+02  0.45594000000E+02  0.51100000000E-03 0. -1.
    9900012    2    1    2    0    0 -0.35796182352E+02  0.66604047830E+01  0.23619818117E+02  0.47787268777E+02  0.19999989661E+02 0.  0.
         12    1    1    2    0    0  0.35796182352E+02 -0.66604047830E+01 -0.23619818117E+02  0.43400731223E+02  0.00000000000E+00 0. -1.
         11    1    3    3    0    0 -0.63879058413E+00  0.22801334102E+01  0.16610357032E+00  0.23737422851E+01  0.51100000000E-03 0. -1.
        -11    1    3    3    0    0 -0.19665538008E+02  0.17955351657E+01  0.22118219360E+02  0.29650850908E+02  0.51100000000E-03 0.  1.
        -12    1    3    3    0    0 -0.15491853759E+02  0.25847362071E+01  0.13354951873E+01  0.15762675584E+02  0.00000000000E+00 0.  1.
</event>
<event>
 7    1  0.2318319E-009  0.4778727E+02  0.7816164E-02  0.1312668E+00
        -11   -1    0    0    0    0  0.00000000000E+00  0.00000000000E+00  0.45593999997E+02  0.45594000000E+02  0.51100000000E-03 0.  1.
         11   -1    0    0    0    0 -0.00000000000E+00 -0.00000000000E+00 -0.45593999997E+02  0.45594000000E+02  0.51100000000E-03 0. -1.
    9900012    2    1    2    0    0  0.39791774794E+02 -0.77338954064E+01  0.15505638707E+02  0.47787270615E+02  0.19999998044E+02 0.  0.
         12    1    1    2    0    0 -0.39791774794E+02  0.77338954064E+01 -0.15505638707E+02  0.43400729385E+02  0.00000000000E+00 0. -1.
         11    1    3    3    0    0  0.15978137269E+02 -0.39536482363E+00  0.35078625690E+01  0.16363443525E+02  0.51100000000E-03 0. -1.
        -11    1    3    3    0    0  0.91056659636E+01  0.35708136013E+01  0.81046353831E+01  0.12702321731E+02  0.51100000000E-03 0.  1.
         12    1    3    3    0    0  0.14707971562E+02 -0.10909344184E+02  0.38931407549E+01  0.18721505359E+02  0.00000000000E+00 0. -1.
</event>
<event>
 7    1  0.2318319E-009  0.4778727E+02  0.7816164E-02  0.1312668E+00
        -11   -1    0    0    0    0  0.00000000000E+00  0.00000000000E+00  0.45593999997E+02  0.45594000000E+02  0.51100000000E-03 0.  1.
         11   -1    0    0    0    0 -0.00000000000E+00 -0.00000000000E+00 -0.45593999997E+02  0.45594000000E+02  0.51100000000E-03 0. -1.
    9900012    2    1    2    0    0  0.39489040402E+02  0.96960599860E+01  0.15173169308E+02  0.47787274684E+02  0.20000016594E+02 0.  0.
         12    1    1    2    0    0 -0.39489040402E+02 -0.96960599860E+01 -0.15173169308E+02  0.43400725316E+02  0.00000000000E+00 0. -1.
         11    1    3    3    0    0 -0.43234195897E+00  0.17678349780E+01  0.29600426359E+01  0.34747680133E+01  0.51100000000E-03 0. -1.
        -11    1    3    3    0    0  0.98778613099E+01  0.20248301250E+00 -0.21760986042E+01  0.10116745960E+02  0.51100000000E-03 0.  1.
        -12    1    3    3    0    0  0.30043521051E+02  0.77257419954E+01  0.14389225277E+02  0.34195760710E+02  0.00000000000E+00 0.  1.
</event>
<event>
 7    1  0.2318319E-009  0.4778724E+02  0.7816164E-02  0.1312668E+00
        -11   -1    0    0    0    0  0.00000000000E+00  0.00000000000E+00  0.45593999997E+02  0.45594000000E+02  0.51100000000E-03 0.  1.
         11   -1    0    0    0    0 -0.00000000000E+00 -0.00000000000E+00 -0.45593999997E+02  0.45594000000E+02  0.51100000000E-03 0. -1.
    9900012    2    1    2    0    0  0.33597241010E+02  0.23453517550E+02  0.14310259029E+02  0.47787244218E+02  0.19999877686E+02 0.  0.
         12    1    1    2    0    0 -0.33597241010E+02 -0.23453517550E+02 -0.14310259029E+02  0.43400755782E+02  0.00000000000E+00 0. -1.
         11    1    3    3    0    0  0.61792947255E+01 -0.26020079846E+01  0.66809608312E+00  0.67379879411E+01  0.51100000000E-03 0. -1.
        -11    1    3    3    0    0  0.88140802108E+01  0.65076834372E+01  0.77712151584E+01  0.13432413744E+02  0.51100000000E-03 0.  1.
         12    1    3    3    0    0  0.18603866074E+02  0.19547842098E+02  0.58709477879E+01  0.27616842533E+02  0.00000000000E+00 0. -1.
</event>
<event>
 7    1  0.2318319E-009  0.4778725E+02  0.7816164E-02  0.1312668E+00
        -11   -1    0    0    0    0  0.00000000000E+00  0.00000000000E+00  0.45593999997E+02  0.45594000000E+02  0.51100000000E-03 0.  1.
         11   -1    0    0    0    0 -0.00000000000E+00 -0.00000000000E+00 -0.45593999997E+02  0.45594000000E+02  0.51100000000E-03 0. -1.
    9900012    2    1    2    0    0 -0.34342881579E+02  0.13300976946E+01  0.26503247025E+02  0.47787253718E+02  0.19999921000E+02 0.  0.
         12    1    1    2    0    0  0.34342881579E+02 -0.13300976946E+01 -0.26503247025E+02  0.43400746282E+02  0.00000000000E+00 0. -1.
         11    1    3    3    0    0 -0.13731170072E+02  0.14764675290E+00  0.10592441650E+02  0.17342625276E+02  0.51100000000E-03 0. -1.
        -11    1    3    3    0    0 -0.10314156683E+02  0.64181873168E+01  0.14327665062E+02  0.18784486762E+02  0.51100000000E-03 0.  1.
         12    1    3    3    0    0 -0.10297554824E+02 -0.52357363751E+01  0.15831403132E+01  0.11660141680E+02  0.00000000000E+00 0. -1.
</event>
<event>
 7    1  0.2318319E-009  0.4778727E+02  0.7816164E-02  0.1312668E+00
        -11   -1    0    0    0    0  0.00000000000E+00  0.00000000000E+00  0.45593999997E+02  0.45594000000E+02  0.51100000000E-03 0. -1.
         11   -1    0    0    0    0 -0.00000000000E+00 -0.00000000000E+00 -0.45593999997E+02  0.45594000000E+02  0.51100000000E-03 0.  1.
    9900012    2    1    2    0    0  0.51699794443E+01  0.28231381341E+02 -0.32555855565E+02  0.47787270611E+02  0.19999998026E+02 0.  0.
         12    1    1    2    0    0 -0.51699794443E+01 -0.28231381341E+02  0.32555855565E+02  0.43400729389E+02  0.00000000000E+00 0. -1.
         11    1    3    3    0    0  0.58099053604E+01  0.69714558008E+01 -0.65040050767E+01  0.11165047182E+02  0.51100000000E-03 0. -1.
        -11    1    3    3    0    0  0.61641526627E+01  0.14433156937E+02 -0.12893718217E+02  0.20311591935E+02  0.51100000000E-03 0.  1.
         12    1    3    3    0    0 -0.68040785787E+01  0.68267686032E+01 -0.13158132272E+02  0.16310631495E+02  0.00000000000E+00 0. -1.
</event>
<event>
 7    1  0.2318319E-009  0.4778728E+02  0.7816164E-02  0.1312668E+00
        -11   -1    0    0    0    0  0.00000000000E+00  0.00000000000E+00  0.45593999997E+02  0.45594000000E+02  0.51100000000E-03 0.  1.
         11   -1    0    0    0    0 -0.00000000000E+00 -0.00000000000E+00 -0.45593999997E+02  0.45594000000E+02  0.51100000000E-03 0. -1.
    9900012    2    1    2    0    0  0.29441566629E+02  0.38985572131E+01  0.31648351132E+02  0.47787277388E+02  0.20000028922E+02 0.  0.
         12    1    1    2    0    0 -0.29441566629E+02 -0.38985572131E+01 -0.31648351132E+02  0.43400722612E+02  0.00000000000E+00 0. -1.
         11    1    3    3    0    0  0.77636136501E-01 -0.17569836041E+01 -0.11885477816E+01  0.21226551404E+01  0.51100000000E-03 0. -1.
        -11    1    3    3    0    0  0.99300771725E+01 -0.30665681264E+01  0.11843958083E+02  0.15757208384E+02  0.51100000000E-03 0.  1.
         12    1    3    3    0    0  0.19433853320E+02  0.87221089436E+01  0.20992940830E+02  0.29907413863E+02  0.00000000000E+00 0. -1.
</event>
<event>
 7    1  0.2318319E-009  0.4778727E+02  0.7816164E-02  0.1312668E+00
        -11   -1    0    0    0    0  0.00000000000E+00  0.00000000000E+00  0.45593999997E+02  0.45594000000E+02  0.51100000000E-03 0. -1.
         11   -1    0    0    0    0 -0.00000000000E+00 -0.00000000000E+00 -0.45593999997E+02  0.45594000000E+02  0.51100000000E-03 0.  1.
    9900012    2    1    2    0    0  0.58387220111E+01 -0.20035543724E+02 -0.38054036014E+02  0.47787270237E+02  0.19999996316E+02 0.  0.
         12    1    1    2    0    0 -0.58387220111E+01  0.20035543724E+02  0.38054036014E+02  0.43400729763E+02  0.00000000000E+00 0. -1.
         11    1    3    3    0    0 -0.95000144301E+00 -0.81566441783E+01 -0.16546085662E+02  0.18471770299E+02  0.51100000000E-03 0. -1.
        -11    1    3    3    0    0  0.47157624938E+00 -0.13408981775E+02 -0.14723460680E+02  0.19919926482E+02  0.51100000000E-03 0.  1.
         12    1    3    3    0    0  0.63171472047E+01  0.15300822294E+01 -0.67844896721E+01  0.93955734549E+01  0.00000000000E+00 0. -1.
</event>
<event>
 7    1  0.2318319E-009  0.4778728E+02  0.7816164E-02  0.1312668E+00
        -11   -1    0    0    0    0  0.00000000000E+00  0.00000000000E+00  0.45593999997E+02  0.45594000000E+02  0.51100000000E-03 0. -1.
         11   -1    0    0    0    0 -0.00000000000E+00 -0.00000000000E+00 -0.45593999997E+02  0.45594000000E+02  0.51100000000E-03 0.  1.
    9900012    2    1    2    0    0 -0.14031118966E+02 -0.64776894913E+01 -0.40556008323E+02  0.47787279134E+02  0.20000036882E+02 0.  0.
         12    1    1    2    0    0  0.14031118966E+02  0.64776894913E+01  0.40556008323E+02  0.43400720866E+02  0.00000000000E+00 0. -1.
         11    1    3    3    0    0 -0.59267550928E+00 -0.81325938837E+00  0.13049264839E+01  0.16478739277E+01  0.51100000000E-03 0. -1.
        -11    1    3    3    0    0 -0.26343644122E+01 -0.67805576639E+01 -0.25374803677E+02  0.26396903228E+02  0.51100000000E-03 0.  1.
        -12    1    3    3    0    0 -0.10804079044E+02  0.11161275610E+01 -0.16486131130E+02  0.19742501978E+02  0.00000000000E+00 0.  1.
</event>
<event>
 7    1  0.2318319E-009  0.4778727E+02  0.7816164E-02  0.1312668E+00
        -11   -1    0    0    0    0  0.00000000000E+00  0.00000000000E+00  0.45593999997E+02  0.45594000000E+02  0.51100000000E-03 0.  1.
         11   -1    0    0    0    0 -0.00000000000E+00 -0.00000000000E+00 -0.45593999997E+02  0.45594000000E+02  0.51100000000E-03 0. -1.
    9900012    2    1    2    0    0 -0.15476040838E+02  0.24997592689E+02  0.31925471305E+02  0.47787271915E+02  0.20000003969E+02 0.  0.
         12    1    1    2    0    0  0.15476040838E+02 -0.24997592689E+02 -0.31925471305E+02  0.43400728085E+02  0.00000000000E+00 0. -1.
         11    1    3    3    0    0  0.11194273386E+01  0.45160774652E+01  0.71441428467E+01  0.85256583625E+01  0.51100000000E-03 0.  1.
        -11    1    3    3    0    0  0.42246806769E+00 -0.21008469224E+01  0.13000275778E+01  0.25064135780E+01  0.51100000000E-03 0. -1.
         12    1    3    3    0    0 -0.17017936245E+02  0.22582362146E+02  0.23481300880E+02  0.36755199974E+02  0.00000000000E+00 0. -1.
</event>
<event>
 7    1  0.2318319E-009  0.4778727E+02  0.7816164E-02  0.1312668E+00
        -11   -1    0    0    0    0  0.00000000000E+00  0.00000000000E+00  0.45593999997E+02  0.45594000000E+02  0.51100000000E-03 0. -1.
         11   -1    0    0    0    0 -0.00000000000E+00 -0.00000000000E+00 -0.45593999997E+02  0.45594000000E+02  0.51100000000E-03 0.  1.
    9900012    2    1    2    0    0  0.17767598292E+02  0.21097497581E+02 -0.33508671360E+02  0.47787274090E+02  0.20000013884E+02 0.  0.
         12    1    1    2    0    0 -0.17767598292E+02 -0.21097497581E+02  0.33508671360E+02  0.43400725910E+02  0.00000000000E+00 0. -1.
         11    1    3    3    0    0  0.74616480609E+00  0.78832095146E+01 -0.45638933672E+01  0.91395228046E+01  0.51100000000E-03 0. -1.
        -11    1    3    3    0    0  0.11282369646E+02  0.80404738373E+00 -0.89433196316E+01  0.14419477221E+02  0.51100000000E-03 0.  1.
         12    1    3    3    0    0  0.57390638398E+01  0.12410240683E+02 -0.20001458361E+02  0.24228274064E+02  0.00000000000E+00 0. -1.
</event>
<event>
 7    1  0.2318319E-009  0.4778727E+02  0.7816164E-02  0.1312668E+00
        -11   -1    0    0    0    0  0.00000000000E+00  0.00000000000E+00  0.45593999997E+02  0.45594000000E+02  0.51100000000E-03 0.  1.
         11   -1    0    0    0    0 -0.00000000000E+00 -0.00000000000E+00 -0.45593999997E+02  0.45594000000E+02  0.51100000000E-03 0. -1.
    9900012    2    1    2    0    0  0.18162728407E+02 -0.10160873536E+02  0.38085365898E+02  0.47787272474E+02  0.20000006519E+02 0.  0.
         12    1    1    2    0    0 -0.18162728407E+02  0.10160873536E+02 -0.38085365898E+02  0.43400727526E+02  0.00000000000E+00 0. -1.
         11    1    3    3    0    0  0.96811131945E+01 -0.17183885178E+01  0.13704463125E+02  0.16866805317E+02  0.51100000000E-03 0. -1.
        -11    1    3    3    0    0  0.34289330761E+01 -0.58003367586E+01  0.24301266290E+02  0.25218109209E+02  0.51100000000E-03 0.  1.
         12    1    3    3    0    0  0.50526821368E+01 -0.26421482593E+01  0.79636483021E-01  0.57023579482E+01  0.00000000000E+00 0. -1.
</event>
<event>
 7    1  0.2318319E-009  0.4778728E+02  0.7816164E-02  0.1312668E+00
        -11   -1    0    0    0    0  0.00000000000E+00  0.00000000000E+00  0.45593999997E+02  0.45594000000E+02  0.51100000000E-03 0.  1.
         11   -1    0    0    0    0 -0.00000000000E+00 -0.00000000000E+00 -0.45593999997E+02  0.45594000000E+02  0.51100000000E-03 0. -1.
    9900012    2    1    2    0    0  0.36634161209E+02 -0.21825116694E+02  0.80762209800E+01  0.47787276141E+02  0.20000023236E+02 0.  0.
         12    1    1    2    0    0 -0.36634161209E+02  0.21825116694E+02 -0.80762209800E+01  0.43400723859E+02  0.00000000000E+00 0. -1.
         11    1    3    3    0    0  0.25343537449E+01  0.12586108973E+01 -0.20842037201E+01  0.35143926507E+01  0.51100000000E-03 0. -1.
        -11    1    3    3    0    0  0.24376100358E+02 -0.10291854127E+02  0.28265446437E+01  0.26610259016E+02  0.51100000000E-03 0.  1.
        -12    1    3    3    0    0  0.97237071059E+01 -0.12791873465E+02  0.73338800564E+01  0.17662624474E+02  0.00000000000E+00 0.  1.
</event>
<event>
 7    1  0.2318319E-009  0.4778727E+02  0.7816164E-02  0.1312668E+00
        -11   -1    0    0    0    0  0.00000000000E+00  0.00000000000E+00  0.45593999997E+02  0.45594000000E+02  0.51100000000E-03 0. -1.
         11   -1    0    0    0    0 -0.00000000000E+00 -0.00000000000E+00 -0.45593999997E+02  0.45594000000E+02  0.51100000000E-03 0.  1.
    9900012    2    1    2    0    0 -0.25242183243E+02 -0.19637683066E+02 -0.29339677027E+02  0.47787273519E+02  0.20000011281E+02 0.  0.
         12    1    1    2    0    0  0.25242183243E+02  0.19637683066E+02  0.29339677027E+02  0.43400726481E+02  0.00000000000E+00 0. -1.
         11    1    3    3    0    0 -0.11896497289E+02 -0.96467387173E+01 -0.54714676328E+01  0.16264168406E+02  0.51100000000E-03 0. -1.
        -11    1    3    3    0    0 -0.16110894453E+01 -0.63844106543E+01 -0.28340272166E+01  0.71685437244E+01  0.51100000000E-03 0.  1.
        -12    1    3    3    0    0 -0.11734596508E+02 -0.36065336941E+01 -0.21034182178E+02  0.24354561388E+02  0.00000000000E+00 0.  1.
</event>
<event>
 7    1  0.2318319E-009  0.4778727E+02  0.7816164E-02  0.1312668E+00
        -11   -1    0    0    0    0  0.00000000000E+00  0.00000000000E+00  0.45593999997E+02  0.45594000000E+02  0.51100000000E-03 0.  1.
         11   -1    0    0    0    0 -0.00000000000E+00 -0.00000000000E+00 -0.45593999997E+02  0.45594000000E+02  0.51100000000E-03 0. -1.
    9900012    2    1    2    0    0  0.38341274557E+02  0.33246822617E+01  0.20062809547E+02  0.47787272199E+02  0.20000005263E+02 0.  0.
         12    1    1    2    0    0 -0.38341274557E+02 -0.33246822617E+01 -0.20062809547E+02  0.43400727801E+02  0.00000000000E+00 0. -1.
         11    1    3    3    0    0  0.63929275033E+01  0.11739508154E+01  0.94152488082E+01  0.11440917488E+02  0.51100000000E-03 0. -1.
        -11    1    3    3    0    0  0.18295217707E+02  0.33140369506E+01  0.12664110896E+02  0.22496167160E+02  0.51100000000E-03 0.  1.
         12    1    3    3    0    0  0.13653129347E+02 -0.11633055043E+01 -0.20165501577E+01  0.13850187551E+02  0.00000000000E+00 0. -1.
</event>
<event>
 7    1  0.2318319E-009  0.4778730E+02  0.7816164E-02  0.1312668E+00
        -11   -1    0    0    0    0  0.00000000000E+00  0.00000000000E+00  0.45593999997E+02  0.45594000000E+02  0.51100000000E-03 0.  1.
         11   -1    0    0    0    0 -0.00000000000E+00 -0.00000000000E+00 -0.45593999997E+02  0.45594000000E+02  0.51100000000E-03 0. -1.
    9900012    2    1    2    0    0 -0.13381446506E+02  0.29474879272E+01  0.41180945211E+02  0.47787296733E+02  0.20000117122E+02 0.  0.
         12    1    1    2    0    0  0.13381446506E+02 -0.29474879272E+01 -0.41180945211E+02  0.43400703267E+02  0.00000000000E+00 0. -1.
         11    1    3    3    0    0 -0.85895122115E+01  0.39394635154E+01  0.14583734450E+02  0.17377698455E+02  0.51100000000E-03 0. -1.
        -11    1    3    3    0    0 -0.62002478065E+01 -0.64759340510E+01  0.14410294834E+02  0.16971664390E+02  0.51100000000E-03 0.  1.
         12    1    3    3    0    0  0.14083135124E+01  0.54839584628E+01  0.12186915926E+02  0.13437933887E+02  0.00000000000E+00 0. -1.
</event>
<event>
 7    1  0.2318319E-009  0.4778727E+02  0.7816164E-02  0.1312668E+00
        -11   -1    0    0    0    0  0.00000000000E+00  0.00000000000E+00  0.45593999997E+02  0.45594000000E+02  0.51100000000E-03 0.  1.
         11   -1    0    0    0    0 -0.00000000000E+00 -0.00000000000E+00 -0.45593999997E+02  0.45594000000E+02  0.51100000000E-03 0. -1.
    9900012    2    1    2    0    0  0.61852133186E+01  0.56488151976E+01  0.42584706815E+02  0.47787271533E+02  0.20000002228E+02 0.  0.
         12    1    1    2    0    0 -0.61852133186E+01 -0.56488151976E+01 -0.42584706815E+02  0.43400728467E+02  0.00000000000E+00 0. -1.
         11    1    3    3    0    0  0.19384153944E+01  0.60139472711E+01  0.56601927338E+01  0.84830889460E+01  0.51100000000E-03 0. -1.
        -11    1    3    3    0    0  0.81356587724E+01 -0.14243342760E+01  0.16119115488E+02  0.18111972730E+02  0.51100000000E-03 0.  1.
         12    1    3    3    0    0 -0.38888608482E+01  0.10592022026E+01  0.20805398593E+02  0.21192209857E+02  0.00000000000E+00 0. -1.
</event>
<event>
 7    1  0.2318319E-009  0.4778727E+02  0.7816164E-02  0.1312668E+00
        -11   -1    0    0    0    0  0.00000000000E+00  0.00000000000E+00  0.45593999997E+02  0.45594000000E+02  0.51100000000E-03 0.  1.
         11   -1    0    0    0    0 -0.00000000000E+00 -0.00000000000E+00 -0.45593999997E+02  0.45594000000E+02  0.51100000000E-03 0. -1.
    9900012    2    1    2    0    0 -0.28333794055E+02  0.30570958394E+02  0.12092798067E+02  0.47787272497E+02  0.20000006623E+02 0.  0.
         12    1    1    2    0    0  0.28333794055E+02 -0.30570958394E+02 -0.12092798067E+02  0.43400727503E+02  0.00000000000E+00 0. -1.
         11    1    3    3    0    0 -0.97472674286E+00  0.12172287293E+01 -0.19195298261E+01  0.24731221193E+01  0.51100000000E-03 0. -1.
        -11    1    3    3    0    0 -0.26068204253E+02  0.23303091686E+02  0.64701156500E+01  0.35559074114E+02  0.51100000000E-03 0.  1.
        -12    1    3    3    0    0 -0.12908630596E+01  0.60506379792E+01  0.75422122426E+01  0.97550762635E+01  0.00000000000E+00 0.  1.
</event>
<event>
 7    1  0.2318319E-009  0.4778727E+02  0.7816164E-02  0.1312668E+00
        -11   -1    0    0    0    0  0.00000000000E+00  0.00000000000E+00  0.45593999997E+02  0.45594000000E+02  0.51100000000E-03 0.  1.
         11   -1    0    0    0    0 -0.00000000000E+00 -0.00000000000E+00 -0.45593999997E+02  0.45594000000E+02  0.51100000000E-03 0. -1.
    9900012    2    1    2    0    0  0.18165702710E+01 -0.21583781814E+02  0.37609359053E+02  0.47787268977E+02  0.19999990572E+02 0.  0.
         12    1    1    2    0    0 -0.18165702710E+01  0.21583781814E+02 -0.37609359053E+02  0.43400731023E+02  0.00000000000E+00 0. -1.
         11    1    3    3    0    0  0.29834950597E+01 -0.13651844985E+01  0.30460572601E+01  0.44769896783E+01  0.51100000000E-03 0. -1.
        -11    1    3    3    0    0  0.71016245303E+01 -0.13908649790E+02  0.19053367787E+02  0.24635633425E+02  0.51100000000E-03 0.  1.
         12    1    3    3    0    0 -0.82685493190E+01 -0.63099475255E+01  0.15509934007E+02  0.18674645874E+02  0.00000000000E+00 0. -1.
</event>
<event>
 7    1  0.2318319E-009  0.4778727E+02  0.7816164E-02  0.1312668E+00
        -11   -1    0    0    0    0  0.00000000000E+00  0.00000000000E+00  0.45593999997E+02  0.45594000000E+02  0.51100000000E-03 0.  1.
         11   -1    0    0    0    0 -0.00000000000E+00 -0.00000000000E+00 -0.45593999997E+02  0.45594000000E+02  0.51100000000E-03 0. -1.
    9900012    2    1    2    0    0  0.26949622146E+02 -0.67027349621E+01  0.33352873100E+02  0.47787274962E+02  0.20000017863E+02 0.  0.
         12    1    1    2    0    0 -0.26949622146E+02  0.67027349621E+01 -0.33352873100E+02  0.43400725038E+02  0.00000000000E+00 0. -1.
         11    1    3    3    0    0  0.66389501617E+01 -0.63044947008E+01  0.29523490301E+01  0.96197025806E+01  0.51100000000E-03 0. -1.
        -11    1    3    3    0    0  0.55505421103E+01 -0.51487336966E+01  0.10131510649E+02  0.12647746230E+02  0.51100000000E-03 0.  1.
         12    1    3    3    0    0  0.14760129874E+02  0.47504934353E+01  0.20269013421E+02  0.25519826152E+02  0.00000000000E+00 0. -1.
</event>
<event>
 7    1  0.2318319E-009  0.4778727E+02  0.7816164E-02  0.1312668E+00
        -11   -1    0    0    0    0  0.00000000000E+00  0.00000000000E+00  0.45593999997E+02  0.45594000000E+02  0.51100000000E-03 0.  1.
         11   -1    0    0    0    0 -0.00000000000E+00 -0.00000000000E+00 -0.45593999997E+02  0.45594000000E+02  0.51100000000E-03 0. -1.
    9900012    2    1    2    0    0 -0.35920255554E+02 -0.10080364871E+02 -0.22175312046E+02  0.47787274438E+02  0.20000015472E+02 0.  0.
         12    1    1    2    0    0  0.35920255554E+02  0.10080364871E+02  0.22175312046E+02  0.43400725562E+02  0.00000000000E+00 0. -1.
         11    1    3    3    0    0 -0.29178763774E+01  0.30990996105E+01 -0.43734870202E+01  0.61029345341E+01  0.51100000000E-03 0. -1.
        -11    1    3    3    0    0 -0.19963744535E+02 -0.14277075658E+02 -0.12755251744E+02  0.27660123509E+02  0.51100000000E-03 0.  1.
         12    1    3    3    0    0 -0.13038634641E+02  0.10976111767E+01 -0.50465732824E+01  0.14024216395E+02  0.00000000000E+00 0. -1.
</event>
<event>
 7    1  0.2318319E-009  0.4778725E+02  0.7816164E-02  0.1312668E+00
        -11   -1    0    0    0    0  0.00000000000E+00  0.00000000000E+00  0.45593999997E+02  0.45594000000E+02  0.51100000000E-03 0. -1.
         11   -1    0    0    0    0 -0.00000000000E+00 -0.00000000000E+00 -0.45593999997E+02  0.45594000000E+02  0.51100000000E-03 0.  1.
    9900012    2    1    2    0    0 -0.28778379547E+02 -0.19136646495E+02 -0.26252983333E+02  0.47787245372E+02  0.19999882948E+02 0.  0.
         12    1    1    2    0    0  0.28778379547E+02  0.19136646495E+02  0.26252983333E+02  0.43400754628E+02  0.00000000000E+00 0. -1.
         11    1    3    3    0    0 -0.60609626381E+01 -0.36839801496E+01 -0.70644149553E+01  0.10010641177E+02  0.51100000000E-03 0. -1.
        -11    1    3    3    0    0 -0.14740338468E+02 -0.68563409034E+01 -0.20287947813E+02  0.25997842516E+02  0.51100000000E-03 0.  1.
         12    1    3    3    0    0 -0.79770784408E+01 -0.85963254416E+01  0.10993794361E+01  0.11778761679E+02  0.00000000000E+00 0. -1.
</event>
<event>
 7    1  0.2318319E-009  0.4778728E+02  0.7816164E-02  0.1312668E+00
        -11   -1    0    0    0    0  0.00000000000E+00  0.00000000000E+00  0.45593999997E+02  0.45594000000E+02  0.51100000000E-03 0.  1.
         11   -1    0    0    0    0 -0.00000000000E+00 -0.00000000000E+00 -0.45593999997E+02  0.45594000000E+02  0.51100000000E-03 0. -1.
    9900012    2    1    2    0    0  0.17826159388E+02  0.39487022598E+02  0.25740852461E+01  0.47787276193E+02  0.20000023472E+02 0.  0.
         12    1    1    2    0    0 -0.17826159388E+02 -0.39487022598E+02 -0.25740852461E+01  0.43400723807E+02  0.00000000000E+00 0. -1.
         11    1    3    3    0    0  0.89560914921E+01  0.81356410991E+01  0.30477417996E+01  0.12477538269E+02  0.51100000000E-03 0. -1.
        -11    1    3    3    0    0  0.10091794983E+02  0.27801079701E+02  0.35711392354E+01  0.29790894485E+02  0.51100000000E-03 0.  1.
        -12    1    3    3    0    0 -0.12217270867E+01  0.35503017976E+01 -0.40447957889E+01  0.55188434389E+01  0.00000000000E+00 0.  1.
</event>
<event>
 7    1  0.2318319E-009  0.4778727E+02  0.7816164E-02  0.1312668E+00
        -11   -1    0    0    0    0  0.00000000000E+00  0.00000000000E+00  0.45593999997E+02  0.45594000000E+02  0.51100000000E-03 0. -1.
         11   -1    0    0    0    0 -0.00000000000E+00 -0.00000000000E+00 -0.45593999997E+02  0.45594000000E+02  0.51100000000E-03 0.  1.
    9900012    2    1    2    0    0 -0.20119989733E+02  0.36748249056E+02  0.11330278993E+02  0.47787273997E+02  0.20000013464E+02 0.  0.
         12    1    1    2    0    0  0.20119989733E+02 -0.36748249056E+02 -0.11330278993E+02  0.43400726003E+02  0.00000000000E+00 0. -1.
         11    1    3    3    0    0  0.26805658916E+01  0.12160396393E+02  0.19647952597E+01  0.12606391022E+02  0.51100000000E-03 0. -1.
        -11    1    3    3    0    0 -0.46955567699E+01  0.75516998929E+01  0.98782912532E+00  0.89471912517E+01  0.51100000000E-03 0.  1.
         12    1    3    3    0    0 -0.18104998855E+02  0.17036152770E+02  0.83776546081E+01  0.26233691724E+02  0.00000000000E+00 0. -1.
</event>
<event>
 7    1  0.2318319E-009  0.4778727E+02  0.7816164E-02  0.1312668E+00
        -11   -1    0    0    0    0  0.00000000000E+00  0.00000000000E+00  0.45593999997E+02  0.45594000000E+02  0.51100000000E-03 0.  1.
         11   -1    0    0    0    0 -0.00000000000E+00 -0.00000000000E+00 -0.45593999997E+02  0.45594000000E+02  0.51100000000E-03 0. -1.
    9900012    2    1    2    0    0  0.16541460206E+02 -0.64602713743E+01  0.39601365535E+02  0.47787272308E+02  0.20000005761E+02 0.  0.
         12    1    1    2    0    0 -0.16541460206E+02  0.64602713743E+01 -0.39601365535E+02  0.43400727692E+02  0.00000000000E+00 0. -1.
         11    1    3    3    0    0  0.46564483273E+01 -0.54124771795E+00  0.21862188620E+02  0.22359131281E+02  0.51100000000E-03 0.  1.
        -11    1    3    3    0    0  0.24424713924E+01  0.36983418165E+01  0.65622441311E+01  0.79187402402E+01  0.51100000000E-03 0. -1.
        -12    1    3    3    0    0  0.94425404861E+01 -0.96173654729E+01  0.11176932784E+02  0.17509400787E+02  0.00000000000E+00 0.  1.
</event>
<event>
 7    1  0.2318319E-009  0.4778726E+02  0.7816164E-02  0.1312668E+00
        -11   -1    0    0    0    0  0.00000000000E+00  0.00000000000E+00  0.45593999997E+02  0.45594000000E+02  0.51100000000E-03 0.  1.
         11   -1    0    0    0    0 -0.00000000000E+00 -0.00000000000E+00 -0.45593999997E+02  0.45594000000E+02  0.51100000000E-03 0. -1.
    9900012    2    1    2    0    0 -0.14989021894E+02  0.39732482478E+02  0.89601172670E+01  0.47787255276E+02  0.19999928103E+02 0.  0.
         12    1    1    2    0    0  0.14989021894E+02 -0.39732482478E+02 -0.89601172670E+01  0.43400744724E+02  0.00000000000E+00 0. -1.
         11    1    3    3    0    0 -0.57865017891E+01  0.13189429331E+02  0.83894178837E+01  0.16668142719E+02  0.51100000000E-03 0. -1.
        -11    1    3    3    0    0 -0.17626457134E+01  0.21440714813E+02  0.31351835548E+01  0.21740297785E+02  0.51100000000E-03 0.  1.
         12    1    3    3    0    0 -0.74398743919E+01  0.51023383338E+01 -0.25644841715E+01  0.93788147709E+01  0.00000000000E+00 0. -1.
</event>
<event>
 7    1  0.2318319E-009  0.4778728E+02  0.7816164E-02  0.1312668E+00
        -11   -1    0    0    0    0  0.00000000000E+00  0.00000000000E+00  0.45593999997E+02  0.45594000000E+02  0.51100000000E-03 0.  1.
         11   -1    0    0    0    0 -0.00000000000E+00 -0.00000000000E+00 -0.45593999997E+02  0.45594000000E+02  0.51100000000E-03 0. -1.
    9900012    2    1    2    0    0 -0.42853057300E+02  0.24193796207E+01  0.64331039872E+01  0.47787277142E+02  0.20000027802E+02 0.  0.
         12    1    1    2    0    0  0.42853057300E+02 -0.24193796207E+01 -0.64331039872E+01  0.43400722858E+02  0.00000000000E+00 0. -1.
         11    1    3    3    0    0 -0.11819575285E+01 -0.15937883765E+01  0.19398231765E+01  0.27749052606E+01  0.51100000000E-03 0. -1.
        -11    1    3    3    0    0 -0.40274476297E+01 -0.10681996436E+01  0.56373674834E+01  0.70100853984E+01  0.51100000000E-03 0.  1.
         12    1    3    3    0    0 -0.37643652141E+02  0.50813676408E+01 -0.11440866726E+01  0.38002286483E+02  0.00000000000E+00 0. -1.
</event>
<event>
 7    1  0.2318319E-009  0.4778727E+02  0.7816164E-02  0.1312668E+00
        -11   -1    0    0    0    0  0.00000000000E+00  0.00000000000E+00  0.45593999997E+02  0.45594000000E+02  0.51100000000E-03 0.  1.
         11   -1    0    0    0    0 -0.00000000000E+00 -0.00000000000E+00 -0.45593999997E+02  0.45594000000E+02  0.51100000000E-03 0. -1.
    9900012    2    1    2    0    0 -0.91214165543E+01  0.25943503543E+02  0.33576150727E+02  0.47787268282E+02  0.19999987403E+02 0.  0.
         12    1    1    2    0    0  0.91214165543E+01 -0.25943503543E+02 -0.33576150727E+02  0.43400731718E+02  0.00000000000E+00 0. -1.
         11    1    3    3    0    0 -0.70249243811E+01  0.24007040660E+02  0.18655129814E+02  0.31204189341E+02  0.51100000000E-03 0. -1.
        -11    1    3    3    0    0 -0.15694546939E+01  0.34913599030E+01  0.39893418413E+01  0.55288001046E+01  0.51100000000E-03 0.  1.
        -12    1    3    3    0    0 -0.52703747933E+00 -0.15548970200E+01  0.10931679072E+02  0.11054278836E+02  0.00000000000E+00 0.  1.
</event>
<event>
 7    1  0.2318319E-009  0.4778727E+02  0.7816164E-02  0.1312668E+00
        -11   -1    0    0    0    0  0.00000000000E+00  0.00000000000E+00  0.45593999997E+02  0.45594000000E+02  0.51100000000E-03 0.  1.
         11   -1    0    0    0    0 -0.00000000000E+00 -0.00000000000E+00 -0.45593999997E+02  0.45594000000E+02  0.51100000000E-03 0. -1.
    9900012    2    1    2    0    0  0.14866938093E+02 -0.19504758748E+02  0.35807284283E+02  0.47787273395E+02  0.20000010719E+02 0.  0.
         12    1    1    2    0    0 -0.14866938093E+02  0.19504758748E+02 -0.35807284283E+02  0.43400726605E+02  0.00000000000E+00 0. -1.
         11    1    3    3    0    0  0.45994399535E+01 -0.18590411810E+01 -0.20559453835E+00  0.49651939916E+01  0.51100000000E-03 0. -1.
        -11    1    3    3    0    0  0.89395249512E+01 -0.60727422768E+01  0.12105014234E+02  0.16227281811E+02  0.51100000000E-03 0.  1.
         12    1    3    3    0    0  0.13279731879E+01 -0.11572975290E+02  0.23907864588E+02  0.26594797593E+02  0.00000000000E+00 0. -1.
</event>
<event>
 7    1  0.2318319E-009  0.4778727E+02  0.7816164E-02  0.1312668E+00
        -11   -1    0    0    0    0  0.00000000000E+00  0.00000000000E+00  0.45593999997E+02  0.45594000000E+02  0.51100000000E-03 0.  1.
         11   -1    0    0    0    0 -0.00000000000E+00 -0.00000000000E+00 -0.45593999997E+02  0.45594000000E+02  0.51100000000E-03 0. -1.
    9900012    2    1    2    0    0 -0.13099397840E+02 -0.40980575696E+02 -0.57115366171E+01  0.47787268915E+02  0.19999990293E+02 0.  0.
         12    1    1    2    0    0  0.13099397840E+02  0.40980575696E+02  0.57115366171E+01  0.43400731085E+02  0.00000000000E+00 0. -1.
         11    1    3    3    0    0 -0.11221175117E+02 -0.13754260115E+02 -0.30069713513E+01  0.18003786248E+02  0.51100000000E-03 0. -1.
        -11    1    3    3    0    0 -0.16829534437E+01 -0.18052174154E+01 -0.35780005430E+01  0.43466343713E+01  0.51100000000E-03 0.  1.
        -12    1    3    3    0    0 -0.19526927935E+00 -0.25421098166E+02  0.87343527718E+00  0.25436848296E+02  0.00000000000E+00 0.  1.
</event>
<event>
 7    1  0.2318319E-009  0.4778727E+02  0.7816164E-02  0.1312668E+00
        -11   -1    0    0    0    0  0.00000000000E+00  0.00000000000E+00  0.45593999997E+02  0.45594000000E+02  0.51100000000E-03 0.  1.
         11   -1    0    0    0    0 -0.00000000000E+00 -0.00000000000E+00 -0.45593999997E+02  0.45594000000E+02  0.51100000000E-03 0. -1.
    9900012    2    1    2    0    0  0.40898070818E+01 -0.10266313226E+02  0.41970221057E+02  0.47787272301E+02  0.20000005731E+02 0.  0.
         12    1    1    2    0    0 -0.40898070818E+01  0.10266313226E+02 -0.41970221057E+02  0.43400727699E+02  0.00000000000E+00 0. -1.
         11    1    3    3    0    0  0.41400581123E+01 -0.80172461166E+01  0.25291999794E+02  0.26853334436E+02  0.51100000000E-03 0. -1.
        -11    1    3    3    0    0  0.21153327505E+01  0.18816638665E+01  0.15966988395E+02  0.16216041756E+02  0.51100000000E-03 0.  1.
         12    1    3    3    0    0 -0.21655837809E+01 -0.41307309764E+01  0.71123286718E+00  0.47178961098E+01  0.00000000000E+00 0. -1.
</event>
<event>
 7    1  0.2318319E-009  0.4778725E+02  0.7816164E-02  0.1312668E+00
        -11   -1    0    0    0    0  0.00000000000E+00  0.00000000000E+00  0.45593999997E+02  0.45594000000E+02  0.51100000000E-03 0.  1.
         11   -1    0    0    0    0 -0.00000000000E+00 -0.00000000000E+00 -0.45593999997E+02  0.45594000000E+02  0.51100000000E-03 0. -1.
    9900012    2    1    2    0    0 -0.19356244990E+02 -0.13146335405E+02  0.36553179773E+02  0.47787247631E+02  0.19999893247E+02 0.  0.
         12    1    1    2    0    0  0.19356244990E+02  0.13146335405E+02 -0.36553179773E+02  0.43400752369E+02  0.00000000000E+00 0. -1.
         11    1    3    3    0    0 -0.22692967298E+01 -0.90956414717E+00  0.71145606038E+01  0.75228975423E+01  0.51100000000E-03 0. -1.
        -11    1    3    3    0    0 -0.90020693963E+01 -0.72371726274E+01  0.28452320326E+02  0.30707465757E+02  0.51100000000E-03 0.  1.
         12    1    3    3    0    0 -0.80848788638E+01 -0.49995986303E+01  0.98629884369E+00  0.95568843309E+01  0.00000000000E+00 0. -1.
</event>
<event>
 7    1  0.2318319E-009  0.4778727E+02  0.7816164E-02  0.1312668E+00
        -11   -1    0    0    0    0  0.00000000000E+00  0.00000000000E+00  0.45593999997E+02  0.45594000000E+02  0.51100000000E-03 0.  1.
         11   -1    0    0    0    0 -0.00000000000E+00 -0.00000000000E+00 -0.45593999997E+02  0.45594000000E+02  0.51100000000E-03 0. -1.
    9900012    2    1    2    0    0 -0.20449428257E+02 -0.35913305450E+01  0.38112289837E+02  0.47787269502E+02  0.19999992969E+02 0.  0.
         12    1    1    2    0    0  0.20449428257E+02  0.35913305450E+01 -0.38112289837E+02  0.43400730498E+02  0.00000000000E+00 0. -1.
         11    1    3    3    0    0 -0.52506262040E+01 -0.65801150471E+01  0.13560965897E+02  0.15961415535E+02  0.51100000000E-03 0. -1.
        -11    1    3    3    0    0 -0.40774690864E+01 -0.49042191125E+01  0.10187237173E+02  0.12019023285E+02  0.51100000000E-03 0.  1.
         12    1    3    3    0    0 -0.11121332966E+02  0.78930036146E+01  0.14364086767E+02  0.19806830682E+02  0.00000000000E+00 0. -1.
</event>
<event>
 7    1  0.2318319E-009  0.4778727E+02  0.7816164E-02  0.1312668E+00
        -11   -1    0    0    0    0  0.00000000000E+00  0.00000000000E+00  0.45593999997E+02  0.45594000000E+02  0.51100000000E-03 0. -1.
         11   -1    0    0    0    0 -0.00000000000E+00 -0.00000000000E+00 -0.45593999997E+02  0.45594000000E+02  0.51100000000E-03 0.  1.
    9900012    2    1    2    0    0  0.15082669685E+02  0.14892922491E+02 -0.37872646012E+02  0.47787269809E+02  0.19999994366E+02 0.  0.
         12    1    1    2    0    0 -0.15082669685E+02 -0.14892922491E+02  0.37872646012E+02  0.43400730191E+02  0.00000000000E+00 0. -1.
         11    1    3    3    0    0 -0.77582794589E+00  0.53542805886E+01 -0.30231509792E+01  0.61975536889E+01  0.51100000000E-03 0. -1.
        -11    1    3    3    0    0  0.37234501848E+00  0.11827353338E+01  0.10400892556E+01  0.16184219485E+01  0.51100000000E-03 0.  1.
        -12    1    3    3    0    0  0.15486152612E+02  0.83559065688E+01 -0.35889584289E+02  0.39971294171E+02  0.00000000000E+00 0.  1.
</event>
<event>
 7    1  0.2318319E-009  0.4778727E+02  0.7816164E-02  0.1312668E+00
        -11   -1    0    0    0    0  0.00000000000E+00  0.00000000000E+00  0.45593999997E+02  0.45594000000E+02  0.51100000000E-03 0. -1.
         11   -1    0    0    0    0 -0.00000000000E+00 -0.00000000000E+00 -0.45593999997E+02  0.45594000000E+02  0.51100000000E-03 0.  1.
    9900012    2    1    2    0    0  0.28629363382E+02  0.60426837990E+01 -0.32054153047E+02  0.47787271864E+02  0.20000003738E+02 0.  0.
         12    1    1    2    0    0 -0.28629363382E+02 -0.60426837990E+01  0.32054153047E+02  0.43400728136E+02  0.00000000000E+00 0. -1.
         11    1    3    3    0    0 -0.97938228361E+00  0.16470713203E+01 -0.85705042685E+00  0.20991830046E+01  0.51100000000E-03 0. -1.
        -11    1    3    3    0    0  0.16737550144E+02  0.69264700549E+01 -0.25753123015E+02  0.31485630334E+02  0.51100000000E-03 0.  1.
         12    1    3    3    0    0  0.12871195522E+02 -0.25308575762E+01 -0.54439796055E+01  0.14202458526E+02  0.00000000000E+00 0. -1.
</event>
<event>
 7    1  0.2318319E-009  0.4778727E+02  0.7816164E-02  0.1312668E+00
        -11   -1    0    0    0    0  0.00000000000E+00  0.00000000000E+00  0.45593999997E+02  0.45594000000E+02  0.51100000000E-03 0. -1.
         11   -1    0    0    0    0 -0.00000000000E+00 -0.00000000000E+00 -0.45593999997E+02  0.45594000000E+02  0.51100000000E-03 0.  1.
    9900012    2    1    2    0    0 -0.43255064307E+02  0.18076050679E+01 -0.30586403455E+01  0.47787270686E+02  0.19999998363E+02 0.  0.
         12    1    1    2    0    0  0.43255064307E+02 -0.18076050679E+01  0.30586403455E+01  0.43400729314E+02  0.00000000000E+00 0. -1.
         11    1    3    3    0    0 -0.79561074404E+00  0.14686656931E+01 -0.26536682838E+01  0.31355910122E+01  0.51100000000E-03 0. -1.
        -11    1    3    3    0    0 -0.43149708523E+01 -0.15772337225E+01 -0.42596337099E+01  0.62650713703E+01  0.51100000000E-03 0.  1.
        -12    1    3    3    0    0 -0.38144482710E+02  0.19161730973E+01  0.38546616482E+01  0.38386608303E+02  0.00000000000E+00 0.  1.
</event>
<event>
 7    1  0.2318319E-009  0.4778727E+02  0.7816164E-02  0.1312668E+00
        -11   -1    0    0    0    0  0.00000000000E+00  0.00000000000E+00  0.45593999997E+02  0.45594000000E+02  0.51100000000E-03 0. -1.
         11   -1    0    0    0    0 -0.00000000000E+00 -0.00000000000E+00 -0.45593999997E+02  0.45594000000E+02  0.51100000000E-03 0.  1.
    9900012    2    1    2    0    0 -0.31414221621E+02  0.73184176284E+01 -0.29038091746E+02  0.47787270411E+02  0.19999997110E+02 0.  0.
         12    1    1    2    0    0  0.31414221621E+02 -0.73184176284E+01  0.29038091746E+02  0.43400729589E+02  0.00000000000E+00 0. -1.
         11    1    3    3    0    0 -0.73745539037E+01  0.20515460533E+01 -0.11781118008E+02  0.14049470747E+02  0.51100000000E-03 0.  1.
        -11    1    3    3    0    0 -0.21745441073E+01  0.65199373601E+01 -0.59477539023E+01  0.90892244992E+01  0.51100000000E-03 0. -1.
        -12    1    3    3    0    0 -0.21865123610E+02 -0.12530657849E+01 -0.11309219836E+02  0.24648575165E+02  0.00000000000E+00 0.  1.
</event>
<event>
 7    1  0.2318319E-009  0.4778729E+02  0.7816164E-02  0.1312668E+00
        -11   -1    0    0    0    0  0.00000000000E+00  0.00000000000E+00  0.45593999997E+02  0.45594000000E+02  0.51100000000E-03 0.  1.
         11   -1    0    0    0    0 -0.00000000000E+00 -0.00000000000E+00 -0.45593999997E+02  0.45594000000E+02  0.51100000000E-03 0. -1.
    9900012    2    1    2    0    0 -0.24704579125E+02 -0.32636062300E+02  0.14428885638E+02  0.47787291101E+02  0.20000091445E+02 0.  0.
         12    1    1    2    0    0  0.24704579125E+02  0.32636062300E+02 -0.14428885638E+02  0.43400708899E+02  0.00000000000E+00 0. -1.
         11    1    3    3    0    0 -0.14188452281E+02 -0.17703007266E+02 -0.15731698105E+01  0.22741668978E+02  0.51100000000E-03 0. -1.
        -11    1    3    3    0    0 -0.62556547685E+01 -0.10348213390E+02  0.66717372407E+01  0.13810532756E+02  0.51100000000E-03 0.  1.
        -12    1    3    3    0    0 -0.42604720757E+01 -0.45848416443E+01  0.93303182082E+01  0.11235089367E+02  0.00000000000E+00 0.  1.
</event>
<event>
 7    1  0.2318319E-009  0.4778727E+02  0.7816164E-02  0.1312668E+00
        -11   -1    0    0    0    0  0.00000000000E+00  0.00000000000E+00  0.45593999997E+02  0.45594000000E+02  0.51100000000E-03 0. -1.
         11   -1    0    0    0    0 -0.00000000000E+00 -0.00000000000E+00 -0.45593999997E+02  0.45594000000E+02  0.51100000000E-03 0.  1.
    9900012    2    1    2    0    0  0.25093829257E+02  0.11038577236E+02  0.33646287060E+02  0.47787273196E+02  0.20000009810E+02 0.  0.
         12    1    1    2    0    0 -0.25093829257E+02 -0.11038577236E+02 -0.33646287060E+02  0.43400726804E+02  0.00000000000E+00 0. -1.
         11    1    3    3    0    0  0.28042209766E+01  0.69210751481E-01  0.14841711509E+02  0.15104464446E+02  0.51100000000E-03 0. -1.
        -11    1    3    3    0    0  0.20290901070E+02  0.69574484816E+01  0.18255311011E+02  0.28167057637E+02  0.51100000000E-03 0.  1.
        -12    1    3    3    0    0  0.19987072110E+01  0.40119180032E+01  0.54926454041E+00  0.45157511131E+01  0.00000000000E+00 0.  1.
</event>
<event>
 7    1  0.2318319E-009  0.4778727E+02  0.7816164E-02  0.1312668E+00
        -11   -1    0    0    0    0  0.00000000000E+00  0.00000000000E+00  0.45593999997E+02  0.45594000000E+02  0.51100000000E-03 0.  1.
         11   -1    0    0    0    0 -0.00000000000E+00 -0.00000000000E+00 -0.45593999997E+02  0.45594000000E+02  0.51100000000E-03 0. -1.
    9900012    2    1    2    0    0 -0.13199065145E+02  0.36219721192E+02  0.19938399678E+02  0.47787270679E+02  0.19999998332E+02 0.  0.
         12    1    1    2    0    0  0.13199065145E+02 -0.36219721192E+02 -0.19938399678E+02  0.43400729322E+02  0.00000000000E+00 0. -1.
         11    1    3    3    0    0  0.59527354318E+00  0.67428140963E-01  0.45712843038E+00  0.75356738808E+00  0.51100000000E-03 0. -1.
        -11    1    3    3    0    0 -0.36338734765E+01  0.10273355062E+02  0.15501209753E+02  0.18948202151E+02  0.51100000000E-03 0.  1.
         12    1    3    3    0    0 -0.10160465212E+02  0.25878937989E+02  0.39800614941E+01  0.28085501139E+02  0.00000000000E+00 0. -1.
</event>
<event>
 7    1  0.2318319E-009  0.4778726E+02  0.7816164E-02  0.1312668E+00
        -11   -1    0    0    0    0  0.00000000000E+00  0.00000000000E+00  0.45593999997E+02  0.45594000000E+02  0.51100000000E-03 0.  1.
         11   -1    0    0    0    0 -0.00000000000E+00 -0.00000000000E+00 -0.45593999997E+02  0.45594000000E+02  0.51100000000E-03 0. -1.
    9900012    2    1    2    0    0  0.32281314643E+01  0.40637315299E+02 -0.14893348542E+02  0.47787262008E+02  0.19999958798E+02 0.  0.
         12    1    1    2    0    0 -0.32281314643E+01 -0.40637315299E+02  0.14893348542E+02  0.43400737992E+02  0.00000000000E+00 0. -1.
         11    1    3    3    0    0  0.64641497358E+01  0.18085039322E+02 -0.29365394720E+01  0.19428771022E+02  0.51100000000E-03 0.  1.
        -11    1    3    3    0    0  0.14358458258E+01  0.33737214161E+01  0.20064574118E+01  0.41796556121E+01  0.51100000000E-03 0. -1.
         12    1    3    3    0    0 -0.46718640973E+01  0.19178554561E+02 -0.13963266482E+02  0.24178835374E+02  0.00000000000E+00 0. -1.
</event>
<event>
 7    1  0.2318319E-009  0.4778727E+02  0.7816164E-02  0.1312668E+00
        -11   -1    0    0    0    0  0.00000000000E+00  0.00000000000E+00  0.45593999997E+02  0.45594000000E+02  0.51100000000E-03 0.  1.
         11   -1    0    0    0    0 -0.00000000000E+00 -0.00000000000E+00 -0.45593999997E+02  0.45594000000E+02  0.51100000000E-03 0. -1.
    9900012    2    1    2    0    0 -0.23232639511E+02  0.34326525331E+02  0.12866912311E+02  0.47787270601E+02  0.19999997976E+02 0.  0.
         12    1    1    2    0    0  0.23232639511E+02 -0.34326525331E+02 -0.12866912311E+02  0.43400729399E+02  0.00000000000E+00 0. -1.
         11    1    3    3    0    0 -0.75986533644E+01  0.17898592265E+02  0.10765504996E+02  0.22226003602E+02  0.51100000000E-03 0. -1.
        -11    1    3    3    0    0  0.12625392585E+01  0.31040732958E+01  0.22616652688E+01  0.40428215956E+01  0.51100000000E-03 0.  1.
         12    1    3    3    0    0 -0.16896525405E+02  0.13323859770E+02 -0.16025795378E+00  0.21518445403E+02  0.00000000000E+00 0. -1.
</event>
<event>
 7    1  0.2318319E-009  0.4778727E+02  0.7816164E-02  0.1312668E+00
        -11   -1    0    0    0    0  0.00000000000E+00  0.00000000000E+00  0.45593999997E+02  0.45594000000E+02  0.51100000000E-03 0. -1.
         11   -1    0    0    0    0 -0.00000000000E+00 -0.00000000000E+00 -0.45593999997E+02  0.45594000000E+02  0.51100000000E-03 0.  1.
    9900012    2    1    2    0    0 -0.27913136277E+02 -0.30555435582E+02 -0.13070776129E+02  0.47787274096E+02  0.20000013913E+02 0.  0.
         12    1    1    2    0    0  0.27913136277E+02  0.30555435582E+02  0.13070776129E+02  0.43400725904E+02  0.00000000000E+00 0. -1.
         11    1    3    3    0    0 -0.58829508741E+01 -0.74836136298E+01 -0.74815155691E+01  0.12107297775E+02  0.51100000000E-03 0. -1.
        -11    1    3    3    0    0 -0.10709407684E+02 -0.35500797809E+01 -0.66352997237E+01  0.13088990873E+02  0.51100000000E-03 0.  1.
         12    1    3    3    0    0 -0.11320777719E+02 -0.19521742171E+02  0.10460391643E+01  0.22590985447E+02  0.00000000000E+00 0. -1.
</event>
<event>
 7    1  0.2318319E-009  0.4778727E+02  0.7816164E-02  0.1312668E+00
        -11   -1    0    0    0    0  0.00000000000E+00  0.00000000000E+00  0.45593999997E+02  0.45594000000E+02  0.51100000000E-03 0.  1.
         11   -1    0    0    0    0 -0.00000000000E+00 -0.00000000000E+00 -0.45593999997E+02  0.45594000000E+02  0.51100000000E-03 0. -1.
    9900012    2    1    2    0    0 -0.41979309518E+02  0.38739232344E+01  0.10312787823E+02  0.47787270726E+02  0.19999998549E+02 0.  0.
         12    1    1    2    0    0  0.41979309518E+02 -0.38739232344E+01 -0.10312787823E+02  0.43400729274E+02  0.00000000000E+00 0. -1.
         11    1    3    3    0    0 -0.27235212769E+02  0.67185140255E+01  0.23153833206E+01  0.28147046834E+02  0.51100000000E-03 0. -1.
        -11    1    3    3    0    0 -0.99385766408E+01 -0.28655361279E+01  0.39044673231E-01  0.10343506547E+02  0.51100000000E-03 0.  1.
         12    1    3    3    0    0 -0.48055201076E+01  0.20945336803E-01  0.79583598295E+01  0.92967173448E+01  0.00000000000E+00 0. -1.
</event>
<event>
 7    1  0.2318319E-009  0.4778728E+02  0.7816164E-02  0.1312668E+00
        -11   -1    0    0    0    0  0.00000000000E+00  0.00000000000E+00  0.45593999997E+02  0.45594000000E+02  0.51100000000E-03 0.  1.
         11   -1    0    0    0    0 -0.00000000000E+00 -0.00000000000E+00 -0.45593999997E+02  0.45594000000E+02  0.51100000000E-03 0. -1.
    9900012    2    1    2    0    0  0.12622964589E+02 -0.40277103988E+02  0.10101404601E+02  0.47787277476E+02  0.20000029326E+02 0.  0.
         12    1    1    2    0    0 -0.12622964589E+02  0.40277103988E+02 -0.10101404601E+02  0.43400722524E+02  0.00000000000E+00 0. -1.
         11    1    3    3    0    0  0.11066593617E+01  0.10373126949E+01 -0.34192154145E+00  0.15548707893E+01  0.51100000000E-03 0. -1.
        -11    1    3    3    0    0  0.13130253825E+00 -0.17744553167E+01 -0.25265993907E+01  0.30902486583E+01  0.51100000000E-03 0.  1.
        -12    1    3    3    0    0  0.11385002689E+02 -0.39539961366E+02  0.12969925533E+02  0.43142158029E+02  0.00000000000E+00 0.  1.
</event>
<event>
 7    1  0.2318319E-009  0.4778727E+02  0.7816164E-02  0.1312668E+00
        -11   -1    0    0    0    0  0.00000000000E+00  0.00000000000E+00  0.45593999997E+02  0.45594000000E+02  0.51100000000E-03 0. -1.
         11   -1    0    0    0    0 -0.00000000000E+00 -0.00000000000E+00 -0.45593999997E+02  0.45594000000E+02  0.51100000000E-03 0.  1.
    9900012    2    1    2    0    0  0.10902609328E+02  0.20513945141E+02 -0.36659709387E+02  0.47787272728E+02  0.20000007676E+02 0.  0.
         12    1    1    2    0    0 -0.10902609328E+02 -0.20513945141E+02  0.36659709387E+02  0.43400727272E+02  0.00000000000E+00 0. -1.
         11    1    3    3    0    0  0.53504340572E+01  0.86824110679E+01 -0.12287058809E+02  0.15968194043E+02  0.51100000000E-03 0. -1.
        -11    1    3    3    0    0 -0.67440693875E+00  0.87558396273E+01 -0.23160218961E+02  0.24769240902E+02  0.51100000000E-03 0.  1.
         12    1    3    3    0    0  0.62265822096E+01  0.30756944462E+01 -0.12124316168E+01  0.70498377829E+01  0.00000000000E+00 0. -1.
</event>
<event>
 7    1  0.2318319E-009  0.4778728E+02  0.7816164E-02  0.1312668E+00
        -11   -1    0    0    0    0  0.00000000000E+00  0.00000000000E+00  0.45593999997E+02  0.45594000000E+02  0.51100000000E-03 0.  1.
         11   -1    0    0    0    0 -0.00000000000E+00 -0.00000000000E+00 -0.45593999997E+02  0.45594000000E+02  0.51100000000E-03 0. -1.
    9900012    2    1    2    0    0 -0.19510872977E+02  0.22403472916E+02  0.31639105355E+02  0.47787277071E+02  0.20000027479E+02 0.  0.
         12    1    1    2    0    0  0.19510872977E+02 -0.22403472916E+02 -0.31639105355E+02  0.43400722929E+02  0.00000000000E+00 0. -1.
         11    1    3    3    0    0 -0.70101427895E+01  0.76170960350E+01  0.27095976677E+01  0.10700662303E+02  0.51100000000E-03 0. -1.
        -11    1    3    3    0    0  0.15797006957E+01 -0.10252064943E+01  0.36898760755E+01  0.41426668171E+01  0.51100000000E-03 0.  1.
        -12    1    3    3    0    0 -0.14080430883E+02  0.15811583376E+02  0.25239631612E+02  0.32943947951E+02  0.00000000000E+00 0.  1.
</event>
<event>
 7    1  0.2318319E-009  0.4778727E+02  0.7816164E-02  0.1312668E+00
        -11   -1    0    0    0    0  0.00000000000E+00  0.00000000000E+00  0.45593999997E+02  0.45594000000E+02  0.51100000000E-03 0. -1.
         11   -1    0    0    0    0 -0.00000000000E+00 -0.00000000000E+00 -0.45593999997E+02  0.45594000000E+02  0.51100000000E-03 0.  1.
    9900012    2    1    2    0    0 -0.15623784944E+02  0.68127085276E+01 -0.39913752004E+02  0.47787271291E+02  0.20000001122E+02 0.  0.
         12    1    1    2    0    0  0.15623784944E+02 -0.68127085276E+01  0.39913752004E+02  0.43400728709E+02  0.00000000000E+00 0. -1.
         11    1    3    3    0    0 -0.11556872179E+02 -0.39524524694E+01 -0.20190454312E+02  0.23597407075E+02  0.51100000000E-03 0.  1.
        -11    1    3    3    0    0  0.31304716706E-01 -0.12646907817E+01 -0.13564214743E+01  0.18548051746E+01  0.51100000000E-03 0. -1.
        -12    1    3    3    0    0 -0.40982174813E+01  0.12029851779E+02 -0.18366876218E+02  0.22335059041E+02  0.00000000000E+00 0.  1.
</event>
<event>
 7    1  0.2318319E-009  0.4778727E+02  0.7816164E-02  0.1312668E+00
        -11   -1    0    0    0    0  0.00000000000E+00  0.00000000000E+00  0.45593999997E+02  0.45594000000E+02  0.51100000000E-03 0.  1.
         11   -1    0    0    0    0 -0.00000000000E+00 -0.00000000000E+00 -0.45593999997E+02  0.45594000000E+02  0.51100000000E-03 0. -1.
    9900012    2    1    2    0    0  0.15655699482E+02 -0.16234363799E+02  0.37080555371E+02  0.47787273268E+02  0.20000010139E+02 0.  0.
         12    1    1    2    0    0 -0.15655699482E+02  0.16234363799E+02 -0.37080555371E+02  0.43400726732E+02  0.00000000000E+00 0. -1.
         11    1    3    3    0    0  0.10574985421E+02 -0.10986840842E+02  0.18353494177E+02  0.23861930708E+02  0.51100000000E-03 0. -1.
        -11    1    3    3    0    0  0.67732621863E+01 -0.78762328661E+01  0.91236246369E+01  0.13825796598E+02  0.51100000000E-03 0.  1.
         12    1    3    3    0    0 -0.16925481253E+01  0.26287099085E+01  0.96034365565E+01  0.10099545962E+02  0.00000000000E+00 0. -1.
</event>
<event>
 7    1  0.2318319E-009  0.4778727E+02  0.7816164E-02  0.1312668E+00
        -11   -1    0    0    0    0  0.00000000000E+00  0.00000000000E+00  0.45593999997E+02  0.45594000000E+02  0.51100000000E-03 0.  1.
         11   -1    0    0    0    0 -0.00000000000E+00 -0.00000000000E+00 -0.45593999997E+02  0.45594000000E+02  0.51100000000E-03 0. -1.
    9900012    2    1    2    0    0  0.70320286032E-01 -0.35445646763E+02  0.25044449374E+02  0.47787271160E+02  0.20000000527E+02 0.  0.
         12    1    1    2    0    0 -0.70320286032E-01  0.35445646763E+02 -0.25044449374E+02  0.43400728840E+02  0.00000000000E+00 0. -1.
         11    1    3    3    0    0 -0.41029534118E+00 -0.39033472706E+01 -0.50789727391E+00  0.39575778051E+01  0.51100000000E-03 0. -1.
        -11    1    3    3    0    0  0.46008926557E+01 -0.30607352248E+02  0.24503130092E+02  0.39476342402E+02  0.51100000000E-03 0.  1.
        -12    1    3    3    0    0 -0.41202770285E+01 -0.93494724443E+00  0.10492165565E+01  0.43533509534E+01  0.00000000000E+00 0.  1.
</event>
<event>
 7    1  0.2318319E-009  0.4778726E+02  0.7816164E-02  0.1312668E+00
        -11   -1    0    0    0    0  0.00000000000E+00  0.00000000000E+00  0.45593999997E+02  0.45594000000E+02  0.51100000000E-03 0.  1.
         11   -1    0    0    0    0 -0.00000000000E+00 -0.00000000000E+00 -0.45593999997E+02  0.45594000000E+02  0.51100000000E-03 0. -1.
    9900012    2    1    2    0    0  0.13008195337E+02  0.11429786294E+01  0.41389664222E+02  0.47787264402E+02  0.19999969714E+02 0.  0.
         12    1    1    2    0    0 -0.13008195337E+02 -0.11429786294E+01 -0.41389664222E+02  0.43400735598E+02  0.00000000000E+00 0. -1.
         11    1    3    3    0    0 -0.25742446609E+01 -0.28135884816E+01  0.22521629346E+01  0.44289111374E+01  0.51100000000E-03 0. -1.
        -11    1    3    3    0    0  0.53032582251E+00  0.24966591960E+01  0.19453020527E+01  0.32091670191E+01  0.51100000000E-03 0.  1.
        -12    1    3    3    0    0  0.15052114175E+02  0.14599079149E+01  0.37192199235E+02  0.40149186245E+02  0.00000000000E+00 0.  1.
</event>
<event>
 7    1  0.2318319E-009  0.4778733E+02  0.7816164E-02  0.1312667E+00
        -11   -1    0    0    0    0  0.00000000000E+00  0.00000000000E+00  0.45593999997E+02  0.45594000000E+02  0.51100000000E-03 0.  1.
         11   -1    0    0    0    0 -0.00000000000E+00 -0.00000000000E+00 -0.45593999997E+02  0.45594000000E+02  0.51100000000E-03 0. -1.
    9900012    2    1    2    0    0  0.71870619472E+01  0.70765739393E+01  0.42212395649E+02  0.47787330597E+02  0.20000271523E+02 0.  0.
         12    1    1    2    0    0 -0.71870619472E+01 -0.70765739393E+01 -0.42212395649E+02  0.43400669403E+02  0.00000000000E+00 0. -1.
         11    1    3    3    0    0 -0.42459408459E+00 -0.30448382120E+01  0.49454843230E+01  0.58231551004E+01  0.51100000000E-03 0. -1.
        -11    1    3    3    0    0  0.40966850622E+01  0.11311386170E+01  0.28836785049E+02  0.29148284260E+02  0.51100000000E-03 0.  1.
        -12    1    3    3    0    0  0.35149709696E+01  0.89902735343E+01  0.84301262770E+01  0.12815891236E+02  0.00000000000E+00 0.  1.
</event>
<event>
 7    1  0.2318319E-009  0.4778728E+02  0.7816164E-02  0.1312668E+00
        -11   -1    0    0    0    0  0.00000000000E+00  0.00000000000E+00  0.45593999997E+02  0.45594000000E+02  0.51100000000E-03 0. -1.
         11   -1    0    0    0    0 -0.00000000000E+00 -0.00000000000E+00 -0.45593999997E+02  0.45594000000E+02  0.51100000000E-03 0.  1.
    9900012    2    1    2    0    0 -0.39671504141E+02  0.17483459213E+02  0.20305197428E+01  0.47787278839E+02  0.20000035540E+02 0.  0.
         12    1    1    2    0    0  0.39671504141E+02 -0.17483459213E+02 -0.20305197428E+01  0.43400721161E+02  0.00000000000E+00 0. -1.
         11    1    3    3    0    0 -0.69154100189E+01  0.53672204434E+01  0.27715123052E+00  0.87582397823E+01  0.51100000000E-03 0. -1.
        -11    1    3    3    0    0 -0.34657902287E+01 -0.11628088841E+01 -0.49742168279E+01  0.61730591867E+01  0.51100000000E-03 0.  1.
        -12    1    3    3    0    0 -0.29290303893E+02  0.13279047654E+02  0.67275853402E+01  0.32855979870E+02  0.00000000000E+00 0.  1.
</event>
<event>
 7    1  0.2318319E-009  0.4778727E+02  0.7816164E-02  0.1312668E+00
        -11   -1    0    0    0    0  0.00000000000E+00  0.00000000000E+00  0.45593999997E+02  0.45594000000E+02  0.51100000000E-03 0. -1.
         11   -1    0    0    0    0 -0.00000000000E+00 -0.00000000000E+00 -0.45593999997E+02  0.45594000000E+02  0.51100000000E-03 0.  1.
    9900012    2    1    2    0    0  0.12664259810E+02  0.39434304348E+02 -0.12968240966E+02  0.47787272936E+02  0.20000008625E+02 0.  0.
         12    1    1    2    0    0 -0.12664259810E+02 -0.39434304348E+02  0.12968240966E+02  0.43400727064E+02  0.00000000000E+00 0. -1.
         11    1    3    3    0    0  0.57165144995E+01  0.57414692261E+01 -0.29583576237E+01  0.86252470683E+01  0.51100000000E-03 0.  1.
        -11    1    3    3    0    0  0.72710773954E+01  0.32517727087E+02 -0.46240941425E+01  0.33640056306E+02  0.51100000000E-03 0. -1.
         12    1    3    3    0    0 -0.32333208507E+00  0.11751080344E+01 -0.53857891999E+01  0.55219695613E+01  0.00000000000E+00 0. -1.
</event>
<event>
 7    1  0.2318319E-009  0.4778727E+02  0.7816164E-02  0.1312668E+00
        -11   -1    0    0    0    0  0.00000000000E+00  0.00000000000E+00  0.45593999997E+02  0.45594000000E+02  0.51100000000E-03 0.  1.
         11   -1    0    0    0    0 -0.00000000000E+00 -0.00000000000E+00 -0.45593999997E+02  0.45594000000E+02  0.51100000000E-03 0. -1.
    9900012    2    1    2    0    0  0.31424392395E+02 -0.26867862151E+02  0.13200344871E+02  0.47787267764E+02  0.19999985042E+02 0.  0.
         12    1    1    2    0    0 -0.31424392395E+02  0.26867862151E+02 -0.13200344871E+02  0.43400732236E+02  0.00000000000E+00 0. -1.
         11    1    3    3    0    0  0.11323450210E+02 -0.10459743340E+02 -0.42823435381E+01  0.15998913146E+02  0.51100000000E-03 0. -1.
        -11    1    3    3    0    0  0.10366470028E+02 -0.77602885956E+01  0.54175200981E+01  0.14036926451E+02  0.51100000000E-03 0.  1.
         12    1    3    3    0    0  0.97344721573E+01 -0.86478302149E+01  0.12065168311E+02  0.17751428167E+02  0.00000000000E+00 0. -1.
</event>
<event>
 7    1  0.2318319E-009  0.4778727E+02  0.7816164E-02  0.1312668E+00
        -11   -1    0    0    0    0  0.00000000000E+00  0.00000000000E+00  0.45593999997E+02  0.45594000000E+02  0.51100000000E-03 0.  1.
         11   -1    0    0    0    0 -0.00000000000E+00 -0.00000000000E+00 -0.45593999997E+02  0.45594000000E+02  0.51100000000E-03 0. -1.
    9900012    2    1    2    0    0  0.11251985722E+02  0.33286690792E+02  0.25475717921E+02  0.47787272239E+02  0.20000005446E+02 0.  0.
         12    1    1    2    0    0 -0.11251985722E+02 -0.33286690792E+02 -0.25475717921E+02  0.43400727761E+02  0.00000000000E+00 0. -1.
         11    1    3    3    0    0  0.98686563747E+01  0.15081452339E+02  0.10422449436E+02  0.20819895192E+02  0.51100000000E-03 0. -1.
        -11    1    3    3    0    0  0.12115297718E+01  0.16942810871E+02  0.62920217625E+01  0.18113977551E+02  0.51100000000E-03 0.  1.
        -12    1    3    3    0    0  0.17179957528E+00  0.12624275822E+01  0.87612467228E+01  0.88533994958E+01  0.00000000000E+00 0.  1.
</event>
<event>
 7    1  0.2318319E-009  0.4778727E+02  0.7816164E-02  0.1312668E+00
        -11   -1    0    0    0    0  0.00000000000E+00  0.00000000000E+00  0.45593999997E+02  0.45594000000E+02  0.51100000000E-03 0.  1.
         11   -1    0    0    0    0 -0.00000000000E+00 -0.00000000000E+00 -0.45593999997E+02  0.45594000000E+02  0.51100000000E-03 0. -1.
    9900012    2    1    2    0    0 -0.11138581437E+02 -0.21208960538E+01  0.41893403135E+02  0.47787269330E+02  0.19999992182E+02 0.  0.
         12    1    1    2    0    0  0.11138581437E+02  0.21208960538E+01 -0.41893403135E+02  0.43400730670E+02  0.00000000000E+00 0. -1.
         11    1    3    3    0    0 -0.37902672349E+01  0.13584810760E+01  0.18393697499E+01  0.44266102024E+01  0.51100000000E-03 0. -1.
        -11    1    3    3    0    0 -0.12556831293E+01 -0.18486284308E+01 -0.52401326088E+00  0.22953773884E+01  0.51100000000E-03 0.  1.
        -12    1    3    3    0    0 -0.60926310732E+01 -0.16307486991E+01  0.40578046646E+02  0.41065281739E+02  0.00000000000E+00 0.  1.
</event>
<event>
 7    1  0.2318319E-009  0.4778727E+02  0.7816164E-02  0.1312668E+00
        -11   -1    0    0    0    0  0.00000000000E+00  0.00000000000E+00  0.45593999997E+02  0.45594000000E+02  0.51100000000E-03 0. -1.
         11   -1    0    0    0    0 -0.00000000000E+00 -0.00000000000E+00 -0.45593999997E+02  0.45594000000E+02  0.51100000000E-03 0.  1.
    9900012    2    1    2    0    0  0.43280704209E+02 -0.11895066247E+00  0.32233131529E+01  0.47787271276E+02  0.20000001058E+02 0.  0.
         12    1    1    2    0    0 -0.43280704209E+02  0.11895066247E+00 -0.32233131529E+01  0.43400728724E+02  0.00000000000E+00 0. -1.
         11    1    3    3    0    0  0.15692141514E+02  0.18194299866E+01  0.14684959922E+01  0.15865374610E+02  0.51100000000E-03 0. -1.
        -11    1    3    3    0    0  0.22564944559E+02  0.18409747339E+01 -0.44677326788E+01  0.23076536708E+02  0.51100000000E-03 0.  1.
         12    1    3    3    0    0  0.50236181364E+01 -0.37793553830E+01  0.62225498395E+01  0.88453599586E+01  0.00000000000E+00 0. -1.
</event>
<event>
 7    1  0.2318319E-009  0.4778726E+02  0.7816164E-02  0.1312668E+00
        -11   -1    0    0    0    0  0.00000000000E+00  0.00000000000E+00  0.45593999997E+02  0.45594000000E+02  0.51100000000E-03 0.  1.
         11   -1    0    0    0    0 -0.00000000000E+00 -0.00000000000E+00 -0.45593999997E+02  0.45594000000E+02  0.51100000000E-03 0. -1.
    9900012    2    1    2    0    0 -0.26108257511E+02  0.21908211099E+02  0.26870301297E+02  0.47787263651E+02  0.19999966293E+02 0.  0.
         12    1    1    2    0    0  0.26108257511E+02 -0.21908211099E+02 -0.26870301297E+02  0.43400736349E+02  0.00000000000E+00 0. -1.
         11    1    3    3    0    0 -0.10550741859E+02  0.14557005354E+02  0.15547004980E+02  0.23768338662E+02  0.51100000000E-03 0.  1.
        -11    1    3    3    0    0  0.19886846375E+01  0.13274969030E+01  0.25564112702E+01  0.35003361922E+01  0.51100000000E-03 0. -1.
        -12    1    3    3    0    0 -0.17546200289E+02  0.60237088422E+01  0.87668850468E+01  0.20518588797E+02  0.00000000000E+00 0.  1.
</event>
<event>
 7    1  0.2318319E-009  0.4778727E+02  0.7816164E-02  0.1312668E+00
        -11   -1    0    0    0    0  0.00000000000E+00  0.00000000000E+00  0.45593999997E+02  0.45594000000E+02  0.51100000000E-03 0.  1.
         11   -1    0    0    0    0 -0.00000000000E+00 -0.00000000000E+00 -0.45593999997E+02  0.45594000000E+02  0.51100000000E-03 0. -1.
    9900012    2    1    2    0    0 -0.24739876366E+02 -0.27084785198E+00  0.35657937014E+02  0.47787270591E+02  0.19999997932E+02 0.  0.
         12    1    1    2    0    0  0.24739876366E+02  0.27084785198E+00 -0.35657937014E+02  0.43400729409E+02  0.00000000000E+00 0. -1.
         11    1    3    3    0    0 -0.44383371703E+01  0.82983773001E+01  0.11537690737E+02  0.14888929124E+02  0.51100000000E-03 0. -1.
        -11    1    3    3    0    0 -0.55657311850E+00 -0.10572350467E+01  0.83304554553E+00  0.14565317443E+01  0.51100000000E-03 0.  1.
         12    1    3    3    0    0 -0.19744966077E+02 -0.75119901054E+01  0.23287200732E+02  0.31441809723E+02  0.00000000000E+00 0. -1.
</event>
<event>
 7    1  0.2318319E-009  0.4778727E+02  0.7816164E-02  0.1312668E+00
        -11   -1    0    0    0    0  0.00000000000E+00  0.00000000000E+00  0.45593999997E+02  0.45594000000E+02  0.51100000000E-03 0.  1.
         11   -1    0    0    0    0 -0.00000000000E+00 -0.00000000000E+00 -0.45593999997E+02  0.45594000000E+02  0.51100000000E-03 0. -1.
    9900012    2    1    2    0    0  0.96434976854E+01  0.27766513141E+02  0.31931909366E+02  0.47787272640E+02  0.20000007275E+02 0.  0.
         12    1    1    2    0    0 -0.96434976854E+01 -0.27766513141E+02 -0.31931909366E+02  0.43400727360E+02  0.00000000000E+00 0. -1.
         11    1    3    3    0    0  0.83970197472E+01  0.70801722165E+01  0.20632996933E+02  0.23374330834E+02  0.51100000000E-03 0.  1.
        -11    1    3    3    0    0 -0.12803611617E+01  0.19317809457E+01 -0.10229682190E+00  0.23198205162E+01  0.51100000000E-03 0. -1.
        -12    1    3    3    0    0  0.25268391000E+01  0.18754559979E+02  0.11401209254E+02  0.22093121289E+02  0.00000000000E+00 0.  1.
</event>
<event>
 7    1  0.2318319E-009  0.4778727E+02  0.7816164E-02  0.1312668E+00
        -11   -1    0    0    0    0  0.00000000000E+00  0.00000000000E+00  0.45593999997E+02  0.45594000000E+02  0.51100000000E-03 0.  1.
         11   -1    0    0    0    0 -0.00000000000E+00 -0.00000000000E+00 -0.45593999997E+02  0.45594000000E+02  0.51100000000E-03 0. -1.
    9900012    2    1    2    0    0 -0.24026057000E+02 -0.40187640977E+01  0.35919652968E+02  0.47787270177E+02  0.19999996045E+02 0.  0.
         12    1    1    2    0    0  0.24026057000E+02  0.40187640977E+01 -0.35919652968E+02  0.43400729823E+02  0.00000000000E+00 0. -1.
         11    1    3    3    0    0 -0.76421382692E+00  0.31273451290E+01  0.11105007618E+00  0.32212796696E+01  0.51100000000E-03 0. -1.
        -11    1    3    3    0    0 -0.85055628020E+01  0.17221196487E+01  0.76875734710E+01  0.11593493037E+02  0.51100000000E-03 0.  1.
        -12    1    3    3    0    0 -0.14756280371E+02 -0.88682288754E+01  0.28121029421E+02  0.32972497471E+02  0.00000000000E+00 0.  1.
</event>
<event>
 7    1  0.2318319E-009  0.4778727E+02  0.7816164E-02  0.1312668E+00
        -11   -1    0    0    0    0  0.00000000000E+00  0.00000000000E+00  0.45593999997E+02  0.45594000000E+02  0.51100000000E-03 0. -1.
         11   -1    0    0    0    0 -0.00000000000E+00 -0.00000000000E+00 -0.45593999997E+02  0.45594000000E+02  0.51100000000E-03 0.  1.
    9900012    2    1    2    0    0 -0.21336418068E+02 -0.17795839973E+02 -0.33341999646E+02  0.47787267325E+02  0.19999983041E+02 0.  0.
         12    1    1    2    0    0  0.21336418068E+02  0.17795839973E+02  0.33341999646E+02  0.43400732675E+02  0.00000000000E+00 0. -1.
         11    1    3    3    0    0  0.17319484512E+01 -0.69635417034E+01 -0.82807347924E+01  0.10957240869E+02  0.51100000000E-03 0. -1.
        -11    1    3    3    0    0 -0.25027836470E+01 -0.48690904882E+01 -0.64444497042E+01  0.84559387662E+01  0.51100000000E-03 0.  1.
        -12    1    3    3    0    0 -0.20565582873E+02 -0.59632077814E+01 -0.18616815149E+02  0.28374087690E+02  0.00000000000E+00 0.  1.
</event>
<event>
 7    1  0.2318319E-009  0.4778727E+02  0.7816164E-02  0.1312668E+00
        -11   -1    0    0    0    0  0.00000000000E+00  0.00000000000E+00  0.45593999997E+02  0.45594000000E+02  0.51100000000E-03 0.  1.
         11   -1    0    0    0    0 -0.00000000000E+00 -0.00000000000E+00 -0.45593999997E+02  0.45594000000E+02  0.51100000000E-03 0. -1.
    9900012    2    1    2    0    0  0.39408422435E+02 -0.12240255094E+02  0.13445279881E+02  0.47787272417E+02  0.20000006259E+02 0.  0.
         12    1    1    2    0    0 -0.39408422435E+02  0.12240255094E+02 -0.13445279881E+02  0.43400727583E+02  0.00000000000E+00 0. -1.
         11    1    3    3    0    0  0.28617681342E+01 -0.40692539628E+01  0.33570462244E+01  0.60015251630E+01  0.51100000000E-03 0.  1.
        -11    1    3    3    0    0  0.83960487412E+01  0.46261005369E+01  0.31881714205E+01  0.10102419409E+02  0.51100000000E-03 0. -1.
         12    1    3    3    0    0  0.28150605560E+02 -0.12797101669E+02  0.69000622363E+01  0.31683327846E+02  0.00000000000E+00 0. -1.
</event>
<event>
 7    1  0.2318319E-009  0.4778728E+02  0.7816164E-02  0.1312668E+00
        -11   -1    0    0    0    0  0.00000000000E+00  0.00000000000E+00  0.45593999997E+02  0.45594000000E+02  0.51100000000E-03 0.  1.
         11   -1    0    0    0    0 -0.00000000000E+00 -0.00000000000E+00 -0.45593999997E+02  0.45594000000E+02  0.51100000000E-03 0. -1.
    9900012    2    1    2    0    0 -0.22118713894E+02  0.36441299647E+01  0.37163228219E+02  0.47787277435E+02  0.20000029137E+02 0.  0.
         12    1    1    2    0    0  0.22118713894E+02 -0.36441299647E+01 -0.37163228219E+02  0.43400722565E+02  0.00000000000E+00 0. -1.
         11    1    3    3    0    0 -0.25290357804E+01  0.66008838575E+01  0.15035610979E+02  0.16614369908E+02  0.51100000000E-03 0. -1.
        -11    1    3    3    0    0 -0.40688448936E+01  0.23734185850E+01  0.89979463216E+01  0.10156360215E+02  0.51100000000E-03 0.  1.
        -12    1    3    3    0    0 -0.15520833220E+02 -0.53301724778E+01  0.13129670918E+02  0.21016547312E+02  0.00000000000E+00 0.  1.
</event>
<event>
 7    1  0.2318319E-009  0.4778727E+02  0.7816164E-02  0.1312668E+00
        -11   -1    0    0    0    0  0.00000000000E+00  0.00000000000E+00  0.45593999997E+02  0.45594000000E+02  0.51100000000E-03 0.  1.
         11   -1    0    0    0    0 -0.00000000000E+00 -0.00000000000E+00 -0.45593999997E+02  0.45594000000E+02  0.51100000000E-03 0. -1.
    9900012    2    1    2    0    0  0.13991212523E+02  0.18166026214E+02  0.36849216013E+02  0.47787271238E+02  0.20000000883E+02 0.  0.
         12    1    1    2    0    0 -0.13991212523E+02 -0.18166026214E+02 -0.36849216013E+02  0.43400728762E+02  0.00000000000E+00 0. -1.
         11    1    3    3    0    0 -0.22942100488E+01  0.34380677276E+01  0.15941215559E+01  0.44300037521E+01  0.51100000000E-03 0. -1.
        -11    1    3    3    0    0  0.32667049166E+01  0.11282478013E+02  0.17382827816E+02  0.20979236742E+02  0.51100000000E-03 0.  1.
        -12    1    3    3    0    0  0.13018717655E+02  0.34454804727E+01  0.17872266641E+02  0.22378030744E+02  0.00000000000E+00 0.  1.
</event>
<event>
 7    1  0.2318319E-009  0.4778727E+02  0.7816164E-02  0.1312668E+00
        -11   -1    0    0    0    0  0.00000000000E+00  0.00000000000E+00  0.45593999997E+02  0.45594000000E+02  0.51100000000E-03 0.  1.
         11   -1    0    0    0    0 -0.00000000000E+00 -0.00000000000E+00 -0.45593999997E+02  0.45594000000E+02  0.51100000000E-03 0. -1.
    9900012    2    1    2    0    0  0.21568782617E+02  0.35414033400E+02  0.12816271635E+02  0.47787274616E+02  0.20000016285E+02 0.  0.
         12    1    1    2    0    0 -0.21568782617E+02 -0.35414033400E+02 -0.12816271635E+02  0.43400725384E+02  0.00000000000E+00 0. -1.
         11    1    3    3    0    0  0.22219847062E+01  0.40023059744E+01  0.29600223454E+01  0.54513669564E+01  0.51100000000E-03 0. -1.
        -11    1    3    3    0    0  0.18024841838E+01  0.34526774982E+01  0.84428209168E+01  0.92979114017E+01  0.51100000000E-03 0.  1.
         12    1    3    3    0    0  0.17544313727E+02  0.27959049927E+02  0.14134283730E+01  0.33037996258E+02  0.00000000000E+00 0. -1.
</event>
<event>
 7    1  0.2318319E-009  0.4778728E+02  0.7816164E-02  0.1312668E+00
        -11   -1    0    0    0    0  0.00000000000E+00  0.00000000000E+00  0.45593999997E+02  0.45594000000E+02  0.51100000000E-03 0.  1.
         11   -1    0    0    0    0 -0.00000000000E+00 -0.00000000000E+00 -0.45593999997E+02  0.45594000000E+02  0.51100000000E-03 0. -1.
    9900012    2    1    2    0    0 -0.72698561361E+01 -0.42530868816E+02  0.46794201641E+01  0.47787278997E+02  0.20000036259E+02 0.  0.
         12    1    1    2    0    0  0.72698561361E+01  0.42530868816E+02 -0.46794201641E+01  0.43400721003E+02  0.00000000000E+00 0. -1.
         11    1    3    3    0    0 -0.55733801771E+01 -0.93306969558E+01 -0.42419733452E+01  0.11666996632E+02  0.51100000000E-03 0. -1.
        -11    1    3    3    0    0 -0.60507615462E+01 -0.13267966092E+02  0.31746272928E+01  0.14924104604E+02  0.51100000000E-03 0.  1.
        -12    1    3    3    0    0  0.43542855872E+01 -0.19932205768E+02  0.57467662165E+01  0.21196177762E+02  0.00000000000E+00 0.  1.
</event>
<event>
 7    1  0.2318319E-009  0.4778728E+02  0.7816164E-02  0.1312668E+00
        -11   -1    0    0    0    0  0.00000000000E+00  0.00000000000E+00  0.45593999997E+02  0.45594000000E+02  0.51100000000E-03 0.  1.
         11   -1    0    0    0    0 -0.00000000000E+00 -0.00000000000E+00 -0.45593999997E+02  0.45594000000E+02  0.51100000000E-03 0. -1.
    9900012    2    1    2    0    0 -0.14802912368E+02 -0.23221269863E+02  0.33545030248E+02  0.47787278313E+02  0.20000033139E+02 0.  0.
         12    1    1    2    0    0  0.14802912368E+02  0.23221269863E+02 -0.33545030248E+02  0.43400721687E+02  0.00000000000E+00 0. -1.
         11    1    3    3    0    0 -0.87409183464E+01 -0.99025078647E+01  0.42067934986E+01  0.13862194175E+02  0.51100000000E-03 0. -1.
        -11    1    3    3    0    0 -0.66514195383E+01 -0.56863823140E+01  0.11021299671E+02  0.14072859425E+02  0.51100000000E-03 0.  1.
        -12    1    3    3    0    0  0.58942551689E+00 -0.76323796842E+01  0.18316937079E+02  0.19852224713E+02  0.00000000000E+00 0.  1.
</event>
<event>
 7    1  0.2318319E-009  0.4778727E+02  0.7816164E-02  0.1312668E+00
        -11   -1    0    0    0    0  0.00000000000E+00  0.00000000000E+00  0.45593999997E+02  0.45594000000E+02  0.51100000000E-03 0. -1.
         11   -1    0    0    0    0 -0.00000000000E+00 -0.00000000000E+00 -0.45593999997E+02  0.45594000000E+02  0.51100000000E-03 0.  1.
    9900012    2    1    2    0    0  0.22281315099E+02  0.54470593339E+00 -0.37240696221E+02  0.47787272331E+02  0.20000005868E+02 0.  0.
         12    1    1    2    0    0 -0.22281315099E+02 -0.54470593339E+00  0.37240696221E+02  0.43400727669E+02  0.00000000000E+00 0. -1.
         11    1    3    3    0    0  0.49654156456E+01 -0.41585515682E+01 -0.74527413316E+01  0.98738167542E+01  0.51100000000E-03 0. -1.
        -11    1    3    3    0    0  0.43045342717E+01 -0.32098093453E+01 -0.17621817247E+02  0.18421735387E+02  0.51100000000E-03 0.  1.
        -12    1    3    3    0    0  0.13011365182E+02  0.79130668469E+01 -0.12166137643E+02  0.19491720190E+02  0.00000000000E+00 0.  1.
</event>
<event>
 7    1  0.2318319E-009  0.4778727E+02  0.7816164E-02  0.1312668E+00
        -11   -1    0    0    0    0  0.00000000000E+00  0.00000000000E+00  0.45593999997E+02  0.45594000000E+02  0.51100000000E-03 0.  1.
         11   -1    0    0    0    0 -0.00000000000E+00 -0.00000000000E+00 -0.45593999997E+02  0.45594000000E+02  0.51100000000E-03 0. -1.
    9900012    2    1    2    0    0 -0.46147329892E+01 -0.81179713226E+01  0.42384264944E+02  0.47787272659E+02  0.20000007359E+02 0.  0.
         12    1    1    2    0    0  0.46147329892E+01  0.81179713226E+01 -0.42384264944E+02  0.43400727341E+02  0.00000000000E+00 0. -1.
         11    1    3    3    0    0 -0.30345817111E+01 -0.60955877186E+01  0.66587481979E+01  0.95238544518E+01  0.51100000000E-03 0. -1.
        -11    1    3    3    0    0  0.28896214169E+01 -0.62328906540E+01  0.12769646629E+02  0.14500438377E+02  0.51100000000E-03 0.  1.
        -12    1    3    3    0    0 -0.44697726950E+01  0.42105070500E+01  0.22955870117E+02  0.23762979829E+02  0.00000000000E+00 0.  1.
</event>
<event>
 7    1  0.2318319E-009  0.4778727E+02  0.7816164E-02  0.1312668E+00
        -11   -1    0    0    0    0  0.00000000000E+00  0.00000000000E+00  0.45593999997E+02  0.45594000000E+02  0.51100000000E-03 0. -1.
         11   -1    0    0    0    0 -0.00000000000E+00 -0.00000000000E+00 -0.45593999997E+02  0.45594000000E+02  0.51100000000E-03 0.  1.
    9900012    2    1    2    0    0  0.29018793149E+02 -0.20976298084E+02 -0.24526062277E+02  0.47787272265E+02  0.20000005563E+02 0.  0.
         12    1    1    2    0    0 -0.29018793149E+02  0.20976298084E+02  0.24526062277E+02  0.43400727735E+02  0.00000000000E+00 0. -1.
         11    1    3    3    0    0  0.18758547490E+01 -0.15245543170E+01  0.18957965894E+01  0.30719931436E+01  0.51100000000E-03 0. -1.
        -11    1    3    3    0    0  0.19407248768E+02 -0.12030961380E+02 -0.96034982917E+01  0.24771203366E+02  0.51100000000E-03 0.  1.
        -12    1    3    3    0    0  0.77356896320E+01 -0.74207823874E+01 -0.16818360574E+02  0.19944075755E+02  0.00000000000E+00 0.  1.
</event>
<event>
 7    1  0.2318319E-009  0.4778727E+02  0.7816164E-02  0.1312668E+00
        -11   -1    0    0    0    0  0.00000000000E+00  0.00000000000E+00  0.45593999997E+02  0.45594000000E+02  0.51100000000E-03 0.  1.
         11   -1    0    0    0    0 -0.00000000000E+00 -0.00000000000E+00 -0.45593999997E+02  0.45594000000E+02  0.51100000000E-03 0. -1.
    9900012    2    1    2    0    0  0.31198222618E+02 -0.22372288881E+02  0.20242897033E+02  0.47787270921E+02  0.19999999439E+02 0.  0.
         12    1    1    2    0    0 -0.31198222618E+02  0.22372288881E+02 -0.20242897033E+02  0.43400729079E+02  0.00000000000E+00 0. -1.
         11    1    3    3    0    0  0.19906081960E+01 -0.61495699741E+01  0.36771089259E+00  0.64741751148E+01  0.51100000000E-03 0. -1.
        -11    1    3    3    0    0  0.17073949574E+02 -0.16734693763E+02  0.11281517262E+02  0.26435626745E+02  0.51100000000E-03 0.  1.
         12    1    3    3    0    0  0.12133664848E+02  0.51197485618E+00  0.85936688777E+01  0.14877469061E+02  0.00000000000E+00 0. -1.
</event>
<event>
 7    1  0.2318319E-009  0.4778728E+02  0.7816164E-02  0.1312668E+00
        -11   -1    0    0    0    0  0.00000000000E+00  0.00000000000E+00  0.45593999997E+02  0.45594000000E+02  0.51100000000E-03 0. -1.
         11   -1    0    0    0    0 -0.00000000000E+00 -0.00000000000E+00 -0.45593999997E+02  0.45594000000E+02  0.51100000000E-03 0.  1.
    9900012    2    1    2    0    0 -0.50951229582E+01 -0.36238411864E+02 -0.23333239385E+02  0.47787276128E+02  0.20000023180E+02 0.  0.
         12    1    1    2    0    0  0.50951229582E+01  0.36238411864E+02  0.23333239385E+02  0.43400723872E+02  0.00000000000E+00 0. -1.
         11    1    3    3    0    0  0.37271017163E+01 -0.14210880980E+02 -0.74940332802E+01  0.16492451622E+02  0.51100000000E-03 0. -1.
        -11    1    3    3    0    0 -0.19959914566E+01 -0.90326991445E+01  0.58263403613E+00  0.92689318916E+01  0.51100000000E-03 0.  1.
        -12    1    3    3    0    0 -0.68262332179E+01 -0.12994831740E+02 -0.16421840141E+02  0.22025892615E+02  0.00000000000E+00 0.  1.
</event>
<event>
 7    1  0.2318319E-009  0.4778727E+02  0.7816164E-02  0.1312668E+00
        -11   -1    0    0    0    0  0.00000000000E+00  0.00000000000E+00  0.45593999997E+02  0.45594000000E+02  0.51100000000E-03 0. -1.
         11   -1    0    0    0    0 -0.00000000000E+00 -0.00000000000E+00 -0.45593999997E+02  0.45594000000E+02  0.51100000000E-03 0.  1.
    9900012    2    1    2    0    0  0.14548446626E+02 -0.16443764867E+02 -0.37437529587E+02  0.47787270469E+02  0.19999997378E+02 0.  0.
         12    1    1    2    0    0 -0.14548446626E+02  0.16443764867E+02  0.37437529587E+02  0.43400729531E+02  0.00000000000E+00 0. -1.
         11    1    3    3    0    0  0.43204449301E+01 -0.10761947255E+02 -0.78395728543E+01  0.13998023286E+02  0.51100000000E-03 0. -1.
        -11    1    3    3    0    0  0.60285602538E+01 -0.37777465298E+01 -0.48378651514E+01  0.86034787767E+01  0.51100000000E-03 0.  1.
         12    1    3    3    0    0  0.41994414418E+01 -0.19040710819E+01 -0.24760091581E+02  0.25185768406E+02  0.00000000000E+00 0. -1.
</event>
<event>
 7    1  0.2318319E-009  0.4778726E+02  0.7816164E-02  0.1312668E+00
        -11   -1    0    0    0    0  0.00000000000E+00  0.00000000000E+00  0.45593999997E+02  0.45594000000E+02  0.51100000000E-03 0.  1.
         11   -1    0    0    0    0 -0.00000000000E+00 -0.00000000000E+00 -0.45593999997E+02  0.45594000000E+02  0.51100000000E-03 0. -1.
    9900012    2    1    2    0    0  0.83095664078E+01 -0.36890481069E+02  0.21299481701E+02  0.47787257977E+02  0.19999940422E+02 0.  0.
         12    1    1    2    0    0 -0.83095664078E+01  0.36890481069E+02 -0.21299481701E+02  0.43400742023E+02  0.00000000000E+00 0. -1.
         11    1    3    3    0    0  0.78342764324E+01 -0.20777612890E+02  0.81637854759E+01  0.23658666027E+02  0.51100000000E-03 0. -1.
        -11    1    3    3    0    0 -0.21495889952E+01 -0.17221946513E+02  0.10776244536E+02  0.20428989724E+02  0.51100000000E-03 0.  1.
        -12    1    3    3    0    0  0.26248789706E+01  0.11090783346E+01  0.23594516884E+01  0.36996022263E+01  0.00000000000E+00 0.  1.
</event>
<event>
 7    1  0.2318319E-009  0.4778727E+02  0.7816164E-02  0.1312668E+00
        -11   -1    0    0    0    0  0.00000000000E+00  0.00000000000E+00  0.45593999997E+02  0.45594000000E+02  0.51100000000E-03 0.  1.
         11   -1    0    0    0    0 -0.00000000000E+00 -0.00000000000E+00 -0.45593999997E+02  0.45594000000E+02  0.51100000000E-03 0. -1.
    9900012    2    1    2    0    0 -0.39169459178E+02  0.42639873440E+00  0.18686767578E+02  0.47787266933E+02  0.19999981255E+02 0.  0.
         12    1    1    2    0    0  0.39169459178E+02 -0.42639873440E+00 -0.18686767578E+02  0.43400733067E+02  0.00000000000E+00 0. -1.
         11    1    3    3    0    0 -0.23041284923E+02  0.43507303251E+01  0.59121971155E+01  0.24182302211E+02  0.51100000000E-03 0. -1.
        -11    1    3    3    0    0 -0.16564089358E+02 -0.20591371460E+01  0.80999342032E+01  0.18553113927E+02  0.51100000000E-03 0.  1.
        -12    1    3    3    0    0  0.43591510200E+00 -0.18651944447E+01  0.46746362595E+01  0.50518507946E+01  0.00000000000E+00 0.  1.
</event>
<event>
 7    1  0.2318319E-009  0.4778727E+02  0.7816164E-02  0.1312668E+00
        -11   -1    0    0    0    0  0.00000000000E+00  0.00000000000E+00  0.45593999997E+02  0.45594000000E+02  0.51100000000E-03 0.  1.
         11   -1    0    0    0    0 -0.00000000000E+00 -0.00000000000E+00 -0.45593999997E+02  0.45594000000E+02  0.51100000000E-03 0. -1.
    9900012    2    1    2    0    0  0.21922620515E+02  0.25885820770E+02  0.27072981304E+02  0.47787270469E+02  0.19999997376E+02 0.  0.
         12    1    1    2    0    0 -0.21922620515E+02 -0.25885820770E+02 -0.27072981304E+02  0.43400729531E+02  0.00000000000E+00 0. -1.
         11    1    3    3    0    0  0.11475227459E+02  0.13219888184E+02  0.11664677888E+02  0.21035945411E+02  0.51100000000E-03 0. -1.
        -11    1    3    3    0    0  0.10466779561E+02  0.51261321125E+01  0.26821322975E+01  0.11959286715E+02  0.51100000000E-03 0.  1.
        -12    1    3    3    0    0 -0.19386505097E-01  0.75398004737E+01  0.12726171118E+02  0.14792038343E+02  0.00000000000E+00 0.  1.
</event>
<event>
 7    1  0.2318319E-009  0.4778725E+02  0.7816164E-02  0.1312668E+00
        -11   -1    0    0    0    0  0.00000000000E+00  0.00000000000E+00  0.45593999997E+02  0.45594000000E+02  0.51100000000E-03 0.  1.
         11   -1    0    0    0    0 -0.00000000000E+00 -0.00000000000E+00 -0.45593999997E+02  0.45594000000E+02  0.51100000000E-03 0. -1.
    9900012    2    1    2    0    0 -0.21171120529E+02 -0.31029738419E+02  0.21738537305E+02  0.47787250986E+02  0.19999908544E+02 0.  0.
         12    1    1    2    0    0  0.21171120529E+02  0.31029738419E+02 -0.21738537305E+02  0.43400749014E+02  0.00000000000E+00 0. -1.
         11    1    3    3    0    0  0.75010318895E+00 -0.59907382044E+01  0.65342332599E+01  0.88965051331E+01  0.51100000000E-03 0. -1.
        -11    1    3    3    0    0 -0.45013233534E+01 -0.13958561344E+02  0.32080495237E+01  0.15013158520E+02  0.51100000000E-03 0.  1.
        -12    1    3    3    0    0 -0.17419900365E+02 -0.11080438870E+02  0.11996254522E+02  0.23877587333E+02  0.00000000000E+00 0.  1.
</event>
<event>
 7    1  0.2318319E-009  0.4778726E+02  0.7816164E-02  0.1312668E+00
        -11   -1    0    0    0    0  0.00000000000E+00  0.00000000000E+00  0.45593999997E+02  0.45594000000E+02  0.51100000000E-03 0. -1.
         11   -1    0    0    0    0 -0.00000000000E+00 -0.00000000000E+00 -0.45593999997E+02  0.45594000000E+02  0.51100000000E-03 0.  1.
    9900012    2    1    2    0    0 -0.18004068407E+02  0.15162113266E+02 -0.36463516156E+02  0.47787260740E+02  0.19999953016E+02 0.  0.
         12    1    1    2    0    0  0.18004068407E+02 -0.15162113266E+02  0.36463516156E+02  0.43400739260E+02  0.00000000000E+00 0. -1.
         11    1    3    3    0    0 -0.39537191221E+01  0.10374017064E+02 -0.26575404722E+02  0.28801115626E+02  0.51100000000E-03 0. -1.
        -11    1    3    3    0    0 -0.86008639534E+01  0.30659605136E+01 -0.96218796196E+01  0.13264823493E+02  0.51100000000E-03 0.  1.
         12    1    3    3    0    0 -0.54494853316E+01  0.17221356881E+01 -0.26623181471E+00  0.57213216206E+01  0.00000000000E+00 0. -1.
</event>
<event>
 7    1  0.2318319E-009  0.4778727E+02  0.7816164E-02  0.1312668E+00
        -11   -1    0    0    0    0  0.00000000000E+00  0.00000000000E+00  0.45593999997E+02  0.45594000000E+02  0.51100000000E-03 0.  1.
         11   -1    0    0    0    0 -0.00000000000E+00 -0.00000000000E+00 -0.45593999997E+02  0.45594000000E+02  0.51100000000E-03 0. -1.
    9900012    2    1    2    0    0  0.35009488868E+02 -0.12181748445E+02  0.22573522138E+02  0.47787271807E+02  0.20000003475E+02 0.  0.
         12    1    1    2    0    0 -0.35009488868E+02  0.12181748445E+02 -0.22573522138E+02  0.43400728193E+02  0.00000000000E+00 0. -1.
         11    1    3    3    0    0  0.23287270474E+02 -0.67516645682E+01  0.86063875359E+01  0.25728424888E+02  0.51100000000E-03 0. -1.
        -11    1    3    3    0    0  0.13797866603E+02 -0.51340387976E+01  0.13348983385E+02  0.19872967439E+02  0.51100000000E-03 0.  1.
         12    1    3    3    0    0 -0.20756482077E+01 -0.29604507931E+00  0.61815121688E+00  0.21858794793E+01  0.00000000000E+00 0. -1.
</event>
<event>
 7    1  0.2318319E-009  0.4778728E+02  0.7816164E-02  0.1312668E+00
        -11   -1    0    0    0    0  0.00000000000E+00  0.00000000000E+00  0.45593999997E+02  0.45594000000E+02  0.51100000000E-03 0. -1.
         11   -1    0    0    0    0 -0.00000000000E+00 -0.00000000000E+00 -0.45593999997E+02  0.45594000000E+02  0.51100000000E-03 0.  1.
    9900012    2    1    2    0    0 -0.64814597010E+01  0.18475666993E+02 -0.38733232674E+02  0.47787275305E+02  0.20000019424E+02 0.  0.
         12    1    1    2    0    0  0.64814597010E+01 -0.18475666993E+02  0.38733232674E+02  0.43400724695E+02  0.00000000000E+00 0. -1.
         11    1    3    3    0    0  0.24593595231E+01  0.65429005694E+01 -0.45790398857E+01  0.83561715911E+01  0.51100000000E-03 0. -1.
        -11    1    3    3    0    0 -0.40245659210E+01  0.13775195901E+02 -0.26718266352E+02  0.30328516450E+02  0.51100000000E-03 0.  1.
        -12    1    3    3    0    0 -0.49162533031E+01 -0.18424294770E+01 -0.74359264368E+01  0.91025872636E+01  0.00000000000E+00 0.  1.
</event>
<event>
 7    1  0.2318319E-009  0.4778727E+02  0.7816164E-02  0.1312668E+00
        -11   -1    0    0    0    0  0.00000000000E+00  0.00000000000E+00  0.45593999997E+02  0.45594000000E+02  0.51100000000E-03 0.  1.
         11   -1    0    0    0    0 -0.00000000000E+00 -0.00000000000E+00 -0.45593999997E+02  0.45594000000E+02  0.51100000000E-03 0. -1.
    9900012    2    1    2    0    0  0.53775478553E+01  0.31401978897E+02  0.29472375474E+02  0.47787271715E+02  0.20000003056E+02 0.  0.
         12    1    1    2    0    0 -0.53775478553E+01 -0.31401978897E+02 -0.29472375474E+02  0.43400728285E+02  0.00000000000E+00 0. -1.
         11    1    3    3    0    0  0.46016698387E+01  0.18899705749E+01  0.33026257505E+01  0.59711549291E+01  0.51100000000E-03 0. -1.
        -11    1    3    3    0    0  0.48391583208E+01  0.21566952078E+02  0.12220103047E+02  0.25256321861E+02  0.51100000000E-03 0.  1.
         12    1    3    3    0    0 -0.40632803042E+01  0.79450562448E+01  0.13949646676E+02  0.16559794925E+02  0.00000000000E+00 0. -1.
</event>
<event>
 7    1  0.2318319E-009  0.4778727E+02  0.7816164E-02  0.1312668E+00
        -11   -1    0    0    0    0  0.00000000000E+00  0.00000000000E+00  0.45593999997E+02  0.45594000000E+02  0.51100000000E-03 0.  1.
         11   -1    0    0    0    0 -0.00000000000E+00 -0.00000000000E+00 -0.45593999997E+02  0.45594000000E+02  0.51100000000E-03 0. -1.
    9900012    2    1    2    0    0  0.12085322315E+02 -0.41189822850E+02  0.64005182683E+01  0.47787272403E+02  0.20000006194E+02 0.  0.
         12    1    1    2    0    0 -0.12085322315E+02  0.41189822850E+02 -0.64005182683E+01  0.43400727597E+02  0.00000000000E+00 0. -1.
         11    1    3    3    0    0  0.10738447664E+01 -0.18217473837E+02  0.57506278978E+01  0.19133719374E+02  0.51100000000E-03 0. -1.
        -11    1    3    3    0    0  0.57559511049E+01 -0.22068882852E+02  0.26448168876E+01  0.22960000437E+02  0.51100000000E-03 0.  1.
         12    1    3    3    0    0  0.52555264438E+01 -0.90346616041E+00 -0.19949265171E+01  0.56935525916E+01  0.00000000000E+00 0. -1.
</event>
<event>
 7    1  0.2318319E-009  0.4778727E+02  0.7816164E-02  0.1312668E+00
        -11   -1    0    0    0    0  0.00000000000E+00  0.00000000000E+00  0.45593999997E+02  0.45594000000E+02  0.51100000000E-03 0.  1.
         11   -1    0    0    0    0 -0.00000000000E+00 -0.00000000000E+00 -0.45593999997E+02  0.45594000000E+02  0.51100000000E-03 0. -1.
    9900012    2    1    2    0    0  0.24465237843E+02 -0.28346958299E+02  0.21943683741E+02  0.47787272314E+02  0.20000005790E+02 0.  0.
         12    1    1    2    0    0 -0.24465237843E+02  0.28346958299E+02 -0.21943683741E+02  0.43400727686E+02  0.00000000000E+00 0. -1.
         11    1    3    3    0    0  0.82924118883E+01 -0.15835503053E+02  0.47689277662E+01  0.18500538483E+02  0.51100000000E-03 0.  1.
        -11    1    3    3    0    0 -0.19819118874E+01 -0.12953811136E+01  0.14166012700E+01  0.27591205805E+01  0.51100000000E-03 0. -1.
        -12    1    3    3    0    0  0.18154737843E+02 -0.11216074132E+02  0.15758154704E+02  0.26527613250E+02  0.00000000000E+00 0.  1.
</event>
<event>
 7    1  0.2318319E-009  0.4778727E+02  0.7816164E-02  0.1312668E+00
        -11   -1    0    0    0    0  0.00000000000E+00  0.00000000000E+00  0.45593999997E+02  0.45594000000E+02  0.51100000000E-03 0.  1.
         11   -1    0    0    0    0 -0.00000000000E+00 -0.00000000000E+00 -0.45593999997E+02  0.45594000000E+02  0.51100000000E-03 0. -1.
    9900012    2    1    2    0    0 -0.24565605616E+02  0.34197657027E+02 -0.10520208929E+02  0.47787268194E+02  0.19999987002E+02 0.  0.
         12    1    1    2    0    0  0.24565605616E+02 -0.34197657027E+02  0.10520208929E+02  0.43400731806E+02  0.00000000000E+00 0. -1.
         11    1    3    3    0    0  0.10998430299E+01  0.22662139996E+01 -0.61845781780E+00  0.25938139710E+01  0.51100000000E-03 0. -1.
        -11    1    3    3    0    0  0.22714183239E+01  0.31737665223E+01 -0.30963565220E-01  0.39029596647E+01  0.51100000000E-03 0.  1.
        -12    1    3    3    0    0 -0.27936866970E+02  0.28757676505E+02 -0.98707875459E+01  0.41290494558E+02  0.00000000000E+00 0.  1.
</event>
<event>
 7    1  0.2318319E-009  0.4778727E+02  0.7816164E-02  0.1312668E+00
        -11   -1    0    0    0    0  0.00000000000E+00  0.00000000000E+00  0.45593999997E+02  0.45594000000E+02  0.51100000000E-03 0.  1.
         11   -1    0    0    0    0 -0.00000000000E+00 -0.00000000000E+00 -0.45593999997E+02  0.45594000000E+02  0.51100000000E-03 0. -1.
    9900012    2    1    2    0    0  0.70893517885E+01  0.42695883048E+02  0.32289077104E+01  0.47787272091E+02  0.20000004772E+02 0.  0.
         12    1    1    2    0    0 -0.70893517885E+01 -0.42695883048E+02 -0.32289077104E+01  0.43400727909E+02  0.00000000000E+00 0. -1.
         11    1    3    3    0    0  0.71218023373E+01  0.29657172997E+02  0.25806723739E+00  0.30501386487E+02  0.51100000000E-03 0. -1.
        -11    1    3    3    0    0  0.32617736208E+01  0.41398049009E+01  0.53428097821E+01  0.75048496587E+01  0.51100000000E-03 0.  1.
         12    1    3    3    0    0 -0.32942241696E+01  0.88989051504E+01 -0.23719693091E+01  0.97810359450E+01  0.00000000000E+00 0. -1.
</event>
<event>
 7    1  0.2318319E-009  0.4778726E+02  0.7816164E-02  0.1312668E+00
        -11   -1    0    0    0    0  0.00000000000E+00  0.00000000000E+00  0.45593999997E+02  0.45594000000E+02  0.51100000000E-03 0.  1.
         11   -1    0    0    0    0 -0.00000000000E+00 -0.00000000000E+00 -0.45593999997E+02  0.45594000000E+02  0.51100000000E-03 0. -1.
    9900012    2    1    2    0    0  0.45282788648E+01  0.15122608703E+02  0.40428026908E+02  0.47787263104E+02  0.19999963796E+02 0.  0.
         12    1    1    2    0    0 -0.45282788648E+01 -0.15122608703E+02 -0.40428026908E+02  0.43400736896E+02  0.00000000000E+00 0. -1.
         11    1    3    3    0    0 -0.45671626941E+00  0.40857275062E+01  0.13590225536E+01  0.43299770864E+01  0.51100000000E-03 0. -1.
        -11    1    3    3    0    0  0.13710026515E+01  0.41430919127E+01  0.84027834163E+00  0.44442014828E+01  0.51100000000E-03 0.  1.
        -12    1    3    3    0    0  0.36139924828E+01  0.68937892844E+01  0.38228726013E+02  0.39013084535E+02  0.00000000000E+00 0.  1.
</event>
<event>
 7    1  0.2318319E-009  0.4778727E+02  0.7816164E-02  0.1312668E+00
        -11   -1    0    0    0    0  0.00000000000E+00  0.00000000000E+00  0.45593999997E+02  0.45594000000E+02  0.51100000000E-03 0.  1.
         11   -1    0    0    0    0 -0.00000000000E+00 -0.00000000000E+00 -0.45593999997E+02  0.45594000000E+02  0.51100000000E-03 0. -1.
    9900012    2    1    2    0    0  0.32765744915E+01  0.18516355735E+02  0.39115625777E+02  0.47787267863E+02  0.19999985496E+02 0.  0.
         12    1    1    2    0    0 -0.32765744915E+01 -0.18516355735E+02 -0.39115625777E+02  0.43400732137E+02  0.00000000000E+00 0. -1.
         11    1    3    3    0    0 -0.45286784267E+01 -0.11660103938E+01  0.47396234495E+01  0.66582684863E+01  0.51100000000E-03 0. -1.
        -11    1    3    3    0    0 -0.45605815591E+00 -0.49553202504E+00  0.18716587278E+01  0.19891323948E+01  0.51100000000E-03 0.  1.
        -12    1    3    3    0    0  0.82613110741E+01  0.20177898154E+02  0.32504343599E+02  0.39139866982E+02  0.00000000000E+00 0.  1.
</event>
<event>
 7    1  0.2318319E-009  0.4778727E+02  0.7816164E-02  0.1312668E+00
        -11   -1    0    0    0    0  0.00000000000E+00  0.00000000000E+00  0.45593999997E+02  0.45594000000E+02  0.51100000000E-03 0. -1.
         11   -1    0    0    0    0 -0.00000000000E+00 -0.00000000000E+00 -0.45593999997E+02  0.45594000000E+02  0.51100000000E-03 0.  1.
    9900012    2    1    2    0    0  0.17004279394E+01  0.36464670079E+02 -0.23474661631E+02  0.47787270078E+02  0.19999995591E+02 0.  0.
         12    1    1    2    0    0 -0.17004279394E+01 -0.36464670079E+02  0.23474661631E+02  0.43400729922E+02  0.00000000000E+00 0. -1.
         11    1    3    3    0    0  0.50379271980E+01  0.18206620839E+02 -0.18504699077E+02  0.26444009549E+02  0.51100000000E-03 0. -1.
        -11    1    3    3    0    0 -0.21742243552E+01  0.86008419354E+01 -0.71273788680E+01  0.11379862184E+02  0.51100000000E-03 0.  1.
        -12    1    3    3    0    0 -0.11632749033E+01  0.96572073039E+01  0.21574163142E+01  0.99633983441E+01  0.00000000000E+00 0.  1.
</event>
<event>
 7    1  0.2318319E-009  0.4778726E+02  0.7816164E-02  0.1312668E+00
        -11   -1    0    0    0    0  0.00000000000E+00  0.00000000000E+00  0.45593999997E+02  0.45594000000E+02  0.51100000000E-03 0.  1.
         11   -1    0    0    0    0 -0.00000000000E+00 -0.00000000000E+00 -0.45593999997E+02  0.45594000000E+02  0.51100000000E-03 0. -1.
    9900012    2    1    2    0    0 -0.20966446423E+02  0.14636859629E+02  0.35068429448E+02  0.47787259461E+02  0.19999947185E+02 0.  0.
         12    1    1    2    0    0  0.20966446423E+02 -0.14636859629E+02 -0.35068429448E+02  0.43400740539E+02  0.00000000000E+00 0. -1.
         11    1    3    3    0    0 -0.13401079215E+02  0.12592616036E+01  0.11523163704E+02  0.17718859047E+02  0.51100000000E-03 0. -1.
        -11    1    3    3    0    0 -0.59232837575E+01  0.19439974492E+01  0.13045344401E+02  0.14458403348E+02  0.51100000000E-03 0.  1.
        -12    1    3    3    0    0 -0.16420834506E+01  0.11433600576E+02  0.10499921343E+02  0.15609997066E+02  0.00000000000E+00 0.  1.
</event>
<event>
 7    1  0.2318319E-009  0.4778725E+02  0.7816164E-02  0.1312668E+00
        -11   -1    0    0    0    0  0.00000000000E+00  0.00000000000E+00  0.45593999997E+02  0.45594000000E+02  0.51100000000E-03 0. -1.
         11   -1    0    0    0    0 -0.00000000000E+00 -0.00000000000E+00 -0.45593999997E+02  0.45594000000E+02  0.51100000000E-03 0.  1.
    9900012    2    1    2    0    0  0.39467000925E+02 -0.18037462885E+02 -0.79421747374E+00  0.47787251035E+02  0.19999908768E+02 0.  0.
         12    1    1    2    0    0 -0.39467000925E+02  0.18037462885E+02  0.79421747374E+00  0.43400748965E+02  0.00000000000E+00 0. -1.
         11    1    3    3    0    0  0.18749743316E+02 -0.15178168677E+02  0.40302906016E+01  0.24457573907E+02  0.51100000000E-03 0. -1.
        -11    1    3    3    0    0  0.11150419799E+02 -0.13801480214E+01  0.20966731385E+01  0.11429466688E+02  0.51100000000E-03 0.  1.
        -12    1    3    3    0    0  0.95668378095E+01 -0.14791461861E+01 -0.69211812138E+01  0.11900210440E+02  0.00000000000E+00 0.  1.
</event>
<event>
 7    1  0.2318319E-009  0.4778727E+02  0.7816164E-02  0.1312668E+00
        -11   -1    0    0    0    0  0.00000000000E+00  0.00000000000E+00  0.45593999997E+02  0.45594000000E+02  0.51100000000E-03 0.  1.
         11   -1    0    0    0    0 -0.00000000000E+00 -0.00000000000E+00 -0.45593999997E+02  0.45594000000E+02  0.51100000000E-03 0. -1.
    9900012    2    1    2    0    0 -0.10584746427E+02 -0.42124970045E+01  0.41878891609E+02  0.47787267859E+02  0.19999985476E+02 0.  0.
         12    1    1    2    0    0  0.10584746427E+02  0.42124970045E+01 -0.41878891609E+02  0.43400732141E+02  0.00000000000E+00 0. -1.
         11    1    3    3    0    0 -0.35877032288E+01  0.38466071202E+01  0.24132703885E+01  0.57872165178E+01  0.51100000000E-03 0. -1.
        -11    1    3    3    0    0 -0.11998481952E+01  0.22226847860E+01  0.58363396943E+01  0.63594673235E+01  0.51100000000E-03 0.  1.
         12    1    3    3    0    0 -0.57971950035E+01 -0.10281788911E+02  0.33629281527E+02  0.35640584018E+02  0.00000000000E+00 0. -1.
</event>
<event>
 7    1  0.2318319E-009  0.4778727E+02  0.7816164E-02  0.1312668E+00
        -11   -1    0    0    0    0  0.00000000000E+00  0.00000000000E+00  0.45593999997E+02  0.45594000000E+02  0.51100000000E-03 0. -1.
         11   -1    0    0    0    0 -0.00000000000E+00 -0.00000000000E+00 -0.45593999997E+02  0.45594000000E+02  0.51100000000E-03 0.  1.
    9900012    2    1    2    0    0  0.17114174975E+02  0.31141627111E+02 -0.24918409136E+02  0.47787273761E+02  0.20000012385E+02 0.  0.
         12    1    1    2    0    0 -0.17114174975E+02 -0.31141627111E+02  0.24918409136E+02  0.43400726239E+02  0.00000000000E+00 0. -1.
         11    1    3    3    0    0 -0.86146050296E+00  0.82839095502E+00 -0.79335811186E+00  0.14344905463E+01  0.51100000000E-03 0. -1.
        -11    1    3    3    0    0  0.19009235312E+02  0.32218948979E+02 -0.22934854416E+02  0.43879599448E+02  0.51100000000E-03 0.  1.
         12    1    3    3    0    0 -0.10335998336E+01 -0.19057128221E+01 -0.11901966079E+01  0.24731837662E+01  0.00000000000E+00 0. -1.
</event>
<event>
 7    1  0.2318319E-009  0.4778727E+02  0.7816164E-02  0.1312668E+00
        -11   -1    0    0    0    0  0.00000000000E+00  0.00000000000E+00  0.45593999997E+02  0.45594000000E+02  0.51100000000E-03 0. -1.
         11   -1    0    0    0    0 -0.00000000000E+00 -0.00000000000E+00 -0.45593999997E+02  0.45594000000E+02  0.51100000000E-03 0.  1.
    9900012    2    1    2    0    0  0.20879446584E+02  0.73763484771E+01 -0.37326421100E+02  0.47787268224E+02  0.19999987141E+02 0.  0.
         12    1    1    2    0    0 -0.20879446584E+02 -0.73763484771E+01  0.37326421100E+02  0.43400731776E+02  0.00000000000E+00 0. -1.
         11    1    3    3    0    0  0.76966234294E+01  0.16010709515E+01 -0.12256790751E+02  0.14561262314E+02  0.51100000000E-03 0. -1.
        -11    1    3    3    0    0  0.14273234348E+02  0.15995518860E+01 -0.25090165400E+02  0.28910209011E+02  0.51100000000E-03 0.  1.
         12    1    3    3    0    0 -0.10904111933E+01  0.41757256397E+01  0.20535050499E-01  0.43157968993E+01  0.00000000000E+00 0. -1.
</event>
<event>
 7    1  0.2318319E-009  0.4778727E+02  0.7816164E-02  0.1312668E+00
        -11   -1    0    0    0    0  0.00000000000E+00  0.00000000000E+00  0.45593999997E+02  0.45594000000E+02  0.51100000000E-03 0.  1.
         11   -1    0    0    0    0 -0.00000000000E+00 -0.00000000000E+00 -0.45593999997E+02  0.45594000000E+02  0.51100000000E-03 0. -1.
    9900012    2    1    2    0    0 -0.43025151274E+02  0.59801103284E+00  0.56658459467E+01  0.47787273397E+02  0.20000010728E+02 0.  0.
         12    1    1    2    0    0  0.43025151274E+02 -0.59801103284E+00 -0.56658459467E+01  0.43400726603E+02  0.00000000000E+00 0. -1.
         11    1    3    3    0    0  0.13665039750E+00 -0.21159248509E+01 -0.80521275171E+00  0.22680782929E+01  0.51100000000E-03 0. -1.
        -11    1    3    3    0    0 -0.81684462797E+01  0.53250396854E+01  0.32624226254E+01  0.10282167278E+02  0.51100000000E-03 0.  1.
         12    1    3    3    0    0 -0.34993355392E+02 -0.26111038016E+01  0.32086360730E+01  0.35237027827E+02  0.00000000000E+00 0. -1.
</event>
