<event>
 7    1  0.2835316E-011  0.5052886E+02  0.7816164E-02  0.1300439E+00
        -11   -1    0    0    0    0  0.00000000000E+00  0.00000000000E+00  0.45593999997E+02  0.45594000000E+02  0.51100000000E-03 0.  1.
         11   -1    0    0    0    0 -0.00000000000E+00 -0.00000000000E+00 -0.45593999997E+02  0.45594000000E+02  0.51100000000E-03 0. -1.
    9900012    2    1    2    0    0  0.27221160338E+02  0.90549090799E+01 -0.28812893226E+02  0.50528858781E+02  0.29999996751E+02 0.  0.
        -12    1    1    2    0    0 -0.27221160338E+02 -0.90549090799E+01  0.28812893226E+02  0.40659141219E+02  0.00000000000E+00 0.  1.
         11    1    3    3    0    0  0.40978218369E+01  0.35267162582E+01  0.16811507011E+01  0.56618141363E+01  0.51100000000E-03 0. -1.
        -11    1    3    3    0    0  0.39783748888E+01  0.49907770008E+00  0.36357181510E+01  0.54124848305E+01  0.51100000000E-03 0.  1.
         12    1    3    3    0    0  0.19144963613E+02  0.50291151217E+01 -0.34129762078E+02  0.39454559814E+02  0.00000000000E+00 0. -1.
</event>
<event>
 7    1  0.2835316E-011  0.5052886E+02  0.7816164E-02  0.1300439E+00
        -11   -1    0    0    0    0  0.00000000000E+00  0.00000000000E+00  0.45593999997E+02  0.45594000000E+02  0.51100000000E-03 0.  1.
         11   -1    0    0    0    0 -0.00000000000E+00 -0.00000000000E+00 -0.45593999997E+02  0.45594000000E+02  0.51100000000E-03 0. -1.
    9900012    2    1    2    0    0  0.38970105904E+02  0.63936019688E+01 -0.96756661218E+01  0.50528858159E+02  0.29999994861E+02 0.  0.
        -12    1    1    2    0    0 -0.38970105904E+02 -0.63936019688E+01  0.96756661218E+01  0.40659141841E+02  0.00000000000E+00 0.  1.
         11    1    3    3    0    0  0.19173467226E+02  0.15117114430E+02 -0.11828573150E+01  0.24444797930E+02  0.51100000000E-03 0. -1.
        -11    1    3    3    0    0  0.40620011071E+00 -0.44178599604E+00 -0.46046403799E+01  0.46435855420E+01  0.51100000000E-03 0.  1.
        -12    1    3    3    0    0  0.19390438567E+02 -0.82817264654E+01 -0.38881684269E+01  0.21440474687E+02  0.00000000000E+00 0.  1.
</event>
<event>
 7    1  0.2835316E-011  0.5052886E+02  0.7816164E-02  0.1300439E+00
        -11   -1    0    0    0    0  0.00000000000E+00  0.00000000000E+00  0.45593999997E+02  0.45594000000E+02  0.51100000000E-03 0. -1.
         11   -1    0    0    0    0 -0.00000000000E+00 -0.00000000000E+00 -0.45593999997E+02  0.45594000000E+02  0.51100000000E-03 0.  1.
    9900012    2    1    2    0    0 -0.34093624504E+02  0.26468415216E+01 -0.21995099394E+02  0.50528863275E+02  0.30000010410E+02 0.  0.
        -12    1    1    2    0    0  0.34093624504E+02 -0.26468415216E+01  0.21995099394E+02  0.40659136725E+02  0.00000000000E+00 0.  1.
         11    1    3    3    0    0  0.30852669724E+00 -0.18710632828E+01  0.28505178162E+01  0.34236703423E+01  0.51100000000E-03 0. -1.
        -11    1    3    3    0    0 -0.38659471602E+01  0.79912564511E+01 -0.85233126105E+01  0.12306607381E+02  0.51100000000E-03 0.  1.
        -12    1    3    3    0    0 -0.30536204042E+02 -0.34733516467E+01 -0.16322304600E+02  0.34798585551E+02  0.00000000000E+00 0.  1.
</event>
<event>
 7    1  0.2835316E-011  0.5052886E+02  0.7816164E-02  0.1300439E+00
        -11   -1    0    0    0    0  0.00000000000E+00  0.00000000000E+00  0.45593999997E+02  0.45594000000E+02  0.51100000000E-03 0.  1.
         11   -1    0    0    0    0 -0.00000000000E+00 -0.00000000000E+00 -0.45593999997E+02  0.45594000000E+02  0.51100000000E-03 0. -1.
    9900012    2    1    2    0    0 -0.74233881483E+01 -0.17286789607E+02 -0.36044778259E+02  0.50528858024E+02  0.29999994449E+02 0.  0.
        -12    1    1    2    0    0  0.74233881483E+01  0.17286789607E+02  0.36044778259E+02  0.40659141976E+02  0.00000000000E+00 0.  1.
         11    1    3    3    0    0 -0.68412013828E+01  0.45564804818E+01 -0.17774737225E+02  0.19583279460E+02  0.51100000000E-03 0. -1.
        -11    1    3    3    0    0 -0.47263024819E+01 -0.79662356872E+01 -0.26277571859E+01  0.96282892698E+01  0.51100000000E-03 0.  1.
         12    1    3    3    0    0  0.41441157164E+01 -0.13877034401E+02 -0.15642283848E+02  0.21317289294E+02  0.00000000000E+00 0. -1.
</event>
<event>
 7    1  0.2835316E-011  0.5052886E+02  0.7816164E-02  0.1300439E+00
        -11   -1    0    0    0    0  0.00000000000E+00  0.00000000000E+00  0.45593999997E+02  0.45594000000E+02  0.51100000000E-03 0. -1.
         11   -1    0    0    0    0 -0.00000000000E+00 -0.00000000000E+00 -0.45593999997E+02  0.45594000000E+02  0.51100000000E-03 0.  1.
    9900012    2    1    2    0    0 -0.28766036189E+02 -0.23491467306E+02 -0.16547858031E+02  0.50528862286E+02  0.30000007406E+02 0.  0.
        -12    1    1    2    0    0  0.28766036189E+02  0.23491467306E+02  0.16547858031E+02  0.40659137714E+02  0.00000000000E+00 0.  1.
         11    1    3    3    0    0 -0.98047703771E+01 -0.84917594710E+01 -0.12179728980E+02  0.17792956454E+02  0.51100000000E-03 0. -1.
        -11    1    3    3    0    0 -0.13515798155E+01  0.26179056735E+01 -0.70903821505E+01  0.76781324171E+01  0.51100000000E-03 0.  1.
        -12    1    3    3    0    0 -0.17609685996E+02 -0.17617613508E+02  0.27222530997E+01  0.25057773416E+02  0.00000000000E+00 0.  1.
</event>
<event>
 7    1  0.2835316E-011  0.5052886E+02  0.7816164E-02  0.1300439E+00
        -11   -1    0    0    0    0  0.00000000000E+00  0.00000000000E+00  0.45593999997E+02  0.45594000000E+02  0.51100000000E-03 0.  1.
         11   -1    0    0    0    0 -0.00000000000E+00 -0.00000000000E+00 -0.45593999997E+02  0.45594000000E+02  0.51100000000E-03 0. -1.
    9900012    2    1    2    0    0 -0.19053049486E+01  0.29110404459E+02 -0.28321720927E+02  0.50528859441E+02  0.29999998757E+02 0.  0.
        -12    1    1    2    0    0  0.19053049486E+01 -0.29110404459E+02  0.28321720927E+02  0.40659140559E+02  0.00000000000E+00 0.  1.
         11    1    3    3    0    0 -0.52345572834E+01 -0.20667577049E+01 -0.29516595544E+01  0.63548699239E+01  0.51100000000E-03 0. -1.
        -11    1    3    3    0    0  0.78293701900E+01  0.96676279150E+01 -0.16043182213E+02  0.20301373423E+02  0.51100000000E-03 0.  1.
         12    1    3    3    0    0 -0.45001178551E+01  0.21509534249E+02 -0.93268791597E+01  0.23872616094E+02  0.00000000000E+00 0. -1.
</event>
<event>
 7    1  0.2835316E-011  0.5052887E+02  0.7816164E-02  0.1300439E+00
        -11   -1    0    0    0    0  0.00000000000E+00  0.00000000000E+00  0.45593999997E+02  0.45594000000E+02  0.51100000000E-03 0.  1.
         11   -1    0    0    0    0 -0.00000000000E+00 -0.00000000000E+00 -0.45593999997E+02  0.45594000000E+02  0.51100000000E-03 0. -1.
    9900012    2    1    2    0    0  0.36595002408E+02 -0.17602908923E+02  0.20268979175E+01  0.50528869181E+02  0.30000028363E+02 0.  0.
        -12    1    1    2    0    0 -0.36595002408E+02  0.17602908923E+02 -0.20268979175E+01  0.40659130819E+02  0.00000000000E+00 0.  1.
         11    1    3    3    0    0  0.17600364282E+02 -0.12126352248E+01  0.36855504259E+01  0.18022946187E+02  0.51100000000E-03 0. -1.
        -11    1    3    3    0    0  0.16681043166E+02 -0.35595770701E+01  0.51238616135E+01  0.17809597079E+02  0.51100000000E-03 0.  1.
         12    1    3    3    0    0  0.23135949598E+01 -0.12830696628E+02 -0.67825141219E+01  0.14696325915E+02  0.00000000000E+00 0. -1.
</event>
<event>
 7    1  0.2835316E-011  0.5052886E+02  0.7816164E-02  0.1300439E+00
        -11   -1    0    0    0    0  0.00000000000E+00  0.00000000000E+00  0.45593999997E+02  0.45594000000E+02  0.51100000000E-03 0.  1.
         11   -1    0    0    0    0 -0.00000000000E+00 -0.00000000000E+00 -0.45593999997E+02  0.45594000000E+02  0.51100000000E-03 0. -1.
    9900012    2    1    2    0    0  0.26424228664E+02  0.21425713800E+02 -0.22268010724E+02  0.50528863586E+02  0.30000011355E+02 0.  0.
        -12    1    1    2    0    0 -0.26424228664E+02 -0.21425713800E+02  0.22268010724E+02  0.40659136414E+02  0.00000000000E+00 0.  1.
         11    1    3    3    0    0  0.46558291204E+01  0.50202163611E+01 -0.10970071524E+02  0.12931426318E+02  0.51100000000E-03 0. -1.
        -11    1    3    3    0    0 -0.21917358198E+01  0.35635806758E+00 -0.83134021580E+01  0.86048447213E+01  0.51100000000E-03 0.  1.
        -12    1    3    3    0    0  0.23960135363E+02  0.16049139371E+02 -0.29845370423E+01  0.28992592546E+02  0.00000000000E+00 0.  1.
</event>
<event>
 7    1  0.2835316E-011  0.5052886E+02  0.7816164E-02  0.1300439E+00
        -11   -1    0    0    0    0  0.00000000000E+00  0.00000000000E+00  0.45593999997E+02  0.45594000000E+02  0.51100000000E-03 0.  1.
         11   -1    0    0    0    0 -0.00000000000E+00 -0.00000000000E+00 -0.45593999997E+02  0.45594000000E+02  0.51100000000E-03 0. -1.
    9900012    2    1    2    0    0  0.31295779508E+01  0.40236427523E+02 -0.49397937710E+01  0.50528856865E+02  0.29999990928E+02 0.  0.
        -12    1    1    2    0    0 -0.31295779508E+01 -0.40236427523E+02  0.49397937710E+01  0.40659143135E+02  0.00000000000E+00 0.  1.
         11    1    3    3    0    0  0.12770617723E+01  0.30584055433E+01  0.65084798456E+01  0.73037689859E+01  0.51100000000E-03 0. -1.
        -11    1    3    3    0    0 -0.79668821035E+01  0.17436838417E+02 -0.21308513110E+01  0.19288729145E+02  0.51100000000E-03 0.  1.
         12    1    3    3    0    0  0.98193982819E+01  0.19741183562E+02 -0.93174223057E+01  0.23936358735E+02  0.00000000000E+00 0. -1.
</event>
<event>
 7    1  0.2835316E-011  0.5052884E+02  0.7816164E-02  0.1300439E+00
        -11   -1    0    0    0    0  0.00000000000E+00  0.00000000000E+00  0.45593999997E+02  0.45594000000E+02  0.51100000000E-03 0.  1.
         11   -1    0    0    0    0 -0.00000000000E+00 -0.00000000000E+00 -0.45593999997E+02  0.45594000000E+02  0.51100000000E-03 0. -1.
    9900012    2    1    2    0    0  0.38360446116E+02  0.62226833583E+00 -0.13463156875E+02  0.50528835755E+02  0.29999926759E+02 0.  0.
        -12    1    1    2    0    0 -0.38360446116E+02 -0.62226833583E+00  0.13463156875E+02  0.40659164245E+02  0.00000000000E+00 0.  1.
         11    1    3    3    0    0  0.16834047663E+01  0.32491960546E+01  0.37802601113E+01  0.52613204976E+01  0.51100000000E-03 0. -1.
        -11    1    3    3    0    0  0.10156713732E+02 -0.40917520554E+00  0.42908270625E+01  0.11033469778E+02  0.51100000000E-03 0.  1.
         12    1    3    3    0    0  0.26520327617E+02 -0.22177525132E+01 -0.21534244048E+02  0.34234045479E+02  0.00000000000E+00 0. -1.
</event>
<event>
 7    1  0.2835316E-011  0.5052885E+02  0.7816164E-02  0.1300439E+00
        -11   -1    0    0    0    0  0.00000000000E+00  0.00000000000E+00  0.45593999997E+02  0.45594000000E+02  0.51100000000E-03 0.  1.
         11   -1    0    0    0    0 -0.00000000000E+00 -0.00000000000E+00 -0.45593999997E+02  0.45594000000E+02  0.51100000000E-03 0. -1.
    9900012    2    1    2    0    0 -0.68074114948E+01  0.34578342545E+02 -0.20277170741E+02  0.50528852472E+02  0.29999977575E+02 0.  0.
        -12    1    1    2    0    0  0.68074114948E+01 -0.34578342545E+02  0.20277170741E+02  0.40659147528E+02  0.00000000000E+00 0.  1.
         11    1    3    3    0    0  0.38305802929E+01  0.23381988974E+02 -0.13998444056E+02  0.27519941679E+02  0.51100000000E-03 0. -1.
        -11    1    3    3    0    0  0.41401772469E+01  0.12608454854E+01 -0.12674056069E+01  0.45096691904E+01  0.51100000000E-03 0.  1.
        -12    1    3    3    0    0 -0.14778169035E+02  0.99355080855E+01 -0.50113210780E+01  0.18499241603E+02  0.00000000000E+00 0.  1.
</event>
<event>
 7    1  0.2835316E-011  0.5052886E+02  0.7816164E-02  0.1300439E+00
        -11   -1    0    0    0    0  0.00000000000E+00  0.00000000000E+00  0.45593999997E+02  0.45594000000E+02  0.51100000000E-03 0.  1.
         11   -1    0    0    0    0 -0.00000000000E+00 -0.00000000000E+00 -0.45593999997E+02  0.45594000000E+02  0.51100000000E-03 0. -1.
    9900012    2    1    2    0    0  0.22322691497E+02 -0.99101086913E+00 -0.33968827437E+02  0.50528857170E+02  0.29999991854E+02 0.  0.
        -12    1    1    2    0    0 -0.22322691497E+02  0.99101086913E+00  0.33968827437E+02  0.40659142830E+02  0.00000000000E+00 0.  1.
         11    1    3    3    0    0  0.26098033052E+01  0.44728238131E+01  0.18008291603E+01  0.54827194056E+01  0.51100000000E-03 0.  1.
        -11    1    3    3    0    0  0.21757302472E+02 -0.72418130398E+01 -0.35581191270E+02  0.42330193000E+02  0.51100000000E-03 0. -1.
         12    1    3    3    0    0 -0.20444142793E+01  0.17779783575E+01 -0.18846532721E+00  0.27159447647E+01  0.00000000000E+00 0. -1.
</event>
<event>
 7    1  0.2835316E-011  0.5052889E+02  0.7816164E-02  0.1300439E+00
        -11   -1    0    0    0    0  0.00000000000E+00  0.00000000000E+00  0.45593999997E+02  0.45594000000E+02  0.51100000000E-03 0.  1.
         11   -1    0    0    0    0 -0.00000000000E+00 -0.00000000000E+00 -0.45593999997E+02  0.45594000000E+02  0.51100000000E-03 0. -1.
    9900012    2    1    2    0    0 -0.33535197152E+02 -0.18908600515E+02 -0.13077405613E+02  0.50528890823E+02  0.30000094146E+02 0.  0.
        -12    1    1    2    0    0  0.33535197152E+02  0.18908600515E+02  0.13077405613E+02  0.40659109177E+02  0.00000000000E+00 0.  1.
         11    1    3    3    0    0 -0.87327069533E+01 -0.11314749146E+02 -0.10092197501E+02  0.17496747401E+02  0.51100000000E-03 0. -1.
        -11    1    3    3    0    0 -0.86721724308E+01 -0.11797164529E+02  0.36521219492E+01  0.15090316782E+02  0.51100000000E-03 0.  1.
         12    1    3    3    0    0 -0.16130317768E+02  0.42033131599E+01 -0.66373300616E+01  0.17941826640E+02  0.00000000000E+00 0. -1.
</event>
<event>
 7    1  0.2835316E-011  0.5052888E+02  0.7816164E-02  0.1300439E+00
        -11   -1    0    0    0    0  0.00000000000E+00  0.00000000000E+00  0.45593999997E+02  0.45594000000E+02  0.51100000000E-03 0.  1.
         11   -1    0    0    0    0 -0.00000000000E+00 -0.00000000000E+00 -0.45593999997E+02  0.45594000000E+02  0.51100000000E-03 0. -1.
    9900012    2    1    2    0    0 -0.24779923093E+00 -0.12956260757E+02 -0.38538788775E+02  0.50528876331E+02  0.30000050095E+02 0.  0.
        -12    1    1    2    0    0  0.24779923093E+00  0.12956260757E+02  0.38538788775E+02  0.40659123669E+02  0.00000000000E+00 0.  1.
         11    1    3    3    0    0  0.34362490660E+01  0.27451120112E+01 -0.34583945194E+01  0.55949924496E+01  0.51100000000E-03 0.  1.
        -11    1    3    3    0    0 -0.31483798386E+01 -0.16928602990E+02 -0.38001470210E+02  0.41720518132E+02  0.51100000000E-03 0. -1.
         12    1    3    3    0    0 -0.53566845833E+00  0.12272302217E+01  0.29210759538E+01  0.32133657498E+01  0.00000000000E+00 0. -1.
</event>
<event>
 7    1  0.2835316E-011  0.5052881E+02  0.7816164E-02  0.1300439E+00
        -11   -1    0    0    0    0  0.00000000000E+00  0.00000000000E+00  0.45593999997E+02  0.45594000000E+02  0.51100000000E-03 0.  1.
         11   -1    0    0    0    0 -0.00000000000E+00 -0.00000000000E+00 -0.45593999997E+02  0.45594000000E+02  0.51100000000E-03 0. -1.
    9900012    2    1    2    0    0 -0.37853463609E+02 -0.79255233893E+01 -0.12548751849E+02  0.50528809142E+02  0.29999845869E+02 0.  0.
        -12    1    1    2    0    0  0.37853463609E+02  0.79255233893E+01  0.12548751849E+02  0.40659190858E+02  0.00000000000E+00 0.  1.
         11    1    3    3    0    0  0.13408870568E+01 -0.57028958994E+01 -0.75210879293E+01  0.95335074154E+01  0.51100000000E-03 0.  1.
        -11    1    3    3    0    0 -0.10841033239E+02 -0.21568182274E+00 -0.63037760225E+01  0.12542412556E+02  0.51100000000E-03 0. -1.
        -12    1    3    3    0    0 -0.28353317427E+02 -0.20069456672E+01  0.12761121023E+01  0.28452889170E+02  0.00000000000E+00 0.  1.
</event>
<event>
 7    1  0.2835316E-011  0.5052883E+02  0.7816164E-02  0.1300439E+00
        -11   -1    0    0    0    0  0.00000000000E+00  0.00000000000E+00  0.45593999997E+02  0.45594000000E+02  0.51100000000E-03 0.  1.
         11   -1    0    0    0    0 -0.00000000000E+00 -0.00000000000E+00 -0.45593999997E+02  0.45594000000E+02  0.51100000000E-03 0. -1.
    9900012    2    1    2    0    0  0.58144562902E+01 -0.34926082597E+02 -0.19988229104E+02  0.50528825755E+02  0.29999896366E+02 0.  0.
        -12    1    1    2    0    0 -0.58144562902E+01  0.34926082597E+02  0.19988229104E+02  0.40659174245E+02  0.00000000000E+00 0.  1.
         11    1    3    3    0    0  0.78109017027E+01 -0.26496389426E+01 -0.25655163507E+01  0.86378612134E+01  0.51100000000E-03 0. -1.
        -11    1    3    3    0    0 -0.70621788039E+01 -0.33492629366E+01 -0.14380738878E+00  0.78174556285E+01  0.51100000000E-03 0.  1.
         12    1    3    3    0    0  0.50657333914E+01 -0.28927180718E+02 -0.17278905364E+02  0.34073508914E+02  0.00000000000E+00 0. -1.
</event>
<event>
 7    1  0.2835316E-011  0.5052886E+02  0.7816164E-02  0.1300439E+00
        -11   -1    0    0    0    0  0.00000000000E+00  0.00000000000E+00  0.45593999997E+02  0.45594000000E+02  0.51100000000E-03 0.  1.
         11   -1    0    0    0    0 -0.00000000000E+00 -0.00000000000E+00 -0.45593999997E+02  0.45594000000E+02  0.51100000000E-03 0. -1.
    9900012    2    1    2    0    0 -0.88871616414E+01  0.28026486623E+02 -0.28083809508E+02  0.50528856490E+02  0.29999989786E+02 0.  0.
        -12    1    1    2    0    0  0.88871616414E+01 -0.28026486623E+02  0.28083809508E+02  0.40659143510E+02  0.00000000000E+00 0.  1.
         11    1    3    3    0    0 -0.14292556919E+01 -0.23455822013E+01 -0.23536292937E+01  0.36171948813E+01  0.51100000000E-03 0.  1.
        -11    1    3    3    0    0 -0.10441468629E+02  0.26315143920E+01 -0.10869937936E+02  0.15300479931E+02  0.51100000000E-03 0. -1.
         12    1    3    3    0    0  0.29835626790E+01  0.27740554433E+02 -0.14860242278E+02  0.31611181678E+02  0.00000000000E+00 0. -1.
</event>
<event>
 7    1  0.2835316E-011  0.5052886E+02  0.7816164E-02  0.1300439E+00
        -11   -1    0    0    0    0  0.00000000000E+00  0.00000000000E+00  0.45593999997E+02  0.45594000000E+02  0.51100000000E-03 0.  1.
         11   -1    0    0    0    0 -0.00000000000E+00 -0.00000000000E+00 -0.45593999997E+02  0.45594000000E+02  0.51100000000E-03 0. -1.
    9900012    2    1    2    0    0 -0.27194978342E+01  0.85679125784E+01 -0.39653004311E+02  0.50528861479E+02  0.30000004951E+02 0.  0.
        -12    1    1    2    0    0  0.27194978342E+01 -0.85679125784E+01  0.39653004311E+02  0.40659138521E+02  0.00000000000E+00 0.  1.
         11    1    3    3    0    0  0.19225901358E+01 -0.71881463197E+01 -0.27356067597E+02  0.28349960052E+02  0.51100000000E-03 0. -1.
        -11    1    3    3    0    0  0.17850610389E+01  0.28060608813E+01 -0.20596932807E+00  0.33320930670E+01  0.51100000000E-03 0.  1.
        -12    1    3    3    0    0 -0.64271490089E+01  0.12949998017E+02 -0.12090967386E+02  0.18846808360E+02  0.00000000000E+00 0.  1.
</event>
<event>
 7    1  0.2835316E-011  0.5052887E+02  0.7816164E-02  0.1300439E+00
        -11   -1    0    0    0    0  0.00000000000E+00  0.00000000000E+00  0.45593999997E+02  0.45594000000E+02  0.51100000000E-03 0. -1.
         11   -1    0    0    0    0 -0.00000000000E+00 -0.00000000000E+00 -0.45593999997E+02  0.45594000000E+02  0.51100000000E-03 0.  1.
    9900012    2    1    2    0    0 -0.24514286002E+02 -0.11018797980E+02 -0.30509032209E+02  0.50528866052E+02  0.30000018850E+02 0.  0.
        -12    1    1    2    0    0  0.24514286002E+02  0.11018797980E+02  0.30509032209E+02  0.40659133948E+02  0.00000000000E+00 0.  1.
         11    1    3    3    0    0 -0.18260529952E+02 -0.12156169965E+02 -0.20821906860E+02  0.30245185201E+02  0.51100000000E-03 0. -1.
        -11    1    3    3    0    0 -0.14513712682E+01 -0.44333578622E+01 -0.11752280432E+02  0.12644257041E+02  0.51100000000E-03 0.  1.
         12    1    3    3    0    0 -0.48023847820E+01  0.55707298471E+01  0.20651550829E+01  0.76394238094E+01  0.00000000000E+00 0. -1.
</event>
<event>
 7    1  0.2835316E-011  0.5052886E+02  0.7816164E-02  0.1300439E+00
        -11   -1    0    0    0    0  0.00000000000E+00  0.00000000000E+00  0.45593999997E+02  0.45594000000E+02  0.51100000000E-03 0.  1.
         11   -1    0    0    0    0 -0.00000000000E+00 -0.00000000000E+00 -0.45593999997E+02  0.45594000000E+02  0.51100000000E-03 0. -1.
    9900012    2    1    2    0    0  0.26612822742E+00 -0.20002774365E+02 -0.35397506564E+02  0.50528864772E+02  0.30000014960E+02 0.  0.
        -12    1    1    2    0    0 -0.26612822742E+00  0.20002774365E+02  0.35397506564E+02  0.40659135228E+02  0.00000000000E+00 0.  1.
         11    1    3    3    0    0 -0.51296631806E+01 -0.50873169007E+01 -0.25213284197E+02  0.26227922866E+02  0.51100000000E-03 0. -1.
        -11    1    3    3    0    0 -0.30540756974E+01 -0.55228190899E+00  0.19691436663E+01  0.36755844042E+01  0.51100000000E-03 0.  1.
         12    1    3    3    0    0  0.84498671054E+01 -0.14363175555E+02 -0.12153366034E+02  0.20625357502E+02  0.00000000000E+00 0. -1.
</event>
<event>
 7    1  0.2835316E-011  0.5052886E+02  0.7816164E-02  0.1300439E+00
        -11   -1    0    0    0    0  0.00000000000E+00  0.00000000000E+00  0.45593999997E+02  0.45594000000E+02  0.51100000000E-03 0. -1.
         11   -1    0    0    0    0 -0.00000000000E+00 -0.00000000000E+00 -0.45593999997E+02  0.45594000000E+02  0.51100000000E-03 0.  1.
    9900012    2    1    2    0    0  0.75271511309E+01  0.31374671635E+02  0.24741412960E+02  0.50528861549E+02  0.30000005163E+02 0.  0.
        -12    1    1    2    0    0 -0.75271511309E+01 -0.31374671635E+02 -0.24741412960E+02  0.40659138451E+02  0.00000000000E+00 0.  1.
         11    1    3    3    0    0  0.79409056067E+01  0.13257589325E+00  0.85840558939E+01  0.11694510425E+02  0.51100000000E-03 0. -1.
        -11    1    3    3    0    0 -0.69084114767E+01  0.10418893558E+02  0.15834374370E+01  0.12601062117E+02  0.51100000000E-03 0.  1.
        -12    1    3    3    0    0  0.64946570008E+01  0.20823202184E+02  0.14573919629E+02  0.26233289007E+02  0.00000000000E+00 0.  1.
</event>
<event>
 7    1  0.2835316E-011  0.5052888E+02  0.7816164E-02  0.1300439E+00
        -11   -1    0    0    0    0  0.00000000000E+00  0.00000000000E+00  0.45593999997E+02  0.45594000000E+02  0.51100000000E-03 0.  1.
         11   -1    0    0    0    0 -0.00000000000E+00 -0.00000000000E+00 -0.45593999997E+02  0.45594000000E+02  0.51100000000E-03 0. -1.
    9900012    2    1    2    0    0 -0.31527415212E+01  0.10198955210E+02 -0.39232712692E+02  0.50528877879E+02  0.30000054802E+02 0.  0.
        -12    1    1    2    0    0  0.31527415212E+01 -0.10198955210E+02  0.39232712692E+02  0.40659122121E+02  0.00000000000E+00 0.  1.
         11    1    3    3    0    0 -0.46876632422E+01  0.51470679702E+01 -0.31875717989E+02  0.32627103655E+02  0.51100000000E-03 0. -1.
        -11    1    3    3    0    0  0.58952196673E+01  0.21425890271E+01 -0.10173108783E+02  0.11951420219E+02  0.51100000000E-03 0.  1.
         12    1    3    3    0    0 -0.43602979464E+01  0.29092982129E+01  0.28161140805E+01  0.59503540052E+01  0.00000000000E+00 0. -1.
</event>
<event>
 7    1  0.2835316E-011  0.5052886E+02  0.7816164E-02  0.1300439E+00
        -11   -1    0    0    0    0  0.00000000000E+00  0.00000000000E+00  0.45593999997E+02  0.45594000000E+02  0.51100000000E-03 0.  1.
         11   -1    0    0    0    0 -0.00000000000E+00 -0.00000000000E+00 -0.45593999997E+02  0.45594000000E+02  0.51100000000E-03 0. -1.
    9900012    2    1    2    0    0 -0.34074766825E+02  0.20987222043E+02 -0.71841624735E+01  0.50528863097E+02  0.30000009869E+02 0.  0.
        -12    1    1    2    0    0  0.34074766825E+02 -0.20987222043E+02  0.71841624735E+01  0.40659136903E+02  0.00000000000E+00 0.  1.
         11    1    3    3    0    0 -0.55671900528E+00  0.84655639762E+00 -0.92166309550E+00  0.13696922676E+01  0.51100000000E-03 0. -1.
        -11    1    3    3    0    0 -0.37945738198E+00  0.68834860517E+01 -0.11175306460E+02  0.13130645181E+02  0.51100000000E-03 0.  1.
         12    1    3    3    0    0 -0.33138590438E+02  0.13257179594E+02  0.49128070819E+01  0.36028525648E+02  0.00000000000E+00 0. -1.
</event>
<event>
 7    1  0.2835316E-011  0.5052886E+02  0.7816164E-02  0.1300439E+00
        -11   -1    0    0    0    0  0.00000000000E+00  0.00000000000E+00  0.45593999997E+02  0.45594000000E+02  0.51100000000E-03 0.  1.
         11   -1    0    0    0    0 -0.00000000000E+00 -0.00000000000E+00 -0.45593999997E+02  0.45594000000E+02  0.51100000000E-03 0. -1.
    9900012    2    1    2    0    0  0.31622104634E+01 -0.13654957250E+02 -0.38166847906E+02  0.50528859433E+02  0.29999998734E+02 0.  0.
        -12    1    1    2    0    0 -0.31622104634E+01  0.13654957250E+02  0.38166847906E+02  0.40659140567E+02  0.00000000000E+00 0.  1.
         11    1    3    3    0    0  0.32142478085E+01  0.56301910394E+01 -0.21776280551E+01  0.68390426466E+01  0.51100000000E-03 0. -1.
        -11    1    3    3    0    0  0.24223885336E+01 -0.61288209787E+01 -0.15925190920E+01  0.67798621016E+01  0.51100000000E-03 0.  1.
         12    1    3    3    0    0 -0.24744258787E+01 -0.13156327310E+02 -0.34396700759E+02  0.36909954685E+02  0.00000000000E+00 0. -1.
</event>
<event>
 7    1  0.2835316E-011  0.5052886E+02  0.7816164E-02  0.1300439E+00
        -11   -1    0    0    0    0  0.00000000000E+00  0.00000000000E+00  0.45593999997E+02  0.45594000000E+02  0.51100000000E-03 0. -1.
         11   -1    0    0    0    0 -0.00000000000E+00 -0.00000000000E+00 -0.45593999997E+02  0.45594000000E+02  0.51100000000E-03 0.  1.
    9900012    2    1    2    0    0  0.38210412037E+02 -0.44102580451E+01  0.13178748435E+02  0.50528863581E+02  0.30000011340E+02 0.  0.
        -12    1    1    2    0    0 -0.38210412037E+02  0.44102580451E+01 -0.13178748435E+02  0.40659136419E+02  0.00000000000E+00 0.  1.
         11    1    3    3    0    0  0.13783558039E+02 -0.21333332169E+01 -0.98752390905E+00  0.13982588693E+02  0.51100000000E-03 0. -1.
        -11    1    3    3    0    0  0.28216771380E+02 -0.49278414896E+01  0.14087354803E+02  0.31920579168E+02  0.51100000000E-03 0.  1.
        -12    1    3    3    0    0 -0.37899173817E+01  0.26509166614E+01  0.78917540648E-01  0.46256957189E+01  0.00000000000E+00 0.  1.
</event>
<event>
 7    1  0.2835316E-011  0.5052886E+02  0.7816164E-02  0.1300439E+00
        -11   -1    0    0    0    0  0.00000000000E+00  0.00000000000E+00  0.45593999997E+02  0.45594000000E+02  0.51100000000E-03 0.  1.
         11   -1    0    0    0    0 -0.00000000000E+00 -0.00000000000E+00 -0.45593999997E+02  0.45594000000E+02  0.51100000000E-03 0. -1.
    9900012    2    1    2    0    0  0.30122475429E+01 -0.76831936803E+01 -0.39812816323E+02  0.50528862725E+02  0.30000008738E+02 0.  0.
        -12    1    1    2    0    0 -0.30122475429E+01  0.76831936803E+01  0.39812816323E+02  0.40659137275E+02  0.00000000000E+00 0.  1.
         11    1    3    3    0    0  0.38127033819E+01  0.45660339858E+00 -0.18066083036E+02  0.18469665678E+02  0.51100000000E-03 0. -1.
        -11    1    3    3    0    0  0.91649901565E+01  0.73381823869E+00 -0.44526800606E+01  0.10215766920E+02  0.51100000000E-03 0.  1.
        -12    1    3    3    0    0 -0.99654459955E+01 -0.88736153176E+01 -0.17294053227E+02  0.21843430127E+02  0.00000000000E+00 0.  1.
</event>
<event>
 7    1  0.2835316E-011  0.5052891E+02  0.7816164E-02  0.1300439E+00
        -11   -1    0    0    0    0  0.00000000000E+00  0.00000000000E+00  0.45593999997E+02  0.45594000000E+02  0.51100000000E-03 0.  1.
         11   -1    0    0    0    0 -0.00000000000E+00 -0.00000000000E+00 -0.45593999997E+02  0.45594000000E+02  0.51100000000E-03 0. -1.
    9900012    2    1    2    0    0  0.34720939348E+02  0.17065883077E+02  0.12504930649E+02  0.50528913869E+02  0.30000164197E+02 0.  0.
        -12    1    1    2    0    0 -0.34720939348E+02 -0.17065883077E+02 -0.12504930649E+02  0.40659086131E+02  0.00000000000E+00 0.  1.
         11    1    3    3    0    0  0.38566096707E+01 -0.34109471677E+01  0.59311367261E+01  0.78540678542E+01  0.51100000000E-03 0. -1.
        -11    1    3    3    0    0  0.18656944584E+02  0.28294839862E+01 -0.31239573540E+01  0.19127118723E+02  0.51100000000E-03 0.  1.
        -12    1    3    3    0    0  0.12207385094E+02  0.17647346259E+02  0.96977512773E+01  0.23547727292E+02  0.00000000000E+00 0.  1.
</event>
<event>
 7    1  0.2835316E-011  0.5052886E+02  0.7816164E-02  0.1300439E+00
        -11   -1    0    0    0    0  0.00000000000E+00  0.00000000000E+00  0.45593999997E+02  0.45594000000E+02  0.51100000000E-03 0. -1.
         11   -1    0    0    0    0 -0.00000000000E+00 -0.00000000000E+00 -0.45593999997E+02  0.45594000000E+02  0.51100000000E-03 0.  1.
    9900012    2    1    2    0    0 -0.28506324271E+02 -0.16093182709E+02  0.24115658635E+02  0.50528855339E+02  0.29999986288E+02 0.  0.
        -12    1    1    2    0    0  0.28506324271E+02  0.16093182709E+02 -0.24115658635E+02  0.40659144661E+02  0.00000000000E+00 0.  1.
         11    1    3    3    0    0 -0.15222155474E+02 -0.58894349297E+01  0.89299224106E+01  0.18604918048E+02  0.51100000000E-03 0. -1.
        -11    1    3    3    0    0 -0.10492034107E+02  0.49510909534E+01  0.10924963898E+02  0.15935837530E+02  0.51100000000E-03 0.  1.
         12    1    3    3    0    0 -0.27921346900E+01 -0.15154838733E+02  0.42607723269E+01  0.15988099761E+02  0.00000000000E+00 0. -1.
</event>
<event>
 7    1  0.2835316E-011  0.5052886E+02  0.7816164E-02  0.1300439E+00
        -11   -1    0    0    0    0  0.00000000000E+00  0.00000000000E+00  0.45593999997E+02  0.45594000000E+02  0.51100000000E-03 0.  1.
         11   -1    0    0    0    0 -0.00000000000E+00 -0.00000000000E+00 -0.45593999997E+02  0.45594000000E+02  0.51100000000E-03 0. -1.
    9900012    2    1    2    0    0 -0.26923712583E+02  0.30241163606E+02  0.37083100131E+01  0.50528857871E+02  0.29999993986E+02 0.  0.
        -12    1    1    2    0    0  0.26923712583E+02 -0.30241163606E+02 -0.37083100131E+01  0.40659142129E+02  0.00000000000E+00 0.  1.
         11    1    3    3    0    0 -0.24577789488E+02  0.20301864373E+02 -0.99368024896E-01  0.31878571289E+02  0.51100000000E-03 0. -1.
        -11    1    3    3    0    0  0.29738393952E+01  0.99634835542E+01 -0.21976632207E+01  0.10627532601E+02  0.51100000000E-03 0.  1.
        -12    1    3    3    0    0 -0.53197624895E+01 -0.24184320865E-01  0.60053412588E+01  0.80227539823E+01  0.00000000000E+00 0.  1.
</event>
<event>
 7    1  0.2835316E-011  0.5052886E+02  0.7816164E-02  0.1300439E+00
        -11   -1    0    0    0    0  0.00000000000E+00  0.00000000000E+00  0.45593999997E+02  0.45594000000E+02  0.51100000000E-03 0.  1.
         11   -1    0    0    0    0 -0.00000000000E+00 -0.00000000000E+00 -0.45593999997E+02  0.45594000000E+02  0.51100000000E-03 0. -1.
    9900012    2    1    2    0    0 -0.17513805264E+02  0.34174335900E+02 -0.13362158527E+02  0.50528857245E+02  0.29999992083E+02 0.  0.
        -12    1    1    2    0    0  0.17513805264E+02 -0.34174335900E+02  0.13362158527E+02  0.40659142755E+02  0.00000000000E+00 0.  1.
         11    1    3    3    0    0 -0.99761345956E+01  0.10173226387E+02 -0.76958442505E+01  0.16193943793E+02  0.51100000000E-03 0. -1.
        -11    1    3    3    0    0  0.14777775262E+01 -0.40880115054E+01 -0.10913260769E+01  0.44818140693E+01  0.51100000000E-03 0.  1.
         12    1    3    3    0    0 -0.90154481942E+01  0.28089121019E+02 -0.45749881992E+01  0.29853099383E+02  0.00000000000E+00 0. -1.
</event>
<event>
 7    1  0.2835316E-011  0.5052886E+02  0.7816164E-02  0.1300439E+00
        -11   -1    0    0    0    0  0.00000000000E+00  0.00000000000E+00  0.45593999997E+02  0.45594000000E+02  0.51100000000E-03 0.  1.
         11   -1    0    0    0    0 -0.00000000000E+00 -0.00000000000E+00 -0.45593999997E+02  0.45594000000E+02  0.51100000000E-03 0. -1.
    9900012    2    1    2    0    0 -0.33357815086E+02 -0.22622834559E+02 -0.53506264434E+01  0.50528859894E+02  0.30000000135E+02 0.  0.
        -12    1    1    2    0    0  0.33357815086E+02  0.22622834559E+02  0.53506264434E+01  0.40659140106E+02  0.00000000000E+00 0.  1.
         11    1    3    3    0    0 -0.17625591515E+02 -0.16937762025E+02  0.49024202898E+01  0.24931566008E+02  0.51100000000E-03 0. -1.
        -11    1    3    3    0    0 -0.31723775761E+01 -0.96486868731E+01 -0.57898773719E+01  0.11691185488E+02  0.51100000000E-03 0.  1.
        -12    1    3    3    0    0 -0.12559845995E+02  0.39636143389E+01 -0.44631693613E+01  0.13906108399E+02  0.00000000000E+00 0.  1.
</event>
<event>
 7    1  0.2835316E-011  0.5052888E+02  0.7816164E-02  0.1300439E+00
        -11   -1    0    0    0    0  0.00000000000E+00  0.00000000000E+00  0.45593999997E+02  0.45594000000E+02  0.51100000000E-03 0. -1.
         11   -1    0    0    0    0 -0.00000000000E+00 -0.00000000000E+00 -0.45593999997E+02  0.45594000000E+02  0.51100000000E-03 0.  1.
    9900012    2    1    2    0    0 -0.34581516780E+02 -0.18384407272E+02  0.10922294194E+02  0.50528877480E+02  0.30000053590E+02 0.  0.
        -12    1    1    2    0    0  0.34581516780E+02  0.18384407272E+02 -0.10922294194E+02  0.40659122520E+02  0.00000000000E+00 0.  1.
         11    1    3    3    0    0 -0.18643502423E+02  0.48865559225E+01  0.17748084131E+01  0.19354807065E+02  0.51100000000E-03 0. -1.
        -11    1    3    3    0    0 -0.13494742983E+01 -0.15044221964E+01  0.39835460793E+01  0.44668788492E+01  0.51100000000E-03 0.  1.
         12    1    3    3    0    0 -0.14588540060E+02 -0.21766540998E+02  0.51639397017E+01  0.26707191566E+02  0.00000000000E+00 0. -1.
</event>
<event>
 7    1  0.2835316E-011  0.5052886E+02  0.7816164E-02  0.1300439E+00
        -11   -1    0    0    0    0  0.00000000000E+00  0.00000000000E+00  0.45593999997E+02  0.45594000000E+02  0.51100000000E-03 0.  1.
         11   -1    0    0    0    0 -0.00000000000E+00 -0.00000000000E+00 -0.45593999997E+02  0.45594000000E+02  0.51100000000E-03 0. -1.
    9900012    2    1    2    0    0  0.12295227719E+02 -0.19888987420E+02 -0.33262907600E+02  0.50528862439E+02  0.30000007869E+02 0.  0.
        -12    1    1    2    0    0 -0.12295227719E+02  0.19888987420E+02  0.33262907600E+02  0.40659137561E+02  0.00000000000E+00 0.  1.
         11    1    3    3    0    0  0.94810377613E+01 -0.11914322113E+02 -0.20977273406E+02  0.25920786027E+02  0.51100000000E-03 0. -1.
        -11    1    3    3    0    0 -0.65074589286E+00 -0.13400906392E+02 -0.12252966033E+02  0.18169835971E+02  0.51100000000E-03 0.  1.
        -12    1    3    3    0    0  0.34649358508E+01  0.54262410853E+01 -0.32668160846E-01  0.64382404409E+01  0.00000000000E+00 0.  1.
</event>
<event>
 7    1  0.2835316E-011  0.5052879E+02  0.7816164E-02  0.1300439E+00
        -11   -1    0    0    0    0  0.00000000000E+00  0.00000000000E+00  0.45593999997E+02  0.45594000000E+02  0.51100000000E-03 0. -1.
         11   -1    0    0    0    0 -0.00000000000E+00 -0.00000000000E+00 -0.45593999997E+02  0.45594000000E+02  0.51100000000E-03 0.  1.
    9900012    2    1    2    0    0 -0.78247991869E+01  0.38997098326E+02 -0.84362597176E+01  0.50528786552E+02  0.29999777202E+02 0.  0.
        -12    1    1    2    0    0  0.78247991869E+01 -0.38997098326E+02  0.84362597176E+01  0.40659213448E+02  0.00000000000E+00 0.  1.
         11    1    3    3    0    0 -0.64325144790E+01 -0.85088974957E+00 -0.26486868082E+01  0.70083377457E+01  0.51100000000E-03 0. -1.
        -11    1    3    3    0    0 -0.79481422909E+01  0.14662167899E+02  0.72233063941E+00  0.16693528542E+02  0.51100000000E-03 0.  1.
         12    1    3    3    0    0  0.65558575830E+01  0.25185820177E+02 -0.65099035488E+01  0.26826920264E+02  0.00000000000E+00 0. -1.
</event>
<event>
 7    1  0.2835316E-011  0.5052886E+02  0.7816164E-02  0.1300439E+00
        -11   -1    0    0    0    0  0.00000000000E+00  0.00000000000E+00  0.45593999997E+02  0.45594000000E+02  0.51100000000E-03 0. -1.
         11   -1    0    0    0    0 -0.00000000000E+00 -0.00000000000E+00 -0.45593999997E+02  0.45594000000E+02  0.51100000000E-03 0.  1.
    9900012    2    1    2    0    0 -0.39312026186E+02  0.10166756412E+02 -0.20897867106E+01  0.50528861455E+02  0.30000004877E+02 0.  0.
        -12    1    1    2    0    0  0.39312026186E+02 -0.10166756412E+02  0.20897867106E+01  0.40659138545E+02  0.00000000000E+00 0.  1.
         11    1    3    3    0    0 -0.11874185474E+02  0.49223399607E+01  0.11679211006E+02  0.17367489207E+02  0.51100000000E-03 0. -1.
        -11    1    3    3    0    0 -0.29727965016E+01 -0.28119906915E+01 -0.36640355782E+01  0.54927195148E+01  0.51100000000E-03 0.  1.
        -12    1    3    3    0    0 -0.24465044210E+02  0.80564071425E+01 -0.10104962138E+02  0.27668652733E+02  0.00000000000E+00 0.  1.
</event>
<event>
 7    1  0.2835316E-011  0.5052886E+02  0.7816164E-02  0.1300439E+00
        -11   -1    0    0    0    0  0.00000000000E+00  0.00000000000E+00  0.45593999997E+02  0.45594000000E+02  0.51100000000E-03 0. -1.
         11   -1    0    0    0    0 -0.00000000000E+00 -0.00000000000E+00 -0.45593999997E+02  0.45594000000E+02  0.51100000000E-03 0.  1.
    9900012    2    1    2    0    0  0.39141945865E+02  0.30803852118E+01 -0.10563373442E+02  0.50528861327E+02  0.30000004491E+02 0.  0.
        -12    1    1    2    0    0 -0.39141945865E+02 -0.30803852118E+01  0.10563373442E+02  0.40659138673E+02  0.00000000000E+00 0.  1.
         11    1    3    3    0    0  0.11737321135E+02  0.10133235188E+01 -0.48936059614E+01  0.12756916224E+02  0.51100000000E-03 0. -1.
        -11    1    3    3    0    0  0.28985403445E+02 -0.53172655137E+01 -0.64919376551E+01  0.30175688562E+02  0.51100000000E-03 0.  1.
        -12    1    3    3    0    0 -0.15807787157E+01  0.73843272067E+01  0.82217017437E+00  0.75962565412E+01  0.00000000000E+00 0.  1.
</event>
<event>
 7    1  0.2835316E-011  0.5052886E+02  0.7816164E-02  0.1300439E+00
        -11   -1    0    0    0    0  0.00000000000E+00  0.00000000000E+00  0.45593999997E+02  0.45594000000E+02  0.51100000000E-03 0. -1.
         11   -1    0    0    0    0 -0.00000000000E+00 -0.00000000000E+00 -0.45593999997E+02  0.45594000000E+02  0.51100000000E-03 0.  1.
    9900012    2    1    2    0    0 -0.27527376502E+01  0.27026724012E+01  0.40475715300E+02  0.50528861646E+02  0.30000005458E+02 0.  0.
        -12    1    1    2    0    0  0.27527376502E+01 -0.27026724012E+01 -0.40475715300E+02  0.40659138354E+02  0.00000000000E+00 0.  1.
         11    1    3    3    0    0 -0.70312488958E+01  0.86639179197E+01  0.22147204909E+02  0.24799206041E+02  0.51100000000E-03 0.  1.
        -11    1    3    3    0    0  0.83693282460E+01  0.20003658067E+01  0.12003966465E+02  0.14769642169E+02  0.51100000000E-03 0. -1.
        -12    1    3    3    0    0 -0.40908170004E+01 -0.79616113251E+01  0.63245439265E+01  0.10960013435E+02  0.00000000000E+00 0.  1.
</event>
<event>
 7    1  0.2835316E-011  0.5052888E+02  0.7816164E-02  0.1300439E+00
        -11   -1    0    0    0    0  0.00000000000E+00  0.00000000000E+00  0.45593999997E+02  0.45594000000E+02  0.51100000000E-03 0.  1.
         11   -1    0    0    0    0 -0.00000000000E+00 -0.00000000000E+00 -0.45593999997E+02  0.45594000000E+02  0.51100000000E-03 0. -1.
    9900012    2    1    2    0    0  0.20505049179E+02  0.17357931321E+02 -0.30518994733E+02  0.50528882190E+02  0.30000067906E+02 0.  0.
        -12    1    1    2    0    0 -0.20505049179E+02 -0.17357931321E+02  0.30518994733E+02  0.40659117810E+02  0.00000000000E+00 0.  1.
         11    1    3    3    0    0  0.75083968341E+01  0.27426961243E+01  0.23949399580E+01  0.83447074671E+01  0.51100000000E-03 0. -1.
        -11    1    3    3    0    0  0.16708391716E+02  0.74093961991E+01 -0.23039617979E+02  0.29409071775E+02  0.51100000000E-03 0.  1.
         12    1    3    3    0    0 -0.37117393714E+01  0.72058389978E+01 -0.98743167111E+01  0.12775102948E+02  0.00000000000E+00 0. -1.
</event>
<event>
 7    1  0.2835316E-011  0.5052886E+02  0.7816164E-02  0.1300439E+00
        -11   -1    0    0    0    0  0.00000000000E+00  0.00000000000E+00  0.45593999997E+02  0.45594000000E+02  0.51100000000E-03 0. -1.
         11   -1    0    0    0    0 -0.00000000000E+00 -0.00000000000E+00 -0.45593999997E+02  0.45594000000E+02  0.51100000000E-03 0.  1.
    9900012    2    1    2    0    0  0.25636246054E+02  0.18173859944E+02  0.25800369069E+02  0.50528863990E+02  0.30000012583E+02 0.  0.
        -12    1    1    2    0    0 -0.25636246054E+02 -0.18173859944E+02 -0.25800369069E+02  0.40659136010E+02  0.00000000000E+00 0.  1.
         11    1    3    3    0    0  0.19623625815E+01  0.96410926956E+01  0.42457377118E+01  0.10715774552E+02  0.51100000000E-03 0. -1.
        -11    1    3    3    0    0  0.14577138196E+02  0.13353672764E+02  0.21911745255E+02  0.29511660656E+02  0.51100000000E-03 0.  1.
        -12    1    3    3    0    0  0.90967452766E+01 -0.48209055155E+01 -0.35711389784E+00  0.10301428782E+02  0.00000000000E+00 0.  1.
</event>
<event>
 7    1  0.2835316E-011  0.5052886E+02  0.7816164E-02  0.1300439E+00
        -11   -1    0    0    0    0  0.00000000000E+00  0.00000000000E+00  0.45593999997E+02  0.45594000000E+02  0.51100000000E-03 0.  1.
         11   -1    0    0    0    0 -0.00000000000E+00 -0.00000000000E+00 -0.45593999997E+02  0.45594000000E+02  0.51100000000E-03 0. -1.
    9900012    2    1    2    0    0 -0.69639546660E+01  0.39481231526E+02 -0.67750524756E+01  0.50528860271E+02  0.30000001280E+02 0.  0.
        -12    1    1    2    0    0  0.69639546660E+01 -0.39481231526E+02  0.67750524756E+01  0.40659139729E+02  0.00000000000E+00 0.  1.
         11    1    3    3    0    0  0.18282764789E+01  0.17422746689E+02 -0.42142746595E+00  0.17523478492E+02  0.51100000000E-03 0. -1.
        -11    1    3    3    0    0  0.65785675622E+00 -0.43171733850E+01 -0.10246818111E+01  0.44856141857E+01  0.51100000000E-03 0.  1.
         12    1    3    3    0    0 -0.94500879011E+01  0.26375658222E+02 -0.53289431986E+01  0.28519767594E+02  0.00000000000E+00 0. -1.
</event>
<event>
 7    1  0.2835316E-011  0.5052886E+02  0.7816164E-02  0.1300439E+00
        -11   -1    0    0    0    0  0.00000000000E+00  0.00000000000E+00  0.45593999997E+02  0.45594000000E+02  0.51100000000E-03 0.  1.
         11   -1    0    0    0    0 -0.00000000000E+00 -0.00000000000E+00 -0.45593999997E+02  0.45594000000E+02  0.51100000000E-03 0. -1.
    9900012    2    1    2    0    0 -0.68287643766E+01 -0.10746826156E+02 -0.38613981575E+02  0.50528857505E+02  0.29999992873E+02 0.  0.
        -12    1    1    2    0    0  0.68287643766E+01  0.10746826156E+02  0.38613981575E+02  0.40659142495E+02  0.00000000000E+00 0.  1.
         11    1    3    3    0    0 -0.76714042227E+01 -0.18912070518E+02 -0.32168479037E+02  0.38096297692E+02  0.51100000000E-03 0. -1.
        -11    1    3    3    0    0 -0.11824623110E+01  0.13495993790E+01  0.10680228994E+01  0.20881352388E+01  0.51100000000E-03 0.  1.
        -12    1    3    3    0    0  0.20251021572E+01  0.68156449831E+01 -0.75135254378E+01  0.10344424575E+02  0.00000000000E+00 0.  1.
</event>
<event>
 7    1  0.2835316E-011  0.5052886E+02  0.7816164E-02  0.1300439E+00
        -11   -1    0    0    0    0  0.00000000000E+00  0.00000000000E+00  0.45593999997E+02  0.45594000000E+02  0.51100000000E-03 0. -1.
         11   -1    0    0    0    0 -0.00000000000E+00 -0.00000000000E+00 -0.45593999997E+02  0.45594000000E+02  0.51100000000E-03 0.  1.
    9900012    2    1    2    0    0 -0.36255606322E+02 -0.96116828726E+01 -0.15694328248E+02  0.50528863553E+02  0.30000011256E+02 0.  0.
        -12    1    1    2    0    0  0.36255606322E+02  0.96116828726E+01  0.15694328248E+02  0.40659136447E+02  0.00000000000E+00 0.  1.
         11    1    3    3    0    0  0.22602861300E+01 -0.17416975476E+01  0.26235243061E+01  0.38762460941E+01  0.51100000000E-03 0. -1.
        -11    1    3    3    0    0 -0.14405184952E+02 -0.10453528872E+02 -0.12400440722E+02  0.21692315453E+02  0.51100000000E-03 0.  1.
         12    1    3    3    0    0 -0.24110707500E+02  0.25835435466E+01 -0.59174118319E+01  0.24960302006E+02  0.00000000000E+00 0. -1.
</event>
<event>
 7    1  0.2835316E-011  0.5052885E+02  0.7816164E-02  0.1300439E+00
        -11   -1    0    0    0    0  0.00000000000E+00  0.00000000000E+00  0.45593999997E+02  0.45594000000E+02  0.51100000000E-03 0. -1.
         11   -1    0    0    0    0 -0.00000000000E+00 -0.00000000000E+00 -0.45593999997E+02  0.45594000000E+02  0.51100000000E-03 0.  1.
    9900012    2    1    2    0    0 -0.15287501473E+02 -0.11021038863E+02  0.36027700309E+02  0.50528853570E+02  0.29999980911E+02 0.  0.
        -12    1    1    2    0    0  0.15287501473E+02  0.11021038863E+02 -0.36027700309E+02  0.40659146430E+02  0.00000000000E+00 0.  1.
         11    1    3    3    0    0 -0.19160326286E+02 -0.69467541262E+01  0.22361977469E+02  0.30256132153E+02  0.51100000000E-03 0. -1.
        -11    1    3    3    0    0 -0.30664054055E+01  0.21490261594E+00 -0.12127782292E+01  0.33045206217E+01  0.51100000000E-03 0.  1.
        -12    1    3    3    0    0  0.69392302187E+01 -0.42891873524E+01  0.14878501069E+02  0.16968200795E+02  0.00000000000E+00 0.  1.
</event>
<event>
 7    1  0.2835316E-011  0.5052891E+02  0.7816164E-02  0.1300439E+00
        -11   -1    0    0    0    0  0.00000000000E+00  0.00000000000E+00  0.45593999997E+02  0.45594000000E+02  0.51100000000E-03 0.  1.
         11   -1    0    0    0    0 -0.00000000000E+00 -0.00000000000E+00 -0.45593999997E+02  0.45594000000E+02  0.51100000000E-03 0. -1.
    9900012    2    1    2    0    0 -0.18520248827E+02 -0.23994079827E+02 -0.27100659034E+02  0.50528914872E+02  0.30000167244E+02 0.  0.
        -12    1    1    2    0    0  0.18520248827E+02  0.23994079827E+02  0.27100659034E+02  0.40659085128E+02  0.00000000000E+00 0.  1.
         11    1    3    3    0    0 -0.13677137650E+02 -0.63601996854E+01 -0.85120094051E+01  0.17319657580E+02  0.51100000000E-03 0. -1.
        -11    1    3    3    0    0 -0.92461836389E+01 -0.17823895859E+02 -0.77752659286E+01  0.21532253389E+02  0.51100000000E-03 0.  1.
         12    1    3    3    0    0  0.44030724613E+01  0.19001571795E+00 -0.10813383701E+02  0.11677003902E+02  0.00000000000E+00 0. -1.
</event>
<event>
 7    1  0.2835316E-011  0.5052886E+02  0.7816164E-02  0.1300439E+00
        -11   -1    0    0    0    0  0.00000000000E+00  0.00000000000E+00  0.45593999997E+02  0.45594000000E+02  0.51100000000E-03 0. -1.
         11   -1    0    0    0    0 -0.00000000000E+00 -0.00000000000E+00 -0.45593999997E+02  0.45594000000E+02  0.51100000000E-03 0.  1.
    9900012    2    1    2    0    0  0.29193920391E+02  0.12333412722E+01  0.28272953269E+02  0.50528855825E+02  0.29999987765E+02 0.  0.
        -12    1    1    2    0    0 -0.29193920391E+02 -0.12333412722E+01 -0.28272953269E+02  0.40659144175E+02  0.00000000000E+00 0.  1.
         11    1    3    3    0    0  0.23379642291E+02  0.55248360515E+01  0.21699799412E+02  0.32373025528E+02  0.51100000000E-03 0. -1.
        -11    1    3    3    0    0  0.80702067417E+01 -0.59392592280E+01  0.97115965874E+01  0.13954144387E+02  0.51100000000E-03 0.  1.
        -12    1    3    3    0    0 -0.22559286415E+01  0.16477644487E+01 -0.31384427303E+01  0.42016859099E+01  0.00000000000E+00 0.  1.
</event>
<event>
 7    1  0.2835316E-011  0.5052887E+02  0.7816164E-02  0.1300439E+00
        -11   -1    0    0    0    0  0.00000000000E+00  0.00000000000E+00  0.45593999997E+02  0.45594000000E+02  0.51100000000E-03 0. -1.
         11   -1    0    0    0    0 -0.00000000000E+00 -0.00000000000E+00 -0.45593999997E+02  0.45594000000E+02  0.51100000000E-03 0.  1.
    9900012    2    1    2    0    0 -0.14460853636E+02  0.25361624068E+02  0.28299062621E+02  0.50528865621E+02  0.30000017541E+02 0.  0.
        -12    1    1    2    0    0  0.14460853636E+02 -0.25361624068E+02 -0.28299062621E+02  0.40659134379E+02  0.00000000000E+00 0.  1.
         11    1    3    3    0    0  0.34457173851E+01  0.24237874807E+01  0.68507499617E+01  0.80424181282E+01  0.51100000000E-03 0. -1.
        -11    1    3    3    0    0 -0.17455264140E+01  0.73872064561E+01 -0.39881651079E+01  0.85745637134E+01  0.51100000000E-03 0.  1.
        -12    1    3    3    0    0 -0.16161044607E+02  0.15550630131E+02  0.25436477767E+02  0.33911883779E+02  0.00000000000E+00 0.  1.
</event>
<event>
 7    1  0.2835316E-011  0.5052886E+02  0.7816164E-02  0.1300439E+00
        -11   -1    0    0    0    0  0.00000000000E+00  0.00000000000E+00  0.45593999997E+02  0.45594000000E+02  0.51100000000E-03 0. -1.
         11   -1    0    0    0    0 -0.00000000000E+00 -0.00000000000E+00 -0.45593999997E+02  0.45594000000E+02  0.51100000000E-03 0.  1.
    9900012    2    1    2    0    0  0.34504574303E+02 -0.13789607113E+02  0.16505949921E+02  0.50528864557E+02  0.30000014309E+02 0.  0.
        -12    1    1    2    0    0 -0.34504574303E+02  0.13789607113E+02 -0.16505949921E+02  0.40659135443E+02  0.00000000000E+00 0.  1.
         11    1    3    3    0    0  0.15212323895E+02 -0.76013638583E+01  0.15792615707E+01  0.17078922629E+02  0.51100000000E-03 0. -1.
        -11    1    3    3    0    0  0.40552755564E+01 -0.14548657740E+01 -0.58427739556E+01  0.72594698165E+01  0.51100000000E-03 0.  1.
        -12    1    3    3    0    0  0.15236974851E+02 -0.47333774809E+01  0.20769462306E+02  0.26190472112E+02  0.00000000000E+00 0.  1.
</event>
<event>
 7    1  0.2835316E-011  0.5052886E+02  0.7816164E-02  0.1300439E+00
        -11   -1    0    0    0    0  0.00000000000E+00  0.00000000000E+00  0.45593999997E+02  0.45594000000E+02  0.51100000000E-03 0.  1.
         11   -1    0    0    0    0 -0.00000000000E+00 -0.00000000000E+00 -0.45593999997E+02  0.45594000000E+02  0.51100000000E-03 0. -1.
    9900012    2    1    2    0    0  0.21292726936E+02  0.11679393104E+02 -0.32609459923E+02  0.50528864248E+02  0.30000013369E+02 0.  0.
        -12    1    1    2    0    0 -0.21292726936E+02 -0.11679393104E+02  0.32609459923E+02  0.40659135752E+02  0.00000000000E+00 0.  1.
         11    1    3    3    0    0  0.93999331189E+00  0.89015705339E+01 -0.25563589054E+02  0.27085395160E+02  0.51100000000E-03 0. -1.
        -11    1    3    3    0    0  0.11773104969E+02  0.53832074343E+01 -0.64338280176E+01  0.14456108263E+02  0.51100000000E-03 0.  1.
        -12    1    3    3    0    0  0.85796286546E+01 -0.26053848638E+01 -0.61204285072E+00  0.89873608245E+01  0.00000000000E+00 0.  1.
</event>
<event>
 7    1  0.2835316E-011  0.5052885E+02  0.7816164E-02  0.1300439E+00
        -11   -1    0    0    0    0  0.00000000000E+00  0.00000000000E+00  0.45593999997E+02  0.45594000000E+02  0.51100000000E-03 0. -1.
         11   -1    0    0    0    0 -0.00000000000E+00 -0.00000000000E+00 -0.45593999997E+02  0.45594000000E+02  0.51100000000E-03 0.  1.
    9900012    2    1    2    0    0 -0.13925765231E+02 -0.22887956227E+02  0.30583995189E+02  0.50528852945E+02  0.29999979012E+02 0.  0.
        -12    1    1    2    0    0  0.13925765231E+02  0.22887956227E+02 -0.30583995189E+02  0.40659147055E+02  0.00000000000E+00 0.  1.
         11    1    3    3    0    0  0.18450111860E+01 -0.85375766303E+01  0.11284943437E+02  0.14270396968E+02  0.51100000000E-03 0.  1.
        -11    1    3    3    0    0 -0.19996023942E+01  0.39165441504E+01  0.11130154143E+02  0.11967374789E+02  0.51100000000E-03 0. -1.
         12    1    3    3    0    0 -0.13771174023E+02 -0.18266923747E+02  0.81688976084E+01  0.24291081188E+02  0.00000000000E+00 0. -1.
</event>
<event>
 7    1  0.2835316E-011  0.5052877E+02  0.7816164E-02  0.1300439E+00
        -11   -1    0    0    0    0  0.00000000000E+00  0.00000000000E+00  0.45593999997E+02  0.45594000000E+02  0.51100000000E-03 0. -1.
         11   -1    0    0    0    0 -0.00000000000E+00 -0.00000000000E+00 -0.45593999997E+02  0.45594000000E+02  0.51100000000E-03 0.  1.
    9900012    2    1    2    0    0  0.32870202651E+02  0.20359638701E+02 -0.12578085661E+02  0.50528765511E+02  0.29999713245E+02 0.  0.
        -12    1    1    2    0    0 -0.32870202651E+02 -0.20359638701E+02  0.12578085661E+02  0.40659234489E+02  0.00000000000E+00 0.  1.
         11    1    3    3    0    0  0.18549738812E+01 -0.26459450389E+01 -0.51107141063E+01  0.60465983980E+01  0.51100000000E-03 0. -1.
        -11    1    3    3    0    0  0.31810093866E+01  0.13935362097E+02 -0.48344080851E+01  0.15089222620E+02  0.51100000000E-03 0.  1.
         12    1    3    3    0    0  0.27834219383E+02  0.90702216433E+01 -0.26329634700E+01  0.29392944493E+02  0.00000000000E+00 0. -1.
</event>
<event>
 7    1  0.2835316E-011  0.5052886E+02  0.7816164E-02  0.1300439E+00
        -11   -1    0    0    0    0  0.00000000000E+00  0.00000000000E+00  0.45593999997E+02  0.45594000000E+02  0.51100000000E-03 0. -1.
         11   -1    0    0    0    0 -0.00000000000E+00 -0.00000000000E+00 -0.45593999997E+02  0.45594000000E+02  0.51100000000E-03 0.  1.
    9900012    2    1    2    0    0  0.37424017168E+02  0.14873313009E+02 -0.56029891959E+01  0.50528856025E+02  0.29999988373E+02 0.  0.
        -12    1    1    2    0    0 -0.37424017168E+02 -0.14873313009E+02  0.56029891959E+01  0.40659143975E+02  0.00000000000E+00 0.  1.
         11    1    3    3    0    0 -0.24963839901E+01  0.68571462431E+01 -0.23979270916E+01  0.76813047214E+01  0.51100000000E-03 0. -1.
        -11    1    3    3    0    0  0.34645333598E+01 -0.29089447620E+01  0.74746832416E+00  0.45851565062E+01  0.51100000000E-03 0.  1.
        -12    1    3    3    0    0  0.36455867798E+02  0.10925111528E+02 -0.39525304285E+01  0.38262394797E+02  0.00000000000E+00 0.  1.
</event>
<event>
 7    1  0.2835316E-011  0.5052879E+02  0.7816164E-02  0.1300439E+00
        -11   -1    0    0    0    0  0.00000000000E+00  0.00000000000E+00  0.45593999997E+02  0.45594000000E+02  0.51100000000E-03 0.  1.
         11   -1    0    0    0    0 -0.00000000000E+00 -0.00000000000E+00 -0.45593999997E+02  0.45594000000E+02  0.51100000000E-03 0. -1.
    9900012    2    1    2    0    0  0.25296682525E+02 -0.12531533656E+02 -0.29261058958E+02  0.50528793738E+02  0.29999799044E+02 0.  0.
        -12    1    1    2    0    0 -0.25296682525E+02  0.12531533656E+02  0.29261058958E+02  0.40659206262E+02  0.00000000000E+00 0.  1.
         11    1    3    3    0    0 -0.15742903375E+01 -0.74234147776E+01 -0.40307795233E+01  0.85925933718E+01  0.51100000000E-03 0. -1.
        -11    1    3    3    0    0  0.10299404395E+02 -0.21059920742E+01  0.12162066321E+01  0.10582631636E+02  0.51100000000E-03 0.  1.
         12    1    3    3    0    0  0.16571568467E+02 -0.30021268040E+01 -0.26446486067E+02  0.31353568730E+02  0.00000000000E+00 0. -1.
</event>
<event>
 7    1  0.2835316E-011  0.5052893E+02  0.7816164E-02  0.1300439E+00
        -11   -1    0    0    0    0  0.00000000000E+00  0.00000000000E+00  0.45593999997E+02  0.45594000000E+02  0.51100000000E-03 0.  1.
         11   -1    0    0    0    0 -0.00000000000E+00 -0.00000000000E+00 -0.45593999997E+02  0.45594000000E+02  0.51100000000E-03 0. -1.
    9900012    2    1    2    0    0 -0.12653296047E+01  0.12586548536E+00 -0.40639182817E+02  0.50528928673E+02  0.30000209193E+02 0.  0.
        -12    1    1    2    0    0  0.12653296047E+01 -0.12586548536E+00  0.40639182817E+02  0.40659071327E+02  0.00000000000E+00 0.  1.
         11    1    3    3    0    0  0.56909914331E+01  0.44793291820E+01 -0.26473581771E+02  0.27446353227E+02  0.51100000000E-03 0.  1.
        -11    1    3    3    0    0 -0.22963311260E+01 -0.44576162813E+01 -0.16934330666E+02  0.17661116468E+02  0.51100000000E-03 0. -1.
        -12    1    3    3    0    0 -0.46599899118E+01  0.10415258467E+00  0.27687296193E+01  0.54214589774E+01  0.00000000000E+00 0.  1.
</event>
<event>
 7    1  0.2835316E-011  0.5052886E+02  0.7816164E-02  0.1300439E+00
        -11   -1    0    0    0    0  0.00000000000E+00  0.00000000000E+00  0.45593999997E+02  0.45594000000E+02  0.51100000000E-03 0. -1.
         11   -1    0    0    0    0 -0.00000000000E+00 -0.00000000000E+00 -0.45593999997E+02  0.45594000000E+02  0.51100000000E-03 0.  1.
    9900012    2    1    2    0    0 -0.28091674242E+00  0.21651433456E+02  0.34413688173E+02  0.50528863037E+02  0.30000009687E+02 0.  0.
        -12    1    1    2    0    0  0.28091674242E+00 -0.21651433456E+02 -0.34413688173E+02  0.40659136963E+02  0.00000000000E+00 0.  1.
         11    1    3    3    0    0  0.51404390479E+01 -0.19641291227E+01  0.99649756382E+01  0.11383437818E+02  0.51100000000E-03 0. -1.
        -11    1    3    3    0    0  0.50558659471E+01  0.17576485670E+02  0.12556650759E+02  0.22184771974E+02  0.51100000000E-03 0.  1.
        -12    1    3    3    0    0 -0.10477221737E+02  0.60390769081E+01  0.11892061776E+02  0.16960653246E+02  0.00000000000E+00 0.  1.
</event>
<event>
 7    1  0.2835316E-011  0.5052886E+02  0.7816164E-02  0.1300439E+00
        -11   -1    0    0    0    0  0.00000000000E+00  0.00000000000E+00  0.45593999997E+02  0.45594000000E+02  0.51100000000E-03 0.  1.
         11   -1    0    0    0    0 -0.00000000000E+00 -0.00000000000E+00 -0.45593999997E+02  0.45594000000E+02  0.51100000000E-03 0. -1.
    9900012    2    1    2    0    0 -0.19153322132E+02 -0.11468105908E+02 -0.33982322538E+02  0.50528862689E+02  0.30000008630E+02 0.  0.
        -12    1    1    2    0    0  0.19153322132E+02  0.11468105908E+02  0.33982322538E+02  0.40659137311E+02  0.00000000000E+00 0.  1.
         11    1    3    3    0    0 -0.12134431045E+02 -0.81826637544E+01 -0.35214885953E+02  0.38135135975E+02  0.51100000000E-03 0. -1.
        -11    1    3    3    0    0 -0.72969645581E+01 -0.53909295725E+01 -0.12148251466E+01  0.91533389436E+01  0.51100000000E-03 0.  1.
        -12    1    3    3    0    0  0.27807347116E+00  0.21054874191E+01  0.24473885620E+01  0.32403877701E+01  0.00000000000E+00 0.  1.
</event>
<event>
 7    1  0.2835316E-011  0.5052888E+02  0.7816164E-02  0.1300439E+00
        -11   -1    0    0    0    0  0.00000000000E+00  0.00000000000E+00  0.45593999997E+02  0.45594000000E+02  0.51100000000E-03 0. -1.
         11   -1    0    0    0    0 -0.00000000000E+00 -0.00000000000E+00 -0.45593999997E+02  0.45594000000E+02  0.51100000000E-03 0.  1.
    9900012    2    1    2    0    0  0.25965012666E+02  0.28827582718E+02  0.12163566647E+02  0.50528883412E+02  0.30000071619E+02 0.  0.
        -12    1    1    2    0    0 -0.25965012666E+02 -0.28827582718E+02 -0.12163566647E+02  0.40659116588E+02  0.00000000000E+00 0.  1.
         11    1    3    3    0    0 -0.66353288584E+00 -0.30621567933E+01  0.20474091701E+01  0.37428551520E+01  0.51100000000E-03 0. -1.
        -11    1    3    3    0    0  0.64971096949E+01  0.42784600959E+01 -0.51816151358E+01  0.93470204266E+01  0.51100000000E-03 0.  1.
         12    1    3    3    0    0  0.20131435857E+02  0.27611279416E+02  0.15297772612E+02  0.37439007833E+02  0.00000000000E+00 0. -1.
</event>
<event>
 7    1  0.2835316E-011  0.5052887E+02  0.7816164E-02  0.1300439E+00
        -11   -1    0    0    0    0  0.00000000000E+00  0.00000000000E+00  0.45593999997E+02  0.45594000000E+02  0.51100000000E-03 0.  1.
         11   -1    0    0    0    0 -0.00000000000E+00 -0.00000000000E+00 -0.45593999997E+02  0.45594000000E+02  0.51100000000E-03 0. -1.
    9900012    2    1    2    0    0  0.22849459416E+02 -0.32174970648E+02  0.97897130943E+01  0.50528868009E+02  0.30000024800E+02 0.  0.
        -12    1    1    2    0    0 -0.22849459416E+02  0.32174970648E+02 -0.97897130943E+01  0.40659131991E+02  0.00000000000E+00 0.  1.
         11    1    3    3    0    0  0.16819852303E+02 -0.93283535244E+01  0.30170885500E+01  0.19468652612E+02  0.51100000000E-03 0. -1.
        -11    1    3    3    0    0  0.16152477597E+01  0.49922797414E+00 -0.44670536109E+01  0.47762770145E+01  0.51100000000E-03 0.  1.
         12    1    3    3    0    0  0.44143593533E+01 -0.23345845098E+02  0.11239678155E+02  0.26283938382E+02  0.00000000000E+00 0. -1.
</event>
<event>
 7    1  0.2835316E-011  0.5052888E+02  0.7816164E-02  0.1300439E+00
        -11   -1    0    0    0    0  0.00000000000E+00  0.00000000000E+00  0.45593999997E+02  0.45594000000E+02  0.51100000000E-03 0.  1.
         11   -1    0    0    0    0 -0.00000000000E+00 -0.00000000000E+00 -0.45593999997E+02  0.45594000000E+02  0.51100000000E-03 0. -1.
    9900012    2    1    2    0    0 -0.21527544589E+00 -0.30120943200E+02 -0.27310195548E+02  0.50528876256E+02  0.30000049868E+02 0.  0.
        -12    1    1    2    0    0  0.21527544589E+00  0.30120943200E+02  0.27310195548E+02  0.40659123744E+02  0.00000000000E+00 0.  1.
         11    1    3    3    0    0  0.23518157676E+01 -0.22819996389E+02 -0.14123059288E+02  0.26939637646E+02  0.51100000000E-03 0. -1.
        -11    1    3    3    0    0  0.71800132933E+01 -0.22015156031E-01 -0.32496534070E+01  0.78812006119E+01  0.51100000000E-03 0.  1.
        -12    1    3    3    0    0 -0.97471045067E+01 -0.72789316550E+01 -0.99374828529E+01  0.15708037998E+02  0.00000000000E+00 0.  1.
</event>
<event>
 7    1  0.2835316E-011  0.5052880E+02  0.7816164E-02  0.1300439E+00
        -11   -1    0    0    0    0  0.00000000000E+00  0.00000000000E+00  0.45593999997E+02  0.45594000000E+02  0.51100000000E-03 0.  1.
         11   -1    0    0    0    0 -0.00000000000E+00 -0.00000000000E+00 -0.45593999997E+02  0.45594000000E+02  0.51100000000E-03 0. -1.
    9900012    2    1    2    0    0  0.72761414622E+01  0.94701893457E+01 -0.38865718370E+02  0.50528797041E+02  0.29999809086E+02 0.  0.
        -12    1    1    2    0    0 -0.72761414622E+01 -0.94701893457E+01  0.38865718370E+02  0.40659202959E+02  0.00000000000E+00 0.  1.
         11    1    3    3    0    0 -0.51692687406E+01  0.50397908250E+01 -0.12325049209E+02  0.14283825438E+02  0.51100000000E-03 0. -1.
        -11    1    3    3    0    0 -0.54401361496E+01  0.25599284696E+01 -0.32973857671E+01  0.68571909885E+01  0.51100000000E-03 0.  1.
         12    1    3    3    0    0  0.17885546352E+02  0.18704700511E+01 -0.23243283394E+02  0.29387780615E+02  0.00000000000E+00 0. -1.
</event>
<event>
 7    1  0.2835316E-011  0.5052886E+02  0.7816164E-02  0.1300439E+00
        -11   -1    0    0    0    0  0.00000000000E+00  0.00000000000E+00  0.45593999997E+02  0.45594000000E+02  0.51100000000E-03 0.  1.
         11   -1    0    0    0    0 -0.00000000000E+00 -0.00000000000E+00 -0.45593999997E+02  0.45594000000E+02  0.51100000000E-03 0. -1.
    9900012    2    1    2    0    0 -0.11213761676E+02  0.30152989680E+02 -0.24863916311E+02  0.50528861152E+02  0.30000003956E+02 0.  0.
        -12    1    1    2    0    0  0.11213761676E+02 -0.30152989680E+02  0.24863916311E+02  0.40659138848E+02  0.00000000000E+00 0.  1.
         11    1    3    3    0    0  0.28870763731E+01  0.83690058780E+01  0.10390781102E+01  0.89137619977E+01  0.51100000000E-03 0. -1.
        -11    1    3    3    0    0  0.39934717148E+01  0.75102416546E+00 -0.68273204170E+01  0.79450713006E+01  0.51100000000E-03 0.  1.
         12    1    3    3    0    0 -0.18094309764E+02  0.21032959636E+02 -0.19075674005E+02  0.33670027853E+02  0.00000000000E+00 0. -1.
</event>
<event>
 7    1  0.2835316E-011  0.5052886E+02  0.7816164E-02  0.1300439E+00
        -11   -1    0    0    0    0  0.00000000000E+00  0.00000000000E+00  0.45593999997E+02  0.45594000000E+02  0.51100000000E-03 0. -1.
         11   -1    0    0    0    0 -0.00000000000E+00 -0.00000000000E+00 -0.45593999997E+02  0.45594000000E+02  0.51100000000E-03 0.  1.
    9900012    2    1    2    0    0  0.23040760018E+02 -0.30911491982E+02  0.12913909554E+02  0.50528855657E+02  0.29999987255E+02 0.  0.
        -12    1    1    2    0    0 -0.23040760018E+02  0.30911491982E+02 -0.12913909554E+02  0.40659144343E+02  0.00000000000E+00 0.  1.
         11    1    3    3    0    0  0.11691120773E+02 -0.17789657177E+01 -0.31985315913E+01  0.12250617476E+02  0.51100000000E-03 0. -1.
        -11    1    3    3    0    0  0.30219099719E+00 -0.12321440741E+02 -0.28079806016E+00  0.12328344136E+02  0.51100000000E-03 0.  1.
         12    1    3    3    0    0  0.11047448248E+02 -0.16811085523E+02  0.16393239206E+02  0.25949894045E+02  0.00000000000E+00 0. -1.
</event>
<event>
 7    1  0.2835316E-011  0.5052886E+02  0.7816164E-02  0.1300439E+00
        -11   -1    0    0    0    0  0.00000000000E+00  0.00000000000E+00  0.45593999997E+02  0.45594000000E+02  0.51100000000E-03 0. -1.
         11   -1    0    0    0    0 -0.00000000000E+00 -0.00000000000E+00 -0.45593999997E+02  0.45594000000E+02  0.51100000000E-03 0.  1.
    9900012    2    1    2    0    0  0.28179206176E+02 -0.81257214877E+01  0.28161509095E+02  0.50528860746E+02  0.30000002722E+02 0.  0.
        -12    1    1    2    0    0 -0.28179206176E+02  0.81257214877E+01 -0.28161509095E+02  0.40659139254E+02  0.00000000000E+00 0.  1.
         11    1    3    3    0    0 -0.18703211375E+01 -0.41337164477E+00  0.25127013537E+01  0.31595325015E+01  0.51100000000E-03 0. -1.
        -11    1    3    3    0    0  0.20459650857E+02 -0.79357405470E+01  0.22247838763E+01  0.22057265352E+02  0.51100000000E-03 0.  1.
         12    1    3    3    0    0  0.95898764562E+01  0.22339070405E+00  0.23424023865E+02  0.25312062892E+02  0.00000000000E+00 0. -1.
</event>
<event>
 7    1  0.2835316E-011  0.5052887E+02  0.7816164E-02  0.1300439E+00
        -11   -1    0    0    0    0  0.00000000000E+00  0.00000000000E+00  0.45593999997E+02  0.45594000000E+02  0.51100000000E-03 0. -1.
         11   -1    0    0    0    0 -0.00000000000E+00 -0.00000000000E+00 -0.45593999997E+02  0.45594000000E+02  0.51100000000E-03 0.  1.
    9900012    2    1    2    0    0  0.81044272491E+01  0.37393515971E+02  0.13755295661E+02  0.50528868966E+02  0.30000027709E+02 0.  0.
        -12    1    1    2    0    0 -0.81044272491E+01 -0.37393515971E+02 -0.13755295661E+02  0.40659131034E+02  0.00000000000E+00 0.  1.
         11    1    3    3    0    0  0.64528640385E+01 -0.22403209296E+01  0.21239604660E+01  0.71532999719E+01  0.51100000000E-03 0. -1.
        -11    1    3    3    0    0  0.14842800221E+01  0.29506510018E+01 -0.24182505810E+01  0.40935760225E+01  0.51100000000E-03 0.  1.
         12    1    3    3    0    0  0.16728318860E+00  0.36683185899E+02  0.14049585776E+02  0.39281992972E+02  0.00000000000E+00 0. -1.
</event>
<event>
 7    1  0.2835316E-011  0.5052886E+02  0.7816164E-02  0.1300439E+00
        -11   -1    0    0    0    0  0.00000000000E+00  0.00000000000E+00  0.45593999997E+02  0.45594000000E+02  0.51100000000E-03 0.  1.
         11   -1    0    0    0    0 -0.00000000000E+00 -0.00000000000E+00 -0.45593999997E+02  0.45594000000E+02  0.51100000000E-03 0. -1.
    9900012    2    1    2    0    0  0.37671481604E+01  0.26526459543E+02 -0.30583021377E+02  0.50528860096E+02  0.30000000748E+02 0.  0.
        -12    1    1    2    0    0 -0.37671481604E+01 -0.26526459543E+02  0.30583021377E+02  0.40659139904E+02  0.00000000000E+00 0.  1.
         11    1    3    3    0    0  0.11320832321E+02  0.45183994342E+01 -0.96781607673E+01  0.15564188831E+02  0.51100000000E-03 0. -1.
        -11    1    3    3    0    0 -0.11298366533E+01  0.34684952626E+01  0.25008102663E+01  0.44227867345E+01  0.51100000000E-03 0.  1.
        -12    1    3    3    0    0 -0.64238475072E+01  0.18539564847E+02 -0.23405670876E+02  0.30541884530E+02  0.00000000000E+00 0.  1.
</event>
<event>
 7    1  0.2835316E-011  0.5052890E+02  0.7816164E-02  0.1300439E+00
        -11   -1    0    0    0    0  0.00000000000E+00  0.00000000000E+00  0.45593999997E+02  0.45594000000E+02  0.51100000000E-03 0.  1.
         11   -1    0    0    0    0 -0.00000000000E+00 -0.00000000000E+00 -0.45593999997E+02  0.45594000000E+02  0.51100000000E-03 0. -1.
    9900012    2    1    2    0    0  0.29336594769E+02  0.13923831753E+02 -0.24467404275E+02  0.50528895788E+02  0.30000109238E+02 0.  0.
        -12    1    1    2    0    0 -0.29336594769E+02 -0.13923831753E+02  0.24467404275E+02  0.40659104212E+02  0.00000000000E+00 0.  1.
         11    1    3    3    0    0  0.11480518958E+02 -0.31048439773E+00  0.97493944214E+00  0.11526023742E+02  0.51100000000E-03 0. -1.
        -11    1    3    3    0    0 -0.38400093434E+01  0.39705590356E+01 -0.55407421057E+01  0.78237353071E+01  0.51100000000E-03 0.  1.
         12    1    3    3    0    0  0.21696085154E+02  0.10263757115E+02 -0.19901601611E+02  0.31179136740E+02  0.00000000000E+00 0. -1.
</event>
<event>
 7    1  0.2835316E-011  0.5052886E+02  0.7816164E-02  0.1300439E+00
        -11   -1    0    0    0    0  0.00000000000E+00  0.00000000000E+00  0.45593999997E+02  0.45594000000E+02  0.51100000000E-03 0. -1.
         11   -1    0    0    0    0 -0.00000000000E+00 -0.00000000000E+00 -0.45593999997E+02  0.45594000000E+02  0.51100000000E-03 0.  1.
    9900012    2    1    2    0    0  0.22393783240E+02 -0.26475689011E+02 -0.21230220095E+02  0.50528857342E+02  0.29999992377E+02 0.  0.
        -12    1    1    2    0    0 -0.22393783240E+02  0.26475689011E+02  0.21230220095E+02  0.40659142658E+02  0.00000000000E+00 0.  1.
         11    1    3    3    0    0  0.25917125068E+01 -0.14263794380E+02 -0.40173046721E+01  0.15043654507E+02  0.51100000000E-03 0. -1.
        -11    1    3    3    0    0  0.17749861862E+02 -0.17757456444E+02 -0.14287487715E+02  0.28888010678E+02  0.51100000000E-03 0.  1.
         12    1    3    3    0    0  0.20522088714E+01  0.55455618136E+01 -0.29254277081E+01  0.65971921570E+01  0.00000000000E+00 0. -1.
</event>
<event>
 7    1  0.3079906E-011  0.5052885E+02  0.7816164E-02  0.1300439E+00
        -11   -1    0    0    0    0  0.00000000000E+00  0.00000000000E+00  0.45593999997E+02  0.45594000000E+02  0.51100000000E-03 0. -1.
         11   -1    0    0    0    0 -0.00000000000E+00 -0.00000000000E+00 -0.45593999997E+02  0.45594000000E+02  0.51100000000E-03 0.  1.
    9900012    2    1    2    0    0  0.56311611181E+01 -0.39147597734E+02  0.94298357616E+01  0.50528853595E+02  0.29999980988E+02 0.  0.
        -12    1    1    2    0    0 -0.56311611181E+01  0.39147597734E+02 -0.94298357616E+01  0.40659146405E+02  0.00000000000E+00 0.  1.
         11    1    3    3    0    0  0.41679468372E+01 -0.17255842311E+02  0.87094971399E+01  0.19773497804E+02  0.51100000000E-03 0. -1.
        -11    1    3    3    0    0  0.16494392338E+01 -0.26151513035E+02 -0.83481910951E+00  0.26216773390E+02  0.51100000000E-03 0.  1.
        -12    1    3    3    0    0 -0.18622495289E+00  0.42597576117E+01  0.15551577312E+01  0.45385824012E+01  0.00000000000E+00 0.  1.
</event>
<event>
 7    1  0.2835316E-011  0.5052886E+02  0.7816164E-02  0.1300439E+00
        -11   -1    0    0    0    0  0.00000000000E+00  0.00000000000E+00  0.45593999997E+02  0.45594000000E+02  0.51100000000E-03 0.  1.
         11   -1    0    0    0    0 -0.00000000000E+00 -0.00000000000E+00 -0.45593999997E+02  0.45594000000E+02  0.51100000000E-03 0. -1.
    9900012    2    1    2    0    0 -0.20535135030E+02  0.12159819890E+02 -0.32918275027E+02  0.50528858086E+02  0.29999994638E+02 0.  0.
        -12    1    1    2    0    0  0.20535135030E+02 -0.12159819890E+02  0.32918275027E+02  0.40659141914E+02  0.00000000000E+00 0.  1.
         11    1    3    3    0    0 -0.18037318429E+02  0.97115685375E+01 -0.16131176354E+02  0.26074398754E+02  0.51100000000E-03 0. -1.
        -11    1    3    3    0    0 -0.14811279683E+00  0.75413580444E+01 -0.17249377178E+02  0.18826445014E+02  0.51100000000E-03 0.  1.
         12    1    3    3    0    0 -0.23497038040E+01 -0.50931066919E+01  0.46227850583E+00  0.56280143175E+01  0.00000000000E+00 0. -1.
</event>
<event>
 7    1  0.2835316E-011  0.5052886E+02  0.7816164E-02  0.1300439E+00
        -11   -1    0    0    0    0  0.00000000000E+00  0.00000000000E+00  0.45593999997E+02  0.45594000000E+02  0.51100000000E-03 0. -1.
         11   -1    0    0    0    0 -0.00000000000E+00 -0.00000000000E+00 -0.45593999997E+02  0.45594000000E+02  0.51100000000E-03 0.  1.
    9900012    2    1    2    0    0 -0.16245487788E+02 -0.35078198608E+02  0.12600381665E+02  0.50528861923E+02  0.30000006301E+02 0.  0.
        -12    1    1    2    0    0  0.16245487788E+02  0.35078198608E+02 -0.12600381665E+02  0.40659138077E+02  0.00000000000E+00 0.  1.
         11    1    3    3    0    0 -0.35182014263E+01 -0.25399964159E+02  0.13564674132E+02  0.29009245166E+02  0.51100000000E-03 0. -1.
        -11    1    3    3    0    0  0.22147732625E+01 -0.52807319760E+01  0.10249582290E+01  0.58173783132E+01  0.51100000000E-03 0.  1.
         12    1    3    3    0    0 -0.14942059624E+02 -0.43975024735E+01 -0.19892506956E+01  0.15702238444E+02  0.00000000000E+00 0. -1.
</event>
<event>
 7    1  0.2835316E-011  0.5052885E+02  0.7816164E-02  0.1300439E+00
        -11   -1    0    0    0    0  0.00000000000E+00  0.00000000000E+00  0.45593999997E+02  0.45594000000E+02  0.51100000000E-03 0.  1.
         11   -1    0    0    0    0 -0.00000000000E+00 -0.00000000000E+00 -0.45593999997E+02  0.45594000000E+02  0.51100000000E-03 0. -1.
    9900012    2    1    2    0    0  0.27690468506E+02 -0.24600356483E+02 -0.16769821923E+02  0.50528849585E+02  0.29999968797E+02 0.  0.
        -12    1    1    2    0    0 -0.27690468506E+02  0.24600356483E+02  0.16769821923E+02  0.40659150415E+02  0.00000000000E+00 0.  1.
         11    1    3    3    0    0  0.15547633375E+02 -0.12709042634E+02 -0.12777094974E+02  0.23801319805E+02  0.51100000000E-03 0. -1.
        -11    1    3    3    0    0  0.14845975660E+02 -0.15427869373E+02 -0.11411952921E+01  0.21441186386E+02  0.51100000000E-03 0.  1.
        -12    1    3    3    0    0 -0.27031405288E+01  0.35365555233E+01 -0.28515316570E+01  0.52863433940E+01  0.00000000000E+00 0.  1.
</event>
<event>
 7    1  0.2835316E-011  0.5052886E+02  0.7816164E-02  0.1300439E+00
        -11   -1    0    0    0    0  0.00000000000E+00  0.00000000000E+00  0.45593999997E+02  0.45594000000E+02  0.51100000000E-03 0.  1.
         11   -1    0    0    0    0 -0.00000000000E+00 -0.00000000000E+00 -0.45593999997E+02  0.45594000000E+02  0.51100000000E-03 0. -1.
    9900012    2    1    2    0    0 -0.10772012934E+02 -0.31721795460E+02 -0.23040340435E+02  0.50528857643E+02  0.29999993292E+02 0.  0.
        -12    1    1    2    0    0  0.10772012934E+02  0.31721795460E+02  0.23040340435E+02  0.40659142357E+02  0.00000000000E+00 0.  1.
         11    1    3    3    0    0 -0.95140376154E+01 -0.17048770580E+02 -0.14911539128E+02  0.24566877894E+02  0.51100000000E-03 0. -1.
        -11    1    3    3    0    0 -0.96993288403E+01 -0.28883735269E+01 -0.40744215276E+01  0.10909655935E+02  0.51100000000E-03 0.  1.
         12    1    3    3    0    0  0.84413535219E+01 -0.11784651353E+02 -0.40543797794E+01  0.15052323814E+02  0.00000000000E+00 0. -1.
</event>
<event>
 7    1  0.2835316E-011  0.5052886E+02  0.7816164E-02  0.1300439E+00
        -11   -1    0    0    0    0  0.00000000000E+00  0.00000000000E+00  0.45593999997E+02  0.45594000000E+02  0.51100000000E-03 0.  1.
         11   -1    0    0    0    0 -0.00000000000E+00 -0.00000000000E+00 -0.45593999997E+02  0.45594000000E+02  0.51100000000E-03 0. -1.
    9900012    2    1    2    0    0  0.61689533091E+00  0.32824549939E+02 -0.23986122357E+02  0.50528859523E+02  0.29999999007E+02 0.  0.
        -12    1    1    2    0    0 -0.61689533091E+00 -0.32824549939E+02  0.23986122357E+02  0.40659140477E+02  0.00000000000E+00 0.  1.
         11    1    3    3    0    0  0.58029470358E+01  0.15544733517E+01 -0.10264473605E+01  0.60946022139E+01  0.51100000000E-03 0. -1.
        -11    1    3    3    0    0 -0.92138010113E+01  0.46617147045E+01 -0.24885305799E+01  0.10621605235E+02  0.51100000000E-03 0.  1.
         12    1    3    3    0    0  0.40277493064E+01  0.26608361883E+02 -0.20471144417E+02  0.33812652074E+02  0.00000000000E+00 0. -1.
</event>
<event>
 7    1  0.2835316E-011  0.5052886E+02  0.7816164E-02  0.1300439E+00
        -11   -1    0    0    0    0  0.00000000000E+00  0.00000000000E+00  0.45593999997E+02  0.45594000000E+02  0.51100000000E-03 0.  1.
         11   -1    0    0    0    0 -0.00000000000E+00 -0.00000000000E+00 -0.45593999997E+02  0.45594000000E+02  0.51100000000E-03 0. -1.
    9900012    2    1    2    0    0  0.45527434376E+01 -0.29814421178E+02 -0.27267900049E+02  0.50528861346E+02  0.30000004547E+02 0.  0.
        -12    1    1    2    0    0 -0.45527434376E+01  0.29814421178E+02  0.27267900049E+02  0.40659138654E+02  0.00000000000E+00 0.  1.
         11    1    3    3    0    0 -0.12780665679E+01 -0.97317325725E+01 -0.47402813495E+01  0.10900015621E+02  0.51100000000E-03 0. -1.
        -11    1    3    3    0    0  0.19771118927E-01  0.57500631260E+01 -0.18731411792E+01  0.60475015493E+01  0.51100000000E-03 0.  1.
         12    1    3    3    0    0  0.58110388865E+01 -0.25832751732E+02 -0.20654477521E+02  0.33581344175E+02  0.00000000000E+00 0. -1.
</event>
<event>
 7    1  0.2835316E-011  0.5052887E+02  0.7816164E-02  0.1300439E+00
        -11   -1    0    0    0    0  0.00000000000E+00  0.00000000000E+00  0.45593999997E+02  0.45594000000E+02  0.51100000000E-03 0.  1.
         11   -1    0    0    0    0 -0.00000000000E+00 -0.00000000000E+00 -0.45593999997E+02  0.45594000000E+02  0.51100000000E-03 0. -1.
    9900012    2    1    2    0    0  0.20916638437E+02  0.31128370738E+02 -0.15706173109E+02  0.50528866930E+02  0.30000021521E+02 0.  0.
        -12    1    1    2    0    0 -0.20916638437E+02 -0.31128370738E+02  0.15706173109E+02  0.40659133070E+02  0.00000000000E+00 0.  1.
         11    1    3    3    0    0  0.20267396729E+00  0.29486332383E+01 -0.46597900418E+00  0.29920981609E+01  0.51100000000E-03 0. -1.
        -11    1    3    3    0    0  0.26608255566E+02  0.25302258315E+02 -0.17398809316E+02  0.40631540778E+02  0.51100000000E-03 0.  1.
        -12    1    3    3    0    0 -0.58942910964E+01  0.28774791845E+01  0.21586152111E+01  0.69052279916E+01  0.00000000000E+00 0.  1.
</event>
<event>
 7    1  0.2835316E-011  0.5052886E+02  0.7816164E-02  0.1300439E+00
        -11   -1    0    0    0    0  0.00000000000E+00  0.00000000000E+00  0.45593999997E+02  0.45594000000E+02  0.51100000000E-03 0.  1.
         11   -1    0    0    0    0 -0.00000000000E+00 -0.00000000000E+00 -0.45593999997E+02  0.45594000000E+02  0.51100000000E-03 0. -1.
    9900012    2    1    2    0    0  0.20405658162E+02 -0.17432119812E+02 -0.30543347656E+02  0.50528858688E+02  0.29999996469E+02 0.  0.
        -12    1    1    2    0    0 -0.20405658162E+02  0.17432119812E+02  0.30543347656E+02  0.40659141312E+02  0.00000000000E+00 0.  1.
         11    1    3    3    0    0 -0.71743585292E+00  0.29022330759E+01 -0.12184620380E+02  0.12546021087E+02  0.51100000000E-03 0. -1.
        -11    1    3    3    0    0  0.11587894867E+02 -0.79987908324E+01 -0.24422287653E+00  0.14082599451E+02  0.51100000000E-03 0.  1.
         12    1    3    3    0    0  0.95351991484E+01 -0.12335562055E+02 -0.18114504399E+02  0.23900238150E+02  0.00000000000E+00 0. -1.
</event>
<event>
 7    1  0.2835316E-011  0.5052885E+02  0.7816164E-02  0.1300439E+00
        -11   -1    0    0    0    0  0.00000000000E+00  0.00000000000E+00  0.45593999997E+02  0.45594000000E+02  0.51100000000E-03 0.  1.
         11   -1    0    0    0    0 -0.00000000000E+00 -0.00000000000E+00 -0.45593999997E+02  0.45594000000E+02  0.51100000000E-03 0. -1.
    9900012    2    1    2    0    0  0.47257962917E+01 -0.31615333410E+01 -0.40259635220E+02  0.50528847626E+02  0.29999962845E+02 0.  0.
        -12    1    1    2    0    0 -0.47257962917E+01  0.31615333410E+01  0.40259635220E+02  0.40659152374E+02  0.00000000000E+00 0.  1.
         11    1    3    3    0    0  0.51456946156E+01 -0.22566441038E+01  0.33619131169E+00  0.56288223056E+01  0.51100000000E-03 0. -1.
        -11    1    3    3    0    0 -0.82472651244E+01 -0.42014522421E+01 -0.12534205710E+02  0.15581267471E+02  0.51100000000E-03 0.  1.
         12    1    3    3    0    0  0.78273668005E+01  0.32965630048E+01 -0.28061620822E+02  0.29318757850E+02  0.00000000000E+00 0. -1.
</event>
<event>
 7    1  0.2835316E-011  0.5052886E+02  0.7816164E-02  0.1300439E+00
        -11   -1    0    0    0    0  0.00000000000E+00  0.00000000000E+00  0.45593999997E+02  0.45594000000E+02  0.51100000000E-03 0.  1.
         11   -1    0    0    0    0 -0.00000000000E+00 -0.00000000000E+00 -0.45593999997E+02  0.45594000000E+02  0.51100000000E-03 0. -1.
    9900012    2    1    2    0    0 -0.89745228103E+01 -0.15598744102E+02 -0.36459610213E+02  0.50528855221E+02  0.29999985931E+02 0.  0.
        -12    1    1    2    0    0  0.89745228103E+01  0.15598744102E+02  0.36459610213E+02  0.40659144779E+02  0.00000000000E+00 0.  1.
         11    1    3    3    0    0 -0.19029584560E+01  0.57855288714E+00 -0.15967225267E+02  0.16090626380E+02  0.51100000000E-03 0. -1.
        -11    1    3    3    0    0  0.26013991244E+01 -0.13360947676E+02 -0.20201445684E+02  0.24359404923E+02  0.51100000000E-03 0.  1.
        -12    1    3    3    0    0 -0.96729634786E+01 -0.28163493133E+01 -0.29093926181E+00  0.10078823918E+02  0.00000000000E+00 0.  1.
</event>
<event>
 7    1  0.2835316E-011  0.5052886E+02  0.7816164E-02  0.1300439E+00
        -11   -1    0    0    0    0  0.00000000000E+00  0.00000000000E+00  0.45593999997E+02  0.45594000000E+02  0.51100000000E-03 0.  1.
         11   -1    0    0    0    0 -0.00000000000E+00 -0.00000000000E+00 -0.45593999997E+02  0.45594000000E+02  0.51100000000E-03 0. -1.
    9900012    2    1    2    0    0 -0.52791042241E+01  0.80815148819E+01 -0.39496657551E+02  0.50528858569E+02  0.29999996107E+02 0.  0.
        -12    1    1    2    0    0  0.52791042241E+01 -0.80815148819E+01  0.39496657551E+02  0.40659141431E+02  0.00000000000E+00 0.  1.
         11    1    3    3    0    0 -0.62529520552E+01 -0.18533759509E+00 -0.18928477610E+02  0.19935421348E+02  0.51100000000E-03 0. -1.
        -11    1    3    3    0    0 -0.38902319244E+01  0.12860781345E+02 -0.63113269363E+01  0.14844744834E+02  0.51100000000E-03 0.  1.
        -12    1    3    3    0    0  0.48640797556E+01 -0.45939288680E+01 -0.14256853004E+02  0.15748692387E+02  0.00000000000E+00 0.  1.
</event>
<event>
 7    1  0.2835316E-011  0.5052885E+02  0.7816164E-02  0.1300439E+00
        -11   -1    0    0    0    0  0.00000000000E+00  0.00000000000E+00  0.45593999997E+02  0.45594000000E+02  0.51100000000E-03 0.  1.
         11   -1    0    0    0    0 -0.00000000000E+00 -0.00000000000E+00 -0.45593999997E+02  0.45594000000E+02  0.51100000000E-03 0. -1.
    9900012    2    1    2    0    0  0.75813563854E+01  0.11662048515E+02 -0.38205838588E+02  0.50528850447E+02  0.29999971417E+02 0.  0.
        -12    1    1    2    0    0 -0.75813563854E+01 -0.11662048515E+02  0.38205838588E+02  0.40659149553E+02  0.00000000000E+00 0.  1.
         11    1    3    3    0    0 -0.23945840833E+01  0.49311972956E+01  0.42451198531E+00  0.54982679443E+01  0.51100000000E-03 0. -1.
        -11    1    3    3    0    0  0.12437731133E+02  0.10274144943E+02 -0.18968862322E+02  0.24901263986E+02  0.51100000000E-03 0.  1.
         12    1    3    3    0    0 -0.24617906640E+01 -0.35432937235E+01 -0.19661488251E+02  0.20129318517E+02  0.00000000000E+00 0. -1.
</event>
<event>
 7    1  0.2835316E-011  0.5052886E+02  0.7816164E-02  0.1300439E+00
        -11   -1    0    0    0    0  0.00000000000E+00  0.00000000000E+00  0.45593999997E+02  0.45594000000E+02  0.51100000000E-03 0.  1.
         11   -1    0    0    0    0 -0.00000000000E+00 -0.00000000000E+00 -0.45593999997E+02  0.45594000000E+02  0.51100000000E-03 0. -1.
    9900012    2    1    2    0    0 -0.20402120301E+02  0.98043406955E+01 -0.33775647968E+02  0.50528855827E+02  0.29999987771E+02 0.  0.
        -12    1    1    2    0    0  0.20402120301E+02 -0.98043406955E+01  0.33775647968E+02  0.40659144173E+02  0.00000000000E+00 0.  1.
         11    1    3    3    0    0 -0.27616108037E+01 -0.36277987797E+01 -0.36533921739E+01  0.58424902956E+01  0.51100000000E-03 0. -1.
        -11    1    3    3    0    0 -0.22671613451E+02  0.52947643582E+01 -0.23282045755E+02  0.32925525673E+02  0.51100000000E-03 0.  1.
        -12    1    3    3    0    0  0.50311039531E+01  0.81373751170E+01 -0.68402100388E+01  0.11760839858E+02  0.00000000000E+00 0.  1.
</event>
<event>
 7    1  0.2835316E-011  0.5052885E+02  0.7816164E-02  0.1300439E+00
        -11   -1    0    0    0    0  0.00000000000E+00  0.00000000000E+00  0.45593999997E+02  0.45594000000E+02  0.51100000000E-03 0.  1.
         11   -1    0    0    0    0 -0.00000000000E+00 -0.00000000000E+00 -0.45593999997E+02  0.45594000000E+02  0.51100000000E-03 0. -1.
    9900012    2    1    2    0    0 -0.59633031055E+01  0.27171248343E+02 -0.29653473054E+02  0.50528853617E+02  0.29999981053E+02 0.  0.
        -12    1    1    2    0    0  0.59633031055E+01 -0.27171248343E+02  0.29653473054E+02  0.40659146383E+02  0.00000000000E+00 0.  1.
         11    1    3    3    0    0 -0.67239521343E+01  0.58144668234E+01 -0.18924543202E+02  0.20908321128E+02  0.51100000000E-03 0. -1.
        -11    1    3    3    0    0 -0.16766564009E+01 -0.26437532437E+01  0.19885888840E+00  0.31369018185E+01  0.51100000000E-03 0.  1.
         12    1    3    3    0    0  0.24373054297E+01  0.24000534764E+02 -0.10927788740E+02  0.26483630670E+02  0.00000000000E+00 0. -1.
</event>
<event>
 7    1  0.2835316E-011  0.5052888E+02  0.7816164E-02  0.1300439E+00
        -11   -1    0    0    0    0  0.00000000000E+00  0.00000000000E+00  0.45593999997E+02  0.45594000000E+02  0.51100000000E-03 0.  1.
         11   -1    0    0    0    0 -0.00000000000E+00 -0.00000000000E+00 -0.45593999997E+02  0.45594000000E+02  0.51100000000E-03 0. -1.
    9900012    2    1    2    0    0 -0.59000893293E+01 -0.10743194643E+02 -0.38767730078E+02  0.50528878261E+02  0.30000055961E+02 0.  0.
        -12    1    1    2    0    0  0.59000893293E+01  0.10743194643E+02  0.38767730078E+02  0.40659121739E+02  0.00000000000E+00 0.  1.
         11    1    3    3    0    0 -0.39962494077E+01 -0.52566914205E+01 -0.40039764052E+01  0.77223468799E+01  0.51100000000E-03 0. -1.
        -11    1    3    3    0    0 -0.88160458678E+01  0.50587070169E+01 -0.70813029630E+01  0.12387817941E+02  0.51100000000E-03 0.  1.
        -12    1    3    3    0    0  0.69122059463E+01 -0.10545210240E+02 -0.27682450709E+02  0.30418713440E+02  0.00000000000E+00 0.  1.
</event>
<event>
 7    1  0.2835316E-011  0.5052885E+02  0.7816164E-02  0.1300439E+00
        -11   -1    0    0    0    0  0.00000000000E+00  0.00000000000E+00  0.45593999997E+02  0.45594000000E+02  0.51100000000E-03 0. -1.
         11   -1    0    0    0    0 -0.00000000000E+00 -0.00000000000E+00 -0.45593999997E+02  0.45594000000E+02  0.51100000000E-03 0.  1.
    9900012    2    1    2    0    0 -0.24225965704E+02  0.19483586653E+02  0.26204175142E+02  0.50528851484E+02  0.29999974572E+02 0.  0.
        -12    1    1    2    0    0  0.24225965704E+02 -0.19483586653E+02 -0.26204175142E+02  0.40659148516E+02  0.00000000000E+00 0.  1.
         11    1    3    3    0    0 -0.10779724942E+02  0.38761832613E+01  0.11592366335E+02  0.16297552700E+02  0.51100000000E-03 0. -1.
        -11    1    3    3    0    0 -0.80477412475E+01 -0.26760917472E+01 -0.22564755717E+01  0.87760633825E+01  0.51100000000E-03 0.  1.
         12    1    3    3    0    0 -0.53984995144E+01  0.18283495139E+02  0.16868284379E+02  0.25455235402E+02  0.00000000000E+00 0. -1.
</event>
<event>
 7    1  0.2835316E-011  0.5052887E+02  0.7816164E-02  0.1300439E+00
        -11   -1    0    0    0    0  0.00000000000E+00  0.00000000000E+00  0.45593999997E+02  0.45594000000E+02  0.51100000000E-03 0. -1.
         11   -1    0    0    0    0 -0.00000000000E+00 -0.00000000000E+00 -0.45593999997E+02  0.45594000000E+02  0.51100000000E-03 0.  1.
    9900012    2    1    2    0    0 -0.38949626407E+02  0.88116255518E+01  0.76450673134E+01  0.50528865770E+02  0.30000017993E+02 0.  0.
        -12    1    1    2    0    0  0.38949626407E+02 -0.88116255518E+01 -0.76450673134E+01  0.40659134230E+02  0.00000000000E+00 0.  1.
         11    1    3    3    0    0 -0.23285248179E+02  0.97493170325E+01  0.12372453581E+02  0.28112800879E+02  0.51100000000E-03 0. -1.
        -11    1    3    3    0    0 -0.66356179277E+01  0.71745061976E+01 -0.19807279253E+01  0.99713714120E+01  0.51100000000E-03 0.  1.
         12    1    3    3    0    0 -0.90287603006E+01 -0.81121976783E+01 -0.27466583425E+01  0.12444693479E+02  0.00000000000E+00 0. -1.
</event>
<event>
 7    1  0.2835316E-011  0.5052886E+02  0.7816164E-02  0.1300439E+00
        -11   -1    0    0    0    0  0.00000000000E+00  0.00000000000E+00  0.45593999997E+02  0.45594000000E+02  0.51100000000E-03 0.  1.
         11   -1    0    0    0    0 -0.00000000000E+00 -0.00000000000E+00 -0.45593999997E+02  0.45594000000E+02  0.51100000000E-03 0. -1.
    9900012    2    1    2    0    0 -0.16433614509E+02 -0.58127434230E+01 -0.36733010779E+02  0.50528858926E+02  0.29999997193E+02 0.  0.
        -12    1    1    2    0    0  0.16433614509E+02  0.58127434230E+01  0.36733010779E+02  0.40659141074E+02  0.00000000000E+00 0.  1.
         11    1    3    3    0    0  0.51638676872E+01 -0.28065035371E+01 -0.15392489873E+02  0.16476369028E+02  0.51100000000E-03 0. -1.
        -11    1    3    3    0    0 -0.10585395443E+02  0.35104006249E+01 -0.17393544131E+02  0.20661773567E+02  0.51100000000E-03 0.  1.
        -12    1    3    3    0    0 -0.11012086754E+02 -0.65166405107E+01 -0.39469767754E+01  0.13390716332E+02  0.00000000000E+00 0.  1.
</event>
<event>
 7    1  0.2835316E-011  0.5052886E+02  0.7816164E-02  0.1300439E+00
        -11   -1    0    0    0    0  0.00000000000E+00  0.00000000000E+00  0.45593999997E+02  0.45594000000E+02  0.51100000000E-03 0.  1.
         11   -1    0    0    0    0 -0.00000000000E+00 -0.00000000000E+00 -0.45593999997E+02  0.45594000000E+02  0.51100000000E-03 0. -1.
    9900012    2    1    2    0    0  0.26167667083E+02 -0.72912727728E+01 -0.30253207987E+02  0.50528855239E+02  0.29999985984E+02 0.  0.
        -12    1    1    2    0    0 -0.26167667083E+02  0.72912727728E+01  0.30253207987E+02  0.40659144761E+02  0.00000000000E+00 0.  1.
         11    1    3    3    0    0  0.25001732026E+02 -0.37709845917E+01 -0.73866931095E+01  0.26341415384E+02  0.51100000000E-03 0. -1.
        -11    1    3    3    0    0 -0.13303454260E+01 -0.43963658161E+00 -0.52411097480E+00  0.14959250821E+01  0.51100000000E-03 0.  1.
         12    1    3    3    0    0  0.24962804831E+01 -0.30806515995E+01 -0.22342403902E+02  0.22691514772E+02  0.00000000000E+00 0. -1.
</event>
<event>
 7    1  0.2835316E-011  0.5052887E+02  0.7816164E-02  0.1300439E+00
        -11   -1    0    0    0    0  0.00000000000E+00  0.00000000000E+00  0.45593999997E+02  0.45594000000E+02  0.51100000000E-03 0.  1.
         11   -1    0    0    0    0 -0.00000000000E+00 -0.00000000000E+00 -0.45593999997E+02  0.45594000000E+02  0.51100000000E-03 0. -1.
    9900012    2    1    2    0    0 -0.26947469334E+02 -0.50387911208E+01 -0.30026809834E+02  0.50528870296E+02  0.30000031751E+02 0.  0.
        -12    1    1    2    0    0  0.26947469334E+02  0.50387911208E+01  0.30026809834E+02  0.40659129704E+02  0.00000000000E+00 0.  1.
         11    1    3    3    0    0 -0.21240184943E+02  0.26444139976E+01 -0.89426997952E+01  0.23197203747E+02  0.51100000000E-03 0.  1.
        -11    1    3    3    0    0 -0.16092801549E+01  0.43459990628E+01 -0.47496146952E+01  0.66359875290E+01  0.51100000000E-03 0. -1.
         12    1    3    3    0    0 -0.40980042367E+01 -0.12029204181E+02 -0.16334495344E+02  0.20695679020E+02  0.00000000000E+00 0. -1.
</event>
<event>
 7    1  0.2835316E-011  0.5052887E+02  0.7816164E-02  0.1300439E+00
        -11   -1    0    0    0    0  0.00000000000E+00  0.00000000000E+00  0.45593999997E+02  0.45594000000E+02  0.51100000000E-03 0. -1.
         11   -1    0    0    0    0 -0.00000000000E+00 -0.00000000000E+00 -0.45593999997E+02  0.45594000000E+02  0.51100000000E-03 0.  1.
    9900012    2    1    2    0    0 -0.64454079374E+01  0.34246522260E+02  0.20947492205E+02  0.50528868183E+02  0.30000025330E+02 0.  0.
        -12    1    1    2    0    0  0.64454079374E+01 -0.34246522260E+02 -0.20947492205E+02  0.40659131817E+02  0.00000000000E+00 0.  1.
         11    1    3    3    0    0 -0.39764051328E+01  0.26308160470E+02  0.19971145166E+02  0.33268269335E+02  0.51100000000E-03 0. -1.
        -11    1    3    3    0    0 -0.49007207365E+01  0.23924375774E+01  0.68963120783E+01  0.87920385487E+01  0.51100000000E-03 0.  1.
        -12    1    3    3    0    0  0.24317179319E+01  0.55459242133E+01 -0.59199650389E+01  0.84685602993E+01  0.00000000000E+00 0.  1.
</event>
<event>
 7    1  0.2835316E-011  0.5052886E+02  0.7816164E-02  0.1300439E+00
        -11   -1    0    0    0    0  0.00000000000E+00  0.00000000000E+00  0.45593999997E+02  0.45594000000E+02  0.51100000000E-03 0. -1.
         11   -1    0    0    0    0 -0.00000000000E+00 -0.00000000000E+00 -0.45593999997E+02  0.45594000000E+02  0.51100000000E-03 0.  1.
    9900012    2    1    2    0    0 -0.34767030819E+02  0.18571507175E+02 -0.99758977872E+01  0.50528857764E+02  0.29999993660E+02 0.  0.
        -12    1    1    2    0    0  0.34767030819E+02 -0.18571507175E+02  0.99758977872E+01  0.40659142236E+02  0.00000000000E+00 0.  1.
         11    1    3    3    0    0 -0.93666537949E+01  0.75083060163E+01 -0.10949938865E+02  0.16248385272E+02  0.51100000000E-03 0. -1.
        -11    1    3    3    0    0 -0.72009006581E+01  0.72039535284E+01 -0.86240676469E+01  0.13346327576E+02  0.51100000000E-03 0.  1.
         12    1    3    3    0    0 -0.18199476366E+02  0.38592476301E+01  0.95981087249E+01  0.20934144916E+02  0.00000000000E+00 0. -1.
</event>
<event>
 7    1  0.2835316E-011  0.5052883E+02  0.7816164E-02  0.1300439E+00
        -11   -1    0    0    0    0  0.00000000000E+00  0.00000000000E+00  0.45593999997E+02  0.45594000000E+02  0.51100000000E-03 0.  1.
         11   -1    0    0    0    0 -0.00000000000E+00 -0.00000000000E+00 -0.45593999997E+02  0.45594000000E+02  0.51100000000E-03 0. -1.
    9900012    2    1    2    0    0  0.65126652802E-01  0.35666403526E+02 -0.19521047082E+02  0.50528832999E+02  0.29999918385E+02 0.  0.
        -12    1    1    2    0    0 -0.65126652802E-01 -0.35666403526E+02  0.19521047082E+02  0.40659167001E+02  0.00000000000E+00 0.  1.
         11    1    3    3    0    0 -0.97924353881E+01  0.11971388945E+02 -0.30273187337E+01  0.15759778015E+02  0.51100000000E-03 0. -1.
        -11    1    3    3    0    0  0.44590030521E+01  0.33330031749E+00  0.15804849646E+01  0.47425447077E+01  0.51100000000E-03 0.  1.
         12    1    3    3    0    0  0.53985589888E+01  0.23361714264E+02 -0.18074213313E+02  0.30026510276E+02  0.00000000000E+00 0. -1.
</event>
<event>
 7    1  0.2835316E-011  0.5052885E+02  0.7816164E-02  0.1300439E+00
        -11   -1    0    0    0    0  0.00000000000E+00  0.00000000000E+00  0.45593999997E+02  0.45594000000E+02  0.51100000000E-03 0.  1.
         11   -1    0    0    0    0 -0.00000000000E+00 -0.00000000000E+00 -0.45593999997E+02  0.45594000000E+02  0.51100000000E-03 0. -1.
    9900012    2    1    2    0    0  0.28275688094E+02 -0.45479515990E+01 -0.28861188333E+02  0.50528848595E+02  0.29999965791E+02 0.  0.
        -12    1    1    2    0    0 -0.28275688094E+02  0.45479515990E+01  0.28861188333E+02  0.40659151405E+02  0.00000000000E+00 0.  1.
         11    1    3    3    0    0  0.55828657172E+01  0.36925595481E+00 -0.19502660622E+01  0.59252238397E+01  0.51100000000E-03 0.  1.
        -11    1    3    3    0    0  0.27356953520E+02  0.15672519664E+01 -0.18876964312E+02  0.33274599419E+02  0.51100000000E-03 0. -1.
         12    1    3    3    0    0 -0.46641311429E+01 -0.64844595202E+01 -0.80339579588E+01  0.11329025336E+02  0.00000000000E+00 0. -1.
</event>
<event>
 7    1  0.2835316E-011  0.5052872E+02  0.7816164E-02  0.1300439E+00
        -11   -1    0    0    0    0  0.00000000000E+00  0.00000000000E+00  0.45593999997E+02  0.45594000000E+02  0.51100000000E-03 0.  1.
         11   -1    0    0    0    0 -0.00000000000E+00 -0.00000000000E+00 -0.45593999997E+02  0.45594000000E+02  0.51100000000E-03 0. -1.
    9900012    2    1    2    0    0  0.14293480831E+02 -0.37982825272E+02 -0.24856372734E+01  0.50528720585E+02  0.29999576687E+02 0.  0.
        -12    1    1    2    0    0 -0.14293480831E+02  0.37982825272E+02  0.24856372734E+01  0.40659279415E+02  0.00000000000E+00 0.  1.
         11    1    3    3    0    0  0.10373966602E+01  0.22568170883E+00 -0.43153199916E+01  0.44439971822E+01  0.51100000000E-03 0. -1.
        -11    1    3    3    0    0 -0.48449165434E+01 -0.17305922278E+02  0.37826246041E+01  0.18365086751E+02  0.51100000000E-03 0.  1.
         12    1    3    3    0    0  0.18101000715E+02 -0.20902584702E+02 -0.19529418859E+01  0.27719636652E+02  0.00000000000E+00 0. -1.
</event>
<event>
 7    1  0.2835316E-011  0.5052885E+02  0.7816164E-02  0.1300439E+00
        -11   -1    0    0    0    0  0.00000000000E+00  0.00000000000E+00  0.45593999997E+02  0.45594000000E+02  0.51100000000E-03 0.  1.
         11   -1    0    0    0    0 -0.00000000000E+00 -0.00000000000E+00 -0.45593999997E+02  0.45594000000E+02  0.51100000000E-03 0. -1.
    9900012    2    1    2    0    0  0.30998483635E+02 -0.15446744376E+02 -0.21299266768E+02  0.50528847718E+02  0.29999963123E+02 0.  0.
        -12    1    1    2    0    0 -0.30998483635E+02  0.15446744376E+02  0.21299266768E+02  0.40659152282E+02  0.00000000000E+00 0.  1.
         11    1    3    3    0    0  0.15807419460E+02 -0.19936792244E+02 -0.65677248559E+01  0.26277085170E+02  0.51100000000E-03 0. -1.
        -11    1    3    3    0    0  0.38735933047E+01  0.19058700244E+00  0.13641611317E+01  0.41112022998E+01  0.51100000000E-03 0.  1.
         12    1    3    3    0    0  0.11317470870E+02  0.42994608660E+01 -0.16095703044E+02  0.20140560248E+02  0.00000000000E+00 0. -1.
</event>
<event>
 7    1  0.2835316E-011  0.5052886E+02  0.7816164E-02  0.1300439E+00
        -11   -1    0    0    0    0  0.00000000000E+00  0.00000000000E+00  0.45593999997E+02  0.45594000000E+02  0.51100000000E-03 0.  1.
         11   -1    0    0    0    0 -0.00000000000E+00 -0.00000000000E+00 -0.45593999997E+02  0.45594000000E+02  0.51100000000E-03 0. -1.
    9900012    2    1    2    0    0 -0.10395223832E+02  0.36889755685E+02 -0.13573893333E+02  0.50528864086E+02  0.30000012877E+02 0.  0.
        -12    1    1    2    0    0  0.10395223832E+02 -0.36889755685E+02  0.13573893333E+02  0.40659135914E+02  0.00000000000E+00 0.  1.
         11    1    3    3    0    0  0.15028700716E+01  0.24589982591E+02 -0.67312969171E+01  0.25538915809E+02  0.51100000000E-03 0. -1.
        -11    1    3    3    0    0 -0.12331520450E+02  0.14060445449E+02 -0.10105141907E+02  0.21257384977E+02  0.51100000000E-03 0.  1.
        -12    1    3    3    0    0  0.43342654635E+00 -0.17606723547E+01  0.32625454905E+01  0.37325633001E+01  0.00000000000E+00 0.  1.
</event>
<event>
 7    1  0.2835316E-011  0.5052886E+02  0.7816164E-02  0.1300439E+00
        -11   -1    0    0    0    0  0.00000000000E+00  0.00000000000E+00  0.45593999997E+02  0.45594000000E+02  0.51100000000E-03 0.  1.
         11   -1    0    0    0    0 -0.00000000000E+00 -0.00000000000E+00 -0.45593999997E+02  0.45594000000E+02  0.51100000000E-03 0. -1.
    9900012    2    1    2    0    0  0.30821417913E+02  0.25865989658E+02  0.58443506566E+01  0.50528860095E+02  0.30000000746E+02 0.  0.
        -12    1    1    2    0    0 -0.30821417913E+02 -0.25865989658E+02 -0.58443506566E+01  0.40659139905E+02  0.00000000000E+00 0.  1.
         11    1    3    3    0    0  0.26686102203E+02  0.16017165231E+02  0.11300875908E+02  0.33112043569E+02  0.51100000000E-03 0. -1.
        -11    1    3    3    0    0  0.34204204796E+01  0.87179995263E+01  0.22200612893E+01  0.96245241122E+01  0.51100000000E-03 0.  1.
         12    1    3    3    0    0  0.71489523116E+00  0.11308249007E+01 -0.76765865405E+01  0.77922924137E+01  0.00000000000E+00 0. -1.
</event>
<event>
 7    1  0.4047971E-011  0.5052886E+02  0.7816164E-02  0.1300439E+00
        -11   -1    0    0    0    0  0.00000000000E+00  0.00000000000E+00  0.45593999997E+02  0.45594000000E+02  0.51100000000E-03 0. -1.
         11   -1    0    0    0    0 -0.00000000000E+00 -0.00000000000E+00 -0.45593999997E+02  0.45594000000E+02  0.51100000000E-03 0.  1.
    9900012    2    1    2    0    0  0.35016792873E+02  0.18630004002E+02  0.89393814710E+01  0.50528863594E+02  0.30000011380E+02 0.  0.
        -12    1    1    2    0    0 -0.35016792873E+02 -0.18630004002E+02 -0.89393814710E+01  0.40659136406E+02  0.00000000000E+00 0.  1.
         11    1    3    3    0    0  0.90119525548E+01  0.63193316394E+01  0.13538501860E+02  0.17448216931E+02  0.51100000000E-03 0. -1.
        -11    1    3    3    0    0 -0.33396217033E-01 -0.16187047728E+01 -0.31183479962E+01  0.35136042656E+01  0.51100000000E-03 0.  1.
         12    1    3    3    0    0  0.26038236535E+02  0.13929377135E+02 -0.14807723923E+01  0.29567042397E+02  0.00000000000E+00 0. -1.
</event>
<event>
 7    1  0.2835316E-011  0.5052886E+02  0.7816164E-02  0.1300439E+00
        -11   -1    0    0    0    0  0.00000000000E+00  0.00000000000E+00  0.45593999997E+02  0.45594000000E+02  0.51100000000E-03 0.  1.
         11   -1    0    0    0    0 -0.00000000000E+00 -0.00000000000E+00 -0.45593999997E+02  0.45594000000E+02  0.51100000000E-03 0. -1.
    9900012    2    1    2    0    0  0.18859163294E+02  0.56821221712E+01 -0.35569808405E+02  0.50528858070E+02  0.29999994590E+02 0.  0.
        -12    1    1    2    0    0 -0.18859163294E+02 -0.56821221712E+01  0.35569808405E+02  0.40659141930E+02  0.00000000000E+00 0.  1.
         11    1    3    3    0    0  0.51414976411E+01 -0.68244695924E+01 -0.13921648553E+01  0.86571650357E+01  0.51100000000E-03 0.  1.
        -11    1    3    3    0    0  0.10196947724E+02  0.38065826295E+01 -0.65726535674E+01  0.12714857033E+02  0.51100000000E-03 0. -1.
         12    1    3    3    0    0  0.35207179288E+01  0.87000091340E+01 -0.27604989982E+02  0.29156836001E+02  0.00000000000E+00 0. -1.
</event>
<event>
 7    1  0.2835316E-011  0.5052886E+02  0.7816164E-02  0.1300439E+00
        -11   -1    0    0    0    0  0.00000000000E+00  0.00000000000E+00  0.45593999997E+02  0.45594000000E+02  0.51100000000E-03 0. -1.
         11   -1    0    0    0    0 -0.00000000000E+00 -0.00000000000E+00 -0.45593999997E+02  0.45594000000E+02  0.51100000000E-03 0.  1.
    9900012    2    1    2    0    0 -0.10968768326E+02  0.15279067014E+02  0.36047218818E+02  0.50528858938E+02  0.29999997227E+02 0.  0.
        -12    1    1    2    0    0  0.10968768326E+02 -0.15279067014E+02 -0.36047218818E+02  0.40659141062E+02  0.00000000000E+00 0.  1.
         11    1    3    3    0    0 -0.82292053293E+01 -0.14973150019E+01  0.72167593820E+01  0.11047324962E+02  0.51100000000E-03 0. -1.
        -11    1    3    3    0    0 -0.82101570914E+01  0.12003034127E+02  0.28752392268E+02  0.32220794048E+02  0.51100000000E-03 0.  1.
        -12    1    3    3    0    0  0.54705940946E+01  0.47733478895E+01  0.78067168113E-01  0.72607399282E+01  0.00000000000E+00 0.  1.
</event>
<event>
 7    1  0.2835316E-011  0.5052887E+02  0.7816164E-02  0.1300439E+00
        -11   -1    0    0    0    0  0.00000000000E+00  0.00000000000E+00  0.45593999997E+02  0.45594000000E+02  0.51100000000E-03 0. -1.
         11   -1    0    0    0    0 -0.00000000000E+00 -0.00000000000E+00 -0.45593999997E+02  0.45594000000E+02  0.51100000000E-03 0.  1.
    9900012    2    1    2    0    0  0.72340003362E+01  0.62627557468E+01  0.39517240338E+02  0.50528866286E+02  0.30000019563E+02 0.  0.
        -12    1    1    2    0    0 -0.72340003362E+01 -0.62627557468E+01 -0.39517240338E+02  0.40659133714E+02  0.00000000000E+00 0.  1.
         11    1    3    3    0    0 -0.27999471814E+01  0.15803510111E+01  0.57564467469E+01  0.65934735116E+01  0.51100000000E-03 0.  1.
        -11    1    3    3    0    0  0.10879624401E+02 -0.17424216023E+01  0.16067061150E+01  0.11134799726E+02  0.51100000000E-03 0. -1.
         12    1    3    3    0    0 -0.84567688341E+00  0.64248263380E+01  0.32154087476E+02  0.32800593048E+02  0.00000000000E+00 0. -1.
</event>
<event>
 7    1  0.2835316E-011  0.5052888E+02  0.7816164E-02  0.1300439E+00
        -11   -1    0    0    0    0  0.00000000000E+00  0.00000000000E+00  0.45593999997E+02  0.45594000000E+02  0.51100000000E-03 0.  1.
         11   -1    0    0    0    0 -0.00000000000E+00 -0.00000000000E+00 -0.45593999997E+02  0.45594000000E+02  0.51100000000E-03 0. -1.
    9900012    2    1    2    0    0 -0.32919866889E+02  0.23648713398E+02  0.31913001876E+01  0.50528884439E+02  0.30000074740E+02 0.  0.
        -12    1    1    2    0    0  0.32919866889E+02 -0.23648713398E+02 -0.31913001876E+01  0.40659115561E+02  0.00000000000E+00 0.  1.
         11    1    3    3    0    0 -0.20013509616E+01 -0.81280939311E+00 -0.70245521585E+01  0.73491766934E+01  0.51100000000E-03 0. -1.
        -11    1    3    3    0    0 -0.26390894911E+01  0.84738561622E+01 -0.71518846985E+00  0.89040735851E+01  0.51100000000E-03 0.  1.
         12    1    3    3    0    0 -0.28279426436E+02  0.15987666628E+02  0.10931040816E+02  0.34275634160E+02  0.00000000000E+00 0. -1.
</event>
<event>
 7    1  0.2835316E-011  0.5052886E+02  0.7816164E-02  0.1300439E+00
        -11   -1    0    0    0    0  0.00000000000E+00  0.00000000000E+00  0.45593999997E+02  0.45594000000E+02  0.51100000000E-03 0. -1.
         11   -1    0    0    0    0 -0.00000000000E+00 -0.00000000000E+00 -0.45593999997E+02  0.45594000000E+02  0.51100000000E-03 0.  1.
    9900012    2    1    2    0    0 -0.24284786806E+02  0.12443511225E+02  0.30142562397E+02  0.50528856998E+02  0.29999991331E+02 0.  0.
        -12    1    1    2    0    0  0.24284786806E+02 -0.12443511225E+02 -0.30142562397E+02  0.40659143002E+02  0.00000000000E+00 0.  1.
         11    1    3    3    0    0 -0.69740708983E+01 -0.57826705659E+01  0.19931238254E+02  0.21893633832E+02  0.51100000000E-03 0. -1.
        -11    1    3    3    0    0 -0.14302879210E+01  0.59724355987E+01  0.31435152410E-01  0.61413922646E+01  0.51100000000E-03 0.  1.
        -12    1    3    3    0    0 -0.15880427987E+02  0.12253746192E+02  0.10179888991E+02  0.22493830902E+02  0.00000000000E+00 0.  1.
</event>
<event>
 7    1  0.2835316E-011  0.5052887E+02  0.7816164E-02  0.1300439E+00
        -11   -1    0    0    0    0  0.00000000000E+00  0.00000000000E+00  0.45593999997E+02  0.45594000000E+02  0.51100000000E-03 0.  1.
         11   -1    0    0    0    0 -0.00000000000E+00 -0.00000000000E+00 -0.45593999997E+02  0.45594000000E+02  0.51100000000E-03 0. -1.
    9900012    2    1    2    0    0 -0.25514094619E+02 -0.28655278312E+02 -0.13456257681E+02  0.50528869781E+02  0.30000030187E+02 0.  0.
        -12    1    1    2    0    0  0.25514094619E+02  0.28655278312E+02  0.13456257681E+02  0.40659130219E+02  0.00000000000E+00 0.  1.
         11    1    3    3    0    0 -0.15963810515E+02 -0.13429765672E+02 -0.32463120447E+01  0.21112564844E+02  0.51100000000E-03 0. -1.
        -11    1    3    3    0    0 -0.48741316641E+01 -0.15511061457E+02  0.19592489343E+01  0.16376472259E+02  0.51100000000E-03 0.  1.
        -12    1    3    3    0    0 -0.46761524396E+01  0.28554881640E+00 -0.12169194570E+02  0.13039832677E+02  0.00000000000E+00 0.  1.
</event>
<event>
 7    1  0.2835316E-011  0.5052886E+02  0.7816164E-02  0.1300439E+00
        -11   -1    0    0    0    0  0.00000000000E+00  0.00000000000E+00  0.45593999997E+02  0.45594000000E+02  0.51100000000E-03 0.  1.
         11   -1    0    0    0    0 -0.00000000000E+00 -0.00000000000E+00 -0.45593999997E+02  0.45594000000E+02  0.51100000000E-03 0. -1.
    9900012    2    1    2    0    0 -0.30403589718E+02  0.24347083892E+02 -0.11662205241E+02  0.50528858434E+02  0.29999995696E+02 0.  0.
        -12    1    1    2    0    0  0.30403589718E+02 -0.24347083892E+02  0.11662205241E+02  0.40659141566E+02  0.00000000000E+00 0.  1.
         11    1    3    3    0    0 -0.59157238958E+01  0.11632195135E+02 -0.33243938348E+00  0.13054281638E+02  0.51100000000E-03 0. -1.
        -11    1    3    3    0    0  0.18656398228E+01 -0.35001422642E+01 -0.40881996429E+01  0.56960498944E+01  0.51100000000E-03 0.  1.
         12    1    3    3    0    0 -0.26353505645E+02  0.16215031021E+02 -0.72415662149E+01  0.31778526902E+02  0.00000000000E+00 0. -1.
</event>
<event>
 7    1  0.2835316E-011  0.5052887E+02  0.7816164E-02  0.1300439E+00
        -11   -1    0    0    0    0  0.00000000000E+00  0.00000000000E+00  0.45593999997E+02  0.45594000000E+02  0.51100000000E-03 0.  1.
         11   -1    0    0    0    0 -0.00000000000E+00 -0.00000000000E+00 -0.45593999997E+02  0.45594000000E+02  0.51100000000E-03 0. -1.
    9900012    2    1    2    0    0 -0.34015858716E+02 -0.44687576394E+01 -0.21820096054E+02  0.50528867805E+02  0.30000024179E+02 0.  0.
        -12    1    1    2    0    0  0.34015858716E+02  0.44687576394E+01  0.21820096054E+02  0.40659132195E+02  0.00000000000E+00 0.  1.
         11    1    3    3    0    0 -0.57606911796E+01  0.70955265547E+01 -0.12268121524E+01  0.92215578008E+01  0.51100000000E-03 0. -1.
        -11    1    3    3    0    0  0.75620682391E+00  0.52551383809E+00 -0.70062963555E+01  0.70665552030E+01  0.51100000000E-03 0.  1.
         12    1    3    3    0    0 -0.29011374361E+02 -0.12089798032E+02 -0.13586987546E+02  0.34240754801E+02  0.00000000000E+00 0. -1.
</event>
<event>
 7    1  0.2835316E-011  0.5052888E+02  0.7816164E-02  0.1300439E+00
        -11   -1    0    0    0    0  0.00000000000E+00  0.00000000000E+00  0.45593999997E+02  0.45594000000E+02  0.51100000000E-03 0.  1.
         11   -1    0    0    0    0 -0.00000000000E+00 -0.00000000000E+00 -0.45593999997E+02  0.45594000000E+02  0.51100000000E-03 0. -1.
    9900012    2    1    2    0    0  0.38953372095E+02 -0.92473554016E+01  0.70912065832E+01  0.50528880601E+02  0.30000063074E+02 0.  0.
        -12    1    1    2    0    0 -0.38953372095E+02  0.92473554016E+01 -0.70912065832E+01  0.40659119399E+02  0.00000000000E+00 0.  1.
         11    1    3    3    0    0  0.91238881731E+01 -0.40863275441E+00 -0.31244835820E+01  0.96527050114E+01  0.51100000000E-03 0. -1.
        -11    1    3    3    0    0 -0.18450056011E+01 -0.73485892520E+01  0.39834662778E+01  0.85600124714E+01  0.51100000000E-03 0.  1.
         12    1    3    3    0    0  0.31674489523E+02 -0.14901333952E+01  0.62322238873E+01  0.32316163118E+02  0.00000000000E+00 0. -1.
</event>
<event>
 7    1  0.2835316E-011  0.5052886E+02  0.7816164E-02  0.1300439E+00
        -11   -1    0    0    0    0  0.00000000000E+00  0.00000000000E+00  0.45593999997E+02  0.45594000000E+02  0.51100000000E-03 0.  1.
         11   -1    0    0    0    0 -0.00000000000E+00 -0.00000000000E+00 -0.45593999997E+02  0.45594000000E+02  0.51100000000E-03 0. -1.
    9900012    2    1    2    0    0  0.19912222073E+02  0.33026002712E+02 -0.12882231816E+02  0.50528864008E+02  0.30000012640E+02 0.  0.
        -12    1    1    2    0    0 -0.19912222073E+02 -0.33026002712E+02  0.12882231816E+02  0.40659135992E+02  0.00000000000E+00 0.  1.
         11    1    3    3    0    0  0.16187658908E+01  0.79230284347E+01 -0.12152211650E+02  0.14596952793E+02  0.51100000000E-03 0. -1.
        -11    1    3    3    0    0  0.15692170706E+02  0.64595954066E+01 -0.18760128572E+01  0.17073078773E+02  0.51100000000E-03 0.  1.
         12    1    3    3    0    0  0.26012854763E+01  0.18643378871E+02  0.11459926913E+01  0.18858832442E+02  0.00000000000E+00 0. -1.
</event>
<event>
 7    1  0.2835316E-011  0.5052886E+02  0.7816164E-02  0.1300439E+00
        -11   -1    0    0    0    0  0.00000000000E+00  0.00000000000E+00  0.45593999997E+02  0.45594000000E+02  0.51100000000E-03 0.  1.
         11   -1    0    0    0    0 -0.00000000000E+00 -0.00000000000E+00 -0.45593999997E+02  0.45594000000E+02  0.51100000000E-03 0. -1.
    9900012    2    1    2    0    0  0.11611604985E+02  0.37706211738E+02 -0.98273929984E+01  0.50528862932E+02  0.30000009368E+02 0.  0.
        -12    1    1    2    0    0 -0.11611604985E+02 -0.37706211738E+02  0.98273929984E+01  0.40659137068E+02  0.00000000000E+00 0.  1.
         11    1    3    3    0    0  0.13696639640E+02  0.14831033628E+02 -0.71391641572E+01  0.21413200625E+02  0.51100000000E-03 0. -1.
        -11    1    3    3    0    0  0.45830425546E+00  0.15749380042E+02  0.66457885373E+01  0.17100278361E+02  0.51100000000E-03 0.  1.
         12    1    3    3    0    0 -0.25433389108E+01  0.71257980685E+01 -0.93340173785E+01  0.12015383945E+02  0.00000000000E+00 0. -1.
</event>
<event>
 7    1  0.2835316E-011  0.5052886E+02  0.7816164E-02  0.1300439E+00
        -11   -1    0    0    0    0  0.00000000000E+00  0.00000000000E+00  0.45593999997E+02  0.45594000000E+02  0.51100000000E-03 0. -1.
         11   -1    0    0    0    0 -0.00000000000E+00 -0.00000000000E+00 -0.45593999997E+02  0.45594000000E+02  0.51100000000E-03 0.  1.
    9900012    2    1    2    0    0 -0.13799534906E+02  0.11878561711E+02  0.36354343193E+02  0.50528860056E+02  0.30000000627E+02 0.  0.
        -12    1    1    2    0    0  0.13799534906E+02 -0.11878561711E+02 -0.36354343193E+02  0.40659139944E+02  0.00000000000E+00 0.  1.
         11    1    3    3    0    0 -0.13683028549E+02  0.34338105193E+01  0.78398642801E+01  0.16139386517E+02  0.51100000000E-03 0. -1.
        -11    1    3    3    0    0 -0.84506905555E+01  0.53638882333E+01  0.18239933171E+02  0.20805783575E+02  0.51100000000E-03 0.  1.
        -12    1    3    3    0    0  0.83341841984E+01  0.30808629580E+01  0.10274545743E+02  0.13583689964E+02  0.00000000000E+00 0.  1.
</event>
<event>
 7    1  0.2835316E-011  0.5052885E+02  0.7816164E-02  0.1300439E+00
        -11   -1    0    0    0    0  0.00000000000E+00  0.00000000000E+00  0.45593999997E+02  0.45594000000E+02  0.51100000000E-03 0. -1.
         11   -1    0    0    0    0 -0.00000000000E+00 -0.00000000000E+00 -0.45593999997E+02  0.45594000000E+02  0.51100000000E-03 0.  1.
    9900012    2    1    2    0    0  0.33095153894E+02 -0.29250304738E+01  0.23437600972E+02  0.50528853995E+02  0.29999982203E+02 0.  0.
        -12    1    1    2    0    0 -0.33095153894E+02  0.29250304738E+01 -0.23437600972E+02  0.40659146005E+02  0.00000000000E+00 0.  1.
         11    1    3    3    0    0  0.17825423683E+02 -0.30037058916E+01 -0.12976296572E+00  0.18077190525E+02  0.51100000000E-03 0. -1.
        -11    1    3    3    0    0  0.15844179395E+02  0.55646514247E+01  0.17765694868E+02  0.24446334707E+02  0.51100000000E-03 0.  1.
        -12    1    3    3    0    0 -0.57444918444E+00 -0.54859760070E+01  0.58016690701E+01  0.80053287636E+01  0.00000000000E+00 0.  1.
</event>
<event>
 7    1  0.2835316E-011  0.5052884E+02  0.7816164E-02  0.1300439E+00
        -11   -1    0    0    0    0  0.00000000000E+00  0.00000000000E+00  0.45593999997E+02  0.45594000000E+02  0.51100000000E-03 0.  1.
         11   -1    0    0    0    0 -0.00000000000E+00 -0.00000000000E+00 -0.45593999997E+02  0.45594000000E+02  0.51100000000E-03 0. -1.
    9900012    2    1    2    0    0  0.30803359854E+01 -0.33079736759E+02 -0.23439492677E+02  0.50528840260E+02  0.29999940454E+02 0.  0.
        -12    1    1    2    0    0 -0.30803359854E+01  0.33079736759E+02  0.23439492677E+02  0.40659159740E+02  0.00000000000E+00 0.  1.
         11    1    3    3    0    0  0.54737236841E+01 -0.14708081996E+02 -0.16519039330E+02  0.22785258121E+02  0.51100000000E-03 0. -1.
        -11    1    3    3    0    0  0.81073671634E+01 -0.10294120368E+02 -0.61452364936E+01  0.14472810657E+02  0.51100000000E-03 0.  1.
         12    1    3    3    0    0 -0.10500754862E+02 -0.80775343948E+01 -0.77521685303E+00  0.13270771483E+02  0.00000000000E+00 0. -1.
</event>
<event>
 7    1  0.2835316E-011  0.5052886E+02  0.7816164E-02  0.1300439E+00
        -11   -1    0    0    0    0  0.00000000000E+00  0.00000000000E+00  0.45593999997E+02  0.45594000000E+02  0.51100000000E-03 0.  1.
         11   -1    0    0    0    0 -0.00000000000E+00 -0.00000000000E+00 -0.45593999997E+02  0.45594000000E+02  0.51100000000E-03 0. -1.
    9900012    2    1    2    0    0  0.32030397295E+02  0.18402623060E+02 -0.16987145162E+02  0.50528856045E+02  0.29999988436E+02 0.  0.
        -12    1    1    2    0    0 -0.32030397295E+02 -0.18402623060E+02  0.16987145162E+02  0.40659143955E+02  0.00000000000E+00 0.  1.
         11    1    3    3    0    0  0.91855883398E+01  0.81287848433E+01 -0.15042418515E+02  0.19409444382E+02  0.51100000000E-03 0. -1.
        -11    1    3    3    0    0  0.22458326415E+01  0.53646800030E+01 -0.72447845030E+01  0.92903422189E+01  0.51100000000E-03 0.  1.
        -12    1    3    3    0    0  0.20598976314E+02  0.49091582133E+01  0.53000578559E+01  0.21829069444E+02  0.00000000000E+00 0.  1.
</event>
<event>
 7    1  0.2835316E-011  0.5052886E+02  0.7816164E-02  0.1300439E+00
        -11   -1    0    0    0    0  0.00000000000E+00  0.00000000000E+00  0.45593999997E+02  0.45594000000E+02  0.51100000000E-03 0. -1.
         11   -1    0    0    0    0 -0.00000000000E+00 -0.00000000000E+00 -0.45593999997E+02  0.45594000000E+02  0.51100000000E-03 0.  1.
    9900012    2    1    2    0    0  0.26643225029E+02  0.27174011856E+02 -0.14313545603E+02  0.50528856526E+02  0.29999989897E+02 0.  0.
        -12    1    1    2    0    0 -0.26643225029E+02 -0.27174011856E+02  0.14313545603E+02  0.40659143474E+02  0.00000000000E+00 0.  1.
         11    1    3    3    0    0  0.11749652101E+02  0.51077687433E+00 -0.56000213602E+01  0.13025953209E+02  0.51100000000E-03 0. -1.
        -11    1    3    3    0    0  0.45700459668E+01  0.11285406915E+01  0.48869264690E+01  0.67853500135E+01  0.51100000000E-03 0.  1.
        -12    1    3    3    0    0  0.10323526961E+02  0.25534694290E+02 -0.13600450712E+02  0.30717553304E+02  0.00000000000E+00 0.  1.
</event>
<event>
 7    1  0.2835316E-011  0.5052886E+02  0.7816164E-02  0.1300439E+00
        -11   -1    0    0    0    0  0.00000000000E+00  0.00000000000E+00  0.45593999997E+02  0.45594000000E+02  0.51100000000E-03 0.  1.
         11   -1    0    0    0    0 -0.00000000000E+00 -0.00000000000E+00 -0.45593999997E+02  0.45594000000E+02  0.51100000000E-03 0. -1.
    9900012    2    1    2    0    0 -0.23879059432E+00 -0.39155683424E+02  0.10951744723E+02  0.50528864768E+02  0.30000014949E+02 0.  0.
        -12    1    1    2    0    0  0.23879059432E+00  0.39155683424E+02 -0.10951744723E+02  0.40659135232E+02  0.00000000000E+00 0.  1.
         11    1    3    3    0    0  0.29898156353E+01 -0.33810946947E+02 -0.11111474940E+01  0.33961062704E+02  0.51100000000E-03 0. -1.
        -11    1    3    3    0    0 -0.22915514126E+00  0.41811744850E+00 -0.14758661926E+01  0.15509724559E+01  0.51100000000E-03 0.  1.
        -12    1    3    3    0    0 -0.29994510884E+01 -0.57628539257E+01  0.13538758410E+02  0.15016829608E+02  0.00000000000E+00 0.  1.
</event>
<event>
 7    1  0.2835316E-011  0.5052886E+02  0.7816164E-02  0.1300439E+00
        -11   -1    0    0    0    0  0.00000000000E+00  0.00000000000E+00  0.45593999997E+02  0.45594000000E+02  0.51100000000E-03 0.  1.
         11   -1    0    0    0    0 -0.00000000000E+00 -0.00000000000E+00 -0.45593999997E+02  0.45594000000E+02  0.51100000000E-03 0. -1.
    9900012    2    1    2    0    0  0.22669710506E+02 -0.32826871951E+02  0.78515134049E+01  0.50528861307E+02  0.30000004428E+02 0.  0.
        -12    1    1    2    0    0 -0.22669710506E+02  0.32826871951E+02 -0.78515134049E+01  0.40659138693E+02  0.00000000000E+00 0.  1.
         11    1    3    3    0    0  0.14908268206E+02 -0.13402396006E+02  0.36600915454E+01  0.20378345124E+02  0.51100000000E-03 0. -1.
        -11    1    3    3    0    0  0.57355897093E+01 -0.18828358320E+02  0.11326916271E+02  0.22709097270E+02  0.51100000000E-03 0.  1.
         12    1    3    3    0    0  0.20258525910E+01 -0.59611762493E+00 -0.71354944114E+01  0.74414189130E+01  0.00000000000E+00 0. -1.
</event>
<event>
 7    1  0.2835316E-011  0.5052886E+02  0.7816164E-02  0.1300439E+00
        -11   -1    0    0    0    0  0.00000000000E+00  0.00000000000E+00  0.45593999997E+02  0.45594000000E+02  0.51100000000E-03 0.  1.
         11   -1    0    0    0    0 -0.00000000000E+00 -0.00000000000E+00 -0.45593999997E+02  0.45594000000E+02  0.51100000000E-03 0. -1.
    9900012    2    1    2    0    0  0.37073325210E+02 -0.10322498132E+02 -0.13121748892E+02  0.50528859530E+02  0.29999999027E+02 0.  0.
        -12    1    1    2    0    0 -0.37073325210E+02  0.10322498132E+02  0.13121748892E+02  0.40659140470E+02  0.00000000000E+00 0.  1.
         11    1    3    3    0    0  0.27016428371E+02 -0.17274941789E+02 -0.40409979854E+01  0.32320901608E+02  0.51100000000E-03 0. -1.
        -11    1    3    3    0    0  0.14348388278E+01  0.11281122908E+00  0.20827893919E+01  0.25316991819E+01  0.51100000000E-03 0.  1.
         12    1    3    3    0    0  0.86220580110E+01  0.68396324283E+01 -0.11163540298E+02  0.15676258740E+02  0.00000000000E+00 0. -1.
</event>
<event>
 7    1  0.2835316E-011  0.5052887E+02  0.7816164E-02  0.1300439E+00
        -11   -1    0    0    0    0  0.00000000000E+00  0.00000000000E+00  0.45593999997E+02  0.45594000000E+02  0.51100000000E-03 0. -1.
         11   -1    0    0    0    0 -0.00000000000E+00 -0.00000000000E+00 -0.45593999997E+02  0.45594000000E+02  0.51100000000E-03 0.  1.
    9900012    2    1    2    0    0  0.17918393079E+02  0.36466710584E+02 -0.15083080362E+01  0.50528870835E+02  0.30000033389E+02 0.  0.
        -12    1    1    2    0    0 -0.17918393079E+02 -0.36466710584E+02  0.15083080362E+01  0.40659129165E+02  0.00000000000E+00 0.  1.
         11    1    3    3    0    0  0.91188153803E+01  0.13938373904E+01  0.11023495283E+01  0.92903579777E+01  0.51100000000E-03 0.  1.
        -11    1    3    3    0    0  0.11936166187E+02  0.20418611910E+02 -0.85059182133E+01  0.25134486676E+02  0.51100000000E-03 0. -1.
         12    1    3    3    0    0 -0.31365884879E+01  0.14654261283E+02  0.58952606488E+01  0.16104026180E+02  0.00000000000E+00 0. -1.
</event>
<event>
 7    1  0.2835316E-011  0.5052887E+02  0.7816164E-02  0.1300439E+00
        -11   -1    0    0    0    0  0.00000000000E+00  0.00000000000E+00  0.45593999997E+02  0.45594000000E+02  0.51100000000E-03 0.  1.
         11   -1    0    0    0    0 -0.00000000000E+00 -0.00000000000E+00 -0.45593999997E+02  0.45594000000E+02  0.51100000000E-03 0. -1.
    9900012    2    1    2    0    0  0.10514291125E+02  0.32827715440E+02 -0.21562834583E+02  0.50528867519E+02  0.30000023310E+02 0.  0.
        -12    1    1    2    0    0 -0.10514291125E+02 -0.32827715440E+02  0.21562834583E+02  0.40659132481E+02  0.00000000000E+00 0.  1.
         11    1    3    3    0    0  0.13384704220E+02  0.25698151063E+02 -0.12278392627E+02  0.31469099143E+02  0.51100000000E-03 0. -1.
        -11    1    3    3    0    0  0.14827706170E+01  0.84578091969E+01 -0.11207528457E+02  0.14118846961E+02  0.51100000000E-03 0.  1.
         12    1    3    3    0    0 -0.43531837121E+01 -0.13282448205E+01  0.19230865011E+01  0.49409214146E+01  0.00000000000E+00 0. -1.
</event>
<event>
 7    1  0.2835316E-011  0.5052886E+02  0.7816164E-02  0.1300439E+00
        -11   -1    0    0    0    0  0.00000000000E+00  0.00000000000E+00  0.45593999997E+02  0.45594000000E+02  0.51100000000E-03 0. -1.
         11   -1    0    0    0    0 -0.00000000000E+00 -0.00000000000E+00 -0.45593999997E+02  0.45594000000E+02  0.51100000000E-03 0.  1.
    9900012    2    1    2    0    0 -0.32819785755E+02 -0.22042048703E+02  0.94960593324E+01  0.50528863377E+02  0.30000010721E+02 0.  0.
        -12    1    1    2    0    0  0.32819785755E+02  0.22042048703E+02 -0.94960593324E+01  0.40659136623E+02  0.00000000000E+00 0.  1.
         11    1    3    3    0    0 -0.15593671164E+02 -0.20093459945E+02  0.26487772039E+01  0.25571971646E+02  0.51100000000E-03 0. -1.
        -11    1    3    3    0    0 -0.19407514266E+02 -0.31177156787E+01  0.90537298230E+01  0.21641205720E+02  0.51100000000E-03 0.  1.
         12    1    3    3    0    0  0.21813996747E+01  0.11691269205E+01 -0.22064476944E+01  0.33156860112E+01  0.00000000000E+00 0. -1.
</event>
<event>
 7    1  0.2835316E-011  0.5052886E+02  0.7816164E-02  0.1300439E+00
        -11   -1    0    0    0    0  0.00000000000E+00  0.00000000000E+00  0.45593999997E+02  0.45594000000E+02  0.51100000000E-03 0.  1.
         11   -1    0    0    0    0 -0.00000000000E+00 -0.00000000000E+00 -0.45593999997E+02  0.45594000000E+02  0.51100000000E-03 0. -1.
    9900012    2    1    2    0    0  0.47721416394E+01 -0.40079475834E+02  0.49018571836E+01  0.50528856836E+02  0.29999990838E+02 0.  0.
        -12    1    1    2    0    0 -0.47721416394E+01  0.40079475834E+02 -0.49018571836E+01  0.40659143164E+02  0.00000000000E+00 0.  1.
         11    1    3    3    0    0  0.15167899975E+02 -0.24780776147E+02 -0.56738215206E+00  0.29059834460E+02  0.51100000000E-03 0. -1.
        -11    1    3    3    0    0 -0.74976854680E+00 -0.53714026869E+00 -0.20891328202E+01  0.22836700163E+01  0.51100000000E-03 0.  1.
         12    1    3    3    0    0 -0.96459897893E+01 -0.14761559419E+02  0.75583721558E+01  0.19185352359E+02  0.00000000000E+00 0. -1.
</event>
<event>
 7    1  0.2835316E-011  0.5052886E+02  0.7816164E-02  0.1300439E+00
        -11   -1    0    0    0    0  0.00000000000E+00  0.00000000000E+00  0.45593999997E+02  0.45594000000E+02  0.51100000000E-03 0. -1.
         11   -1    0    0    0    0 -0.00000000000E+00 -0.00000000000E+00 -0.45593999997E+02  0.45594000000E+02  0.51100000000E-03 0.  1.
    9900012    2    1    2    0    0 -0.17843547347E+02  0.34560022939E+02  0.11848145765E+02  0.50528856803E+02  0.29999990739E+02 0.  0.
        -12    1    1    2    0    0  0.17843547347E+02 -0.34560022939E+02 -0.11848145765E+02  0.40659143197E+02  0.00000000000E+00 0.  1.
         11    1    3    3    0    0 -0.52460221347E+01 -0.18019757370E+01  0.79074169439E+00  0.56029579226E+01  0.51100000000E-03 0.  1.
        -11    1    3    3    0    0  0.12136464408E+01  0.19488285287E+02  0.12313640011E+02  0.23084452164E+02  0.51100000000E-03 0. -1.
         12    1    3    3    0    0 -0.13811171653E+02  0.16873713388E+02 -0.12562359406E+01  0.21841446717E+02  0.00000000000E+00 0. -1.
</event>
<event>
 7    1  0.2835316E-011  0.5052885E+02  0.7816164E-02  0.1300439E+00
        -11   -1    0    0    0    0  0.00000000000E+00  0.00000000000E+00  0.45593999997E+02  0.45594000000E+02  0.51100000000E-03 0. -1.
         11   -1    0    0    0    0 -0.00000000000E+00 -0.00000000000E+00 -0.45593999997E+02  0.45594000000E+02  0.51100000000E-03 0.  1.
    9900012    2    1    2    0    0  0.21071592946E+02 -0.76817261252E+01  0.33913795811E+02  0.50528849839E+02  0.29999969569E+02 0.  0.
        -12    1    1    2    0    0 -0.21071592946E+02  0.76817261252E+01 -0.33913795811E+02  0.40659150161E+02  0.00000000000E+00 0.  1.
         11    1    3    3    0    0  0.41247400264E+01 -0.65518295567E+01  0.87910260852E+00  0.77918401217E+01  0.51100000000E-03 0. -1.
        -11    1    3    3    0    0  0.13374529205E+02 -0.99802918265E+01  0.25942068953E+02  0.30845991607E+02  0.51100000000E-03 0.  1.
        -12    1    3    3    0    0  0.35723237150E+01  0.88503952581E+01  0.70926242495E+01  0.11891018110E+02  0.00000000000E+00 0.  1.
</event>
<event>
 7    1  0.2835316E-011  0.5052886E+02  0.7816164E-02  0.1300439E+00
        -11   -1    0    0    0    0  0.00000000000E+00  0.00000000000E+00  0.45593999997E+02  0.45594000000E+02  0.51100000000E-03 0.  1.
         11   -1    0    0    0    0 -0.00000000000E+00 -0.00000000000E+00 -0.45593999997E+02  0.45594000000E+02  0.51100000000E-03 0. -1.
    9900012    2    1    2    0    0  0.15738877427E+02 -0.94014828430E+01 -0.36291398786E+02  0.50528858738E+02  0.29999996620E+02 0.  0.
        -12    1    1    2    0    0 -0.15738877427E+02  0.94014828430E+01  0.36291398786E+02  0.40659141262E+02  0.00000000000E+00 0.  1.
         11    1    3    3    0    0  0.10598878768E+02 -0.42576773794E+01 -0.75592377235E+01  0.13696938455E+02  0.51100000000E-03 0. -1.
        -11    1    3    3    0    0  0.48648141471E-01 -0.11518843184E+02 -0.66726574317E+01  0.13312042383E+02  0.51100000000E-03 0.  1.
         12    1    3    3    0    0  0.50913505168E+01  0.63750377202E+01 -0.22059503631E+02  0.23519877901E+02  0.00000000000E+00 0. -1.
</event>
<event>
 7    1  0.2835316E-011  0.5052892E+02  0.7816164E-02  0.1300439E+00
        -11   -1    0    0    0    0  0.00000000000E+00  0.00000000000E+00  0.45593999997E+02  0.45594000000E+02  0.51100000000E-03 0.  1.
         11   -1    0    0    0    0 -0.00000000000E+00 -0.00000000000E+00 -0.45593999997E+02  0.45594000000E+02  0.51100000000E-03 0. -1.
    9900012    2    1    2    0    0 -0.26733201148E+02 -0.16211843843E+02 -0.25993712329E+02  0.50528917312E+02  0.30000174660E+02 0.  0.
        -12    1    1    2    0    0  0.26733201148E+02  0.16211843843E+02  0.25993712329E+02  0.40659082688E+02  0.00000000000E+00 0.  1.
         11    1    3    3    0    0 -0.15148122888E+02  0.12133595933E+01  0.16182844996E+01  0.15282562400E+02  0.51100000000E-03 0.  1.
        -11    1    3    3    0    0 -0.50501938099E+01 -0.25470208259E+01 -0.71552447838E+01  0.91208168923E+01  0.51100000000E-03 0. -1.
        -12    1    3    3    0    0 -0.65348844505E+01 -0.14878182611E+02 -0.20456752045E+02  0.26125538019E+02  0.00000000000E+00 0.  1.
</event>
<event>
 7    1  0.2835316E-011  0.5052892E+02  0.7816164E-02  0.1300439E+00
        -11   -1    0    0    0    0  0.00000000000E+00  0.00000000000E+00  0.45593999997E+02  0.45594000000E+02  0.51100000000E-03 0.  1.
         11   -1    0    0    0    0 -0.00000000000E+00 -0.00000000000E+00 -0.45593999997E+02  0.45594000000E+02  0.51100000000E-03 0. -1.
    9900012    2    1    2    0    0 -0.37833603018E+02  0.11959835274E+02 -0.88736398056E+01  0.50528921548E+02  0.30000187538E+02 0.  0.
        -12    1    1    2    0    0  0.37833603018E+02 -0.11959835274E+02  0.88736398056E+01  0.40659078452E+02  0.00000000000E+00 0.  1.
         11    1    3    3    0    0 -0.20465063941E+02  0.80313403731E+01 -0.77796845439E+00  0.21998329606E+02  0.51100000000E-03 0. -1.
        -11    1    3    3    0    0 -0.20748502380E+02 -0.32024562855E+00 -0.96474939289E+01  0.22883991078E+02  0.51100000000E-03 0.  1.
        -12    1    3    3    0    0  0.33799633021E+01  0.42487405295E+01  0.15518225777E+01  0.56466008645E+01  0.00000000000E+00 0.  1.
</event>
<event>
 7    1  0.2835316E-011  0.5052887E+02  0.7816164E-02  0.1300439E+00
        -11   -1    0    0    0    0  0.00000000000E+00  0.00000000000E+00  0.45593999997E+02  0.45594000000E+02  0.51100000000E-03 0. -1.
         11   -1    0    0    0    0 -0.00000000000E+00 -0.00000000000E+00 -0.45593999997E+02  0.45594000000E+02  0.51100000000E-03 0.  1.
    9900012    2    1    2    0    0 -0.56338969973E+01 -0.40124615059E+02 -0.33822623187E+01  0.50528865388E+02  0.30000016832E+02 0.  0.
        -12    1    1    2    0    0  0.56338969973E+01  0.40124615059E+02  0.33822623187E+01  0.40659134612E+02  0.00000000000E+00 0.  1.
         11    1    3    3    0    0 -0.40225021351E+01 -0.27889526480E+01 -0.41624771748E+01  0.64253402082E+01  0.51100000000E-03 0. -1.
        -11    1    3    3    0    0  0.58499182098E+01 -0.49632718034E+01  0.69061348492E+01  0.10322320905E+02  0.51100000000E-03 0.  1.
         12    1    3    3    0    0 -0.74613130721E+01 -0.32372390608E+02 -0.61259199931E+01  0.33781204274E+02  0.00000000000E+00 0. -1.
</event>
<event>
 7    1  0.2835316E-011  0.5052885E+02  0.7816164E-02  0.1300439E+00
        -11   -1    0    0    0    0  0.00000000000E+00  0.00000000000E+00  0.45593999997E+02  0.45594000000E+02  0.51100000000E-03 0. -1.
         11   -1    0    0    0    0 -0.00000000000E+00 -0.00000000000E+00 -0.45593999997E+02  0.45594000000E+02  0.51100000000E-03 0.  1.
    9900012    2    1    2    0    0 -0.20816005092E+02 -0.23610807918E+02 -0.25736936401E+02  0.50528853257E+02  0.29999979961E+02 0.  0.
        -12    1    1    2    0    0  0.20816005092E+02  0.23610807918E+02  0.25736936401E+02  0.40659146743E+02  0.00000000000E+00 0.  1.
         11    1    3    3    0    0 -0.18699586787E+01  0.23048123219E+01 -0.75794055337E+01  0.81397969142E+01  0.51100000000E-03 0. -1.
        -11    1    3    3    0    0  0.31826091742E+01 -0.83060758024E+01 -0.90228437757E+01  0.12670106805E+02  0.51100000000E-03 0.  1.
         12    1    3    3    0    0 -0.22128655587E+02 -0.17609544438E+02 -0.91346870916E+01  0.29718949538E+02  0.00000000000E+00 0. -1.
</event>
<event>
 7    1  0.2835316E-011  0.5052887E+02  0.7816164E-02  0.1300439E+00
        -11   -1    0    0    0    0  0.00000000000E+00  0.00000000000E+00  0.45593999997E+02  0.45594000000E+02  0.51100000000E-03 0.  1.
         11   -1    0    0    0    0 -0.00000000000E+00 -0.00000000000E+00 -0.45593999997E+02  0.45594000000E+02  0.51100000000E-03 0. -1.
    9900012    2    1    2    0    0  0.28991448580E+02  0.12963413299E+02 -0.25389179791E+02  0.50528872789E+02  0.30000039329E+02 0.  0.
        -12    1    1    2    0    0 -0.28991448580E+02 -0.12963413299E+02  0.25389179791E+02  0.40659127211E+02  0.00000000000E+00 0.  1.
         11    1    3    3    0    0  0.61110032998E+01 -0.33248311898E+01 -0.18076222679E+02  0.19368755519E+02  0.51100000000E-03 0. -1.
        -11    1    3    3    0    0  0.71653816943E+00 -0.54196119792E-02  0.19947360506E+01  0.21195349710E+01  0.51100000000E-03 0.  1.
         12    1    3    3    0    0  0.22163907111E+02  0.16293664101E+02 -0.93076931628E+01  0.29040582299E+02  0.00000000000E+00 0. -1.
</event>
<event>
 7    1  0.2835316E-011  0.5052886E+02  0.7816164E-02  0.1300439E+00
        -11   -1    0    0    0    0  0.00000000000E+00  0.00000000000E+00  0.45593999997E+02  0.45594000000E+02  0.51100000000E-03 0.  1.
         11   -1    0    0    0    0 -0.00000000000E+00 -0.00000000000E+00 -0.45593999997E+02  0.45594000000E+02  0.51100000000E-03 0. -1.
    9900012    2    1    2    0    0  0.90465176184E+01  0.16788400917E+02 -0.35909274628E+02  0.50528857231E+02  0.29999992041E+02 0.  0.
        -12    1    1    2    0    0 -0.90465176184E+01 -0.16788400917E+02  0.35909274628E+02  0.40659142769E+02  0.00000000000E+00 0.  1.
         11    1    3    3    0    0  0.71718358262E+01 -0.29370456389E+01 -0.16987725792E+02  0.18672019013E+02  0.51100000000E-03 0. -1.
        -11    1    3    3    0    0 -0.63487853169E+01  0.39767986032E+01 -0.81962235785E+01  0.11104057067E+02  0.51100000000E-03 0.  1.
         12    1    3    3    0    0  0.82234671092E+01  0.15748647952E+02 -0.10725325258E+02  0.20752781151E+02  0.00000000000E+00 0. -1.
</event>
<event>
 7    1  0.2835316E-011  0.5052886E+02  0.7816164E-02  0.1300439E+00
        -11   -1    0    0    0    0  0.00000000000E+00  0.00000000000E+00  0.45593999997E+02  0.45594000000E+02  0.51100000000E-03 0. -1.
         11   -1    0    0    0    0 -0.00000000000E+00 -0.00000000000E+00 -0.45593999997E+02  0.45594000000E+02  0.51100000000E-03 0.  1.
    9900012    2    1    2    0    0 -0.20016737205E+02  0.31873486825E+02  0.15381058503E+02  0.50528857222E+02  0.29999992013E+02 0.  0.
        -12    1    1    2    0    0  0.20016737205E+02 -0.31873486825E+02 -0.15381058503E+02  0.40659142778E+02  0.00000000000E+00 0.  1.
         11    1    3    3    0    0 -0.31619982660E+01 -0.42836546308E+01  0.32136382945E+01  0.62189550069E+01  0.51100000000E-03 0. -1.
        -11    1    3    3    0    0 -0.76308266994E+01  0.77902138097E+01 -0.23199880477E+01  0.11148959239E+02  0.51100000000E-03 0.  1.
         12    1    3    3    0    0 -0.92239122401E+01  0.28366927646E+02  0.14487408256E+02  0.33160942976E+02  0.00000000000E+00 0. -1.
</event>
<event>
 7    1  0.2835316E-011  0.5052883E+02  0.7816164E-02  0.1300439E+00
        -11   -1    0    0    0    0  0.00000000000E+00  0.00000000000E+00  0.45593999997E+02  0.45594000000E+02  0.51100000000E-03 0. -1.
         11   -1    0    0    0    0 -0.00000000000E+00 -0.00000000000E+00 -0.45593999997E+02  0.45594000000E+02  0.51100000000E-03 0.  1.
    9900012    2    1    2    0    0  0.18533203313E+02 -0.28748613582E+02  0.21981934216E+02  0.50528833262E+02  0.29999919184E+02 0.  0.
        -12    1    1    2    0    0 -0.18533203313E+02  0.28748613582E+02 -0.21981934216E+02  0.40659166738E+02  0.00000000000E+00 0.  1.
         11    1    3    3    0    0  0.28474505896E+01 -0.13969233347E+02  0.14226270736E+01  0.14327292948E+02  0.51100000000E-03 0. -1.
        -11    1    3    3    0    0 -0.19637289248E+01  0.37479589092E-01 -0.27792341339E+01  0.34032012344E+01  0.51100000000E-03 0.  1.
         12    1    3    3    0    0  0.17649481649E+02 -0.14816859824E+02  0.23338541276E+02  0.32798339080E+02  0.00000000000E+00 0. -1.
</event>
<event>
 7    1  0.2835316E-011  0.5052885E+02  0.7816164E-02  0.1300439E+00
        -11   -1    0    0    0    0  0.00000000000E+00  0.00000000000E+00  0.45593999997E+02  0.45594000000E+02  0.51100000000E-03 0. -1.
         11   -1    0    0    0    0 -0.00000000000E+00 -0.00000000000E+00 -0.45593999997E+02  0.45594000000E+02  0.51100000000E-03 0.  1.
    9900012    2    1    2    0    0  0.27811373882E+02  0.29405078042E+02  0.38775524487E+01  0.50528849187E+02  0.29999967589E+02 0.  0.
        -12    1    1    2    0    0 -0.27811373882E+02 -0.29405078042E+02 -0.38775524487E+01  0.40659150813E+02  0.00000000000E+00 0.  1.
         11    1    3    3    0    0  0.20522333487E+00 -0.20750369383E+01  0.47173256985E+01  0.51576212462E+01  0.51100000000E-03 0. -1.
        -11    1    3    3    0    0  0.97582060495E-01  0.44112811413E+00 -0.37665194917E+01  0.37935188960E+01  0.51100000000E-03 0.  1.
         12    1    3    3    0    0  0.27508568486E+02  0.31038986866E+02  0.29267462419E+01  0.41577709045E+02  0.00000000000E+00 0. -1.
</event>
<event>
 7    1  0.2835316E-011  0.5052886E+02  0.7816164E-02  0.1300439E+00
        -11   -1    0    0    0    0  0.00000000000E+00  0.00000000000E+00  0.45593999997E+02  0.45594000000E+02  0.51100000000E-03 0.  1.
         11   -1    0    0    0    0 -0.00000000000E+00 -0.00000000000E+00 -0.45593999997E+02  0.45594000000E+02  0.51100000000E-03 0. -1.
    9900012    2    1    2    0    0 -0.91399643084E+01 -0.28626383873E+02 -0.27388990166E+02  0.50528861009E+02  0.30000003523E+02 0.  0.
        -12    1    1    2    0    0  0.91399643084E+01  0.28626383873E+02  0.27388990166E+02  0.40659138991E+02  0.00000000000E+00 0.  1.
         11    1    3    3    0    0 -0.11050073074E+02 -0.10540403435E+02 -0.14448061859E+01  0.15339220472E+02  0.51100000000E-03 0.  1.
        -11    1    3    3    0    0 -0.56412084961E+01 -0.30879600637E+01 -0.10840634065E+02  0.12604684758E+02  0.51100000000E-03 0. -1.
        -12    1    3    3    0    0  0.75513172613E+01 -0.14998020374E+02 -0.15103549915E+02  0.22584955779E+02  0.00000000000E+00 0.  1.
</event>
<event>
 7    1  0.2835316E-011  0.5052886E+02  0.7816164E-02  0.1300439E+00
        -11   -1    0    0    0    0  0.00000000000E+00  0.00000000000E+00  0.45593999997E+02  0.45594000000E+02  0.51100000000E-03 0.  1.
         11   -1    0    0    0    0 -0.00000000000E+00 -0.00000000000E+00 -0.45593999997E+02  0.45594000000E+02  0.51100000000E-03 0. -1.
    9900012    2    1    2    0    0  0.21558481370E+02 -0.20298092883E+02 -0.27863686271E+02  0.50528859499E+02  0.29999998934E+02 0.  0.
        -12    1    1    2    0    0 -0.21558481370E+02  0.20298092883E+02  0.27863686271E+02  0.40659140501E+02  0.00000000000E+00 0.  1.
         11    1    3    3    0    0 -0.67688557160E+00  0.11873747652E+01 -0.59583899524E+01  0.61131370012E+01  0.51100000000E-03 0. -1.
        -11    1    3    3    0    0 -0.55418433530E+00  0.18524286740E+01  0.28656458284E+01  0.34569550973E+01  0.51100000000E-03 0.  1.
         12    1    3    3    0    0  0.22789551276E+02 -0.23337896323E+02 -0.24770942147E+02  0.40958767401E+02  0.00000000000E+00 0. -1.
</event>
<event>
 7    1  0.2835316E-011  0.5052886E+02  0.7816164E-02  0.1300439E+00
        -11   -1    0    0    0    0  0.00000000000E+00  0.00000000000E+00  0.45593999997E+02  0.45594000000E+02  0.51100000000E-03 0.  1.
         11   -1    0    0    0    0 -0.00000000000E+00 -0.00000000000E+00 -0.45593999997E+02  0.45594000000E+02  0.51100000000E-03 0. -1.
    9900012    2    1    2    0    0  0.39034267368E+02 -0.53068192123E+01 -0.10066253028E+02  0.50528858234E+02  0.29999995088E+02 0.  0.
        -12    1    1    2    0    0 -0.39034267368E+02  0.53068192123E+01  0.10066253028E+02  0.40659141766E+02  0.00000000000E+00 0.  1.
         11    1    3    3    0    0  0.18691276177E+02  0.58666789583E+01 -0.15947397945E+02  0.25260665640E+02  0.51100000000E-03 0. -1.
        -11    1    3    3    0    0  0.19182857018E+01 -0.24762605936E+01  0.35916431637E+01  0.47656675753E+01  0.51100000000E-03 0.  1.
        -12    1    3    3    0    0  0.18424705490E+02 -0.86972375770E+01  0.22895017530E+01  0.20502525019E+02  0.00000000000E+00 0.  1.
</event>
<event>
 7    1  0.2835316E-011  0.5052887E+02  0.7816164E-02  0.1300439E+00
        -11   -1    0    0    0    0  0.00000000000E+00  0.00000000000E+00  0.45593999997E+02  0.45594000000E+02  0.51100000000E-03 0.  1.
         11   -1    0    0    0    0 -0.00000000000E+00 -0.00000000000E+00 -0.45593999997E+02  0.45594000000E+02  0.51100000000E-03 0. -1.
    9900012    2    1    2    0    0  0.25938324147E+02  0.16045545997E+02 -0.26886958482E+02  0.50528871353E+02  0.30000034966E+02 0.  0.
        -12    1    1    2    0    0 -0.25938324147E+02 -0.16045545997E+02  0.26886958482E+02  0.40659128647E+02  0.00000000000E+00 0.  1.
         11    1    3    3    0    0  0.20056045566E+02  0.50172030837E+01 -0.21175404621E+02  0.29594172596E+02  0.51100000000E-03 0.  1.
        -11    1    3    3    0    0  0.10380087703E+02  0.44588252268E+01 -0.63286669157E+01  0.12949106854E+02  0.51100000000E-03 0. -1.
        -12    1    3    3    0    0 -0.44978091214E+01  0.65695176864E+01  0.61711305505E+00  0.79855919034E+01  0.00000000000E+00 0.  1.
</event>
<event>
 7    1  0.2835316E-011  0.5052885E+02  0.7816164E-02  0.1300439E+00
        -11   -1    0    0    0    0  0.00000000000E+00  0.00000000000E+00  0.45593999997E+02  0.45594000000E+02  0.51100000000E-03 0.  1.
         11   -1    0    0    0    0 -0.00000000000E+00 -0.00000000000E+00 -0.45593999997E+02  0.45594000000E+02  0.51100000000E-03 0. -1.
    9900012    2    1    2    0    0  0.13919689238E+02  0.84908586147E+01 -0.37246659621E+02  0.50528854886E+02  0.29999984911E+02 0.  0.
        -12    1    1    2    0    0 -0.13919689238E+02 -0.84908586147E+01  0.37246659621E+02  0.40659145114E+02  0.00000000000E+00 0.  1.
         11    1    3    3    0    0  0.11314845372E+01  0.37589942965E+01  0.19924072214E+01  0.44022701162E+01  0.51100000000E-03 0. -1.
        -11    1    3    3    0    0 -0.20803255754E+01 -0.56244423270E+01 -0.77884975019E+01  0.98296896995E+01  0.51100000000E-03 0.  1.
         12    1    3    3    0    0  0.14868530277E+02  0.10356306645E+02 -0.31450569340E+02  0.36296895070E+02  0.00000000000E+00 0. -1.
</event>
<event>
 7    1  0.2835316E-011  0.5052887E+02  0.7816164E-02  0.1300439E+00
        -11   -1    0    0    0    0  0.00000000000E+00  0.00000000000E+00  0.45593999997E+02  0.45594000000E+02  0.51100000000E-03 0. -1.
         11   -1    0    0    0    0 -0.00000000000E+00 -0.00000000000E+00 -0.45593999997E+02  0.45594000000E+02  0.51100000000E-03 0.  1.
    9900012    2    1    2    0    0  0.96800857050E+01  0.13986410626E+00  0.39489765277E+02  0.50528865935E+02  0.30000018497E+02 0.  0.
        -12    1    1    2    0    0 -0.96800857050E+01 -0.13986410626E+00 -0.39489765277E+02  0.40659134065E+02  0.00000000000E+00 0.  1.
         11    1    3    3    0    0 -0.48330237958E+01  0.10170698388E+01  0.19479206676E+02  0.20095572722E+02  0.51100000000E-03 0. -1.
        -11    1    3    3    0    0  0.97177276058E+00 -0.76997420180E+01  0.70988428107E+01  0.10517791544E+02  0.51100000000E-03 0.  1.
        -12    1    3    3    0    0  0.13541336740E+02  0.68225362854E+01  0.12911715791E+02  0.19915501669E+02  0.00000000000E+00 0.  1.
</event>
<event>
 7    1  0.2835316E-011  0.5052887E+02  0.7816164E-02  0.1300439E+00
        -11   -1    0    0    0    0  0.00000000000E+00  0.00000000000E+00  0.45593999997E+02  0.45594000000E+02  0.51100000000E-03 0.  1.
         11   -1    0    0    0    0 -0.00000000000E+00 -0.00000000000E+00 -0.45593999997E+02  0.45594000000E+02  0.51100000000E-03 0. -1.
    9900012    2    1    2    0    0 -0.10087062287E+02 -0.37563677844E+02  0.11848476876E+02  0.50528866672E+02  0.30000020736E+02 0.  0.
        -12    1    1    2    0    0  0.10087062287E+02  0.37563677844E+02 -0.11848476876E+02  0.40659133328E+02  0.00000000000E+00 0.  1.
         11    1    3    3    0    0  0.94744939582E-01 -0.31856487543E+01 -0.38367945637E+01  0.49878178971E+01  0.51100000000E-03 0. -1.
        -11    1    3    3    0    0 -0.58776218049E+01 -0.33342879012E+02  0.53231130279E+01  0.34272869029E+02  0.51100000000E-03 0.  1.
        -12    1    3    3    0    0 -0.43041854217E+01 -0.10351500769E+01  0.10362158412E+02  0.11268179746E+02  0.00000000000E+00 0.  1.
</event>
<event>
 7    1  0.2835316E-011  0.5052886E+02  0.7816164E-02  0.1300439E+00
        -11   -1    0    0    0    0  0.00000000000E+00  0.00000000000E+00  0.45593999997E+02  0.45594000000E+02  0.51100000000E-03 0.  1.
         11   -1    0    0    0    0 -0.00000000000E+00 -0.00000000000E+00 -0.45593999997E+02  0.45594000000E+02  0.51100000000E-03 0. -1.
    9900012    2    1    2    0    0 -0.37818562405E+02  0.40131320007E+01 -0.14381130014E+02  0.50528858453E+02  0.29999995753E+02 0.  0.
        -12    1    1    2    0    0  0.37818562405E+02 -0.40131320007E+01  0.14381130014E+02  0.40659141547E+02  0.00000000000E+00 0.  1.
         11    1    3    3    0    0 -0.17419724765E+02 -0.52872539024E+01 -0.63187302270E+00  0.18215409095E+02  0.51100000000E-03 0. -1.
        -11    1    3    3    0    0 -0.11760659943E+02 -0.45506064632E+01 -0.36903175223E+01  0.13139238378E+02  0.51100000000E-03 0.  1.
         12    1    3    3    0    0 -0.86381776978E+01  0.13850992366E+02 -0.10058939469E+02  0.19174210980E+02  0.00000000000E+00 0. -1.
</event>
<event>
 7    1  0.2835316E-011  0.5052885E+02  0.7816164E-02  0.1300439E+00
        -11   -1    0    0    0    0  0.00000000000E+00  0.00000000000E+00  0.45593999997E+02  0.45594000000E+02  0.51100000000E-03 0. -1.
         11   -1    0    0    0    0 -0.00000000000E+00 -0.00000000000E+00 -0.45593999997E+02  0.45594000000E+02  0.51100000000E-03 0.  1.
    9900012    2    1    2    0    0  0.30728584481E+02 -0.22401820936E+02 -0.14390249128E+02  0.50528846597E+02  0.29999959716E+02 0.  0.
        -12    1    1    2    0    0 -0.30728584481E+02  0.22401820936E+02  0.14390249128E+02  0.40659153403E+02  0.00000000000E+00 0.  1.
         11    1    3    3    0    0  0.16169179225E+02 -0.62280871276E+01  0.18304784125E+01  0.17423606904E+02  0.51100000000E-03 0. -1.
        -11    1    3    3    0    0  0.11467984063E+02 -0.83099331186E+01  0.71327472444E+00  0.14180211846E+02  0.51100000000E-03 0.  1.
        -12    1    3    3    0    0  0.30914211936E+01 -0.78638006902E+01 -0.16934002265E+02  0.18925027847E+02  0.00000000000E+00 0.  1.
</event>
<event>
 7    1  0.2835316E-011  0.5052882E+02  0.7816164E-02  0.1300439E+00
        -11   -1    0    0    0    0  0.00000000000E+00  0.00000000000E+00  0.45593999997E+02  0.45594000000E+02  0.51100000000E-03 0.  1.
         11   -1    0    0    0    0 -0.00000000000E+00 -0.00000000000E+00 -0.45593999997E+02  0.45594000000E+02  0.51100000000E-03 0. -1.
    9900012    2    1    2    0    0  0.18406529801E+02 -0.33934479294E+01 -0.36095052941E+02  0.50528822993E+02  0.29999887968E+02 0.  0.
        -12    1    1    2    0    0 -0.18406529801E+02  0.33934479294E+01  0.36095052941E+02  0.40659177007E+02  0.00000000000E+00 0.  1.
         11    1    3    3    0    0  0.59698458893E+01  0.75194428979E+01 -0.20533246339E+02  0.22667052895E+02  0.51100000000E-03 0. -1.
        -11    1    3    3    0    0  0.10703783020E+02  0.10900513288E+01 -0.92572892134E+01  0.14193540315E+02  0.51100000000E-03 0.  1.
        -12    1    3    3    0    0  0.17329008915E+01 -0.12002942156E+02 -0.63045173876E+01  0.13668229783E+02  0.00000000000E+00 0.  1.
</event>
<event>
 7    1  0.2835316E-011  0.5052887E+02  0.7816164E-02  0.1300439E+00
        -11   -1    0    0    0    0  0.00000000000E+00  0.00000000000E+00  0.45593999997E+02  0.45594000000E+02  0.51100000000E-03 0.  1.
         11   -1    0    0    0    0 -0.00000000000E+00 -0.00000000000E+00 -0.45593999997E+02  0.45594000000E+02  0.51100000000E-03 0. -1.
    9900012    2    1    2    0    0  0.49757462906E+01  0.21359430483E+01 -0.40296958550E+02  0.50528866067E+02  0.30000018896E+02 0.  0.
        -12    1    1    2    0    0 -0.49757462906E+01 -0.21359430483E+01  0.40296958550E+02  0.40659133933E+02  0.00000000000E+00 0.  1.
         11    1    3    3    0    0 -0.31848638477E+01 -0.65193746554E+01 -0.19838255074E+02  0.21123493278E+02  0.51100000000E-03 0. -1.
        -11    1    3    3    0    0  0.77876671282E+01 -0.11903734988E+01 -0.17381060536E+02  0.19083134281E+02  0.51100000000E-03 0.  1.
        -12    1    3    3    0    0  0.37294301008E+00  0.98456912025E+01 -0.30776429394E+01  0.10322238508E+02  0.00000000000E+00 0.  1.
</event>
<event>
 7    1  0.2835316E-011  0.5052879E+02  0.7816164E-02  0.1300439E+00
        -11   -1    0    0    0    0  0.00000000000E+00  0.00000000000E+00  0.45593999997E+02  0.45594000000E+02  0.51100000000E-03 0.  1.
         11   -1    0    0    0    0 -0.00000000000E+00 -0.00000000000E+00 -0.45593999997E+02  0.45594000000E+02  0.51100000000E-03 0. -1.
    9900012    2    1    2    0    0  0.14524939497E+02  0.68125946459E+01 -0.37360218916E+02  0.50528791072E+02  0.29999790941E+02 0.  0.
        -12    1    1    2    0    0 -0.14524939497E+02 -0.68125946459E+01  0.37360218916E+02  0.40659208928E+02  0.00000000000E+00 0.  1.
         11    1    3    3    0    0  0.11416873144E+01  0.76481025727E+01 -0.11176957454E+02  0.13591221471E+02  0.51100000000E-03 0. -1.
        -11    1    3    3    0    0  0.17459266888E+02  0.79782318045E+00 -0.27292083001E+02  0.32408645712E+02  0.51100000000E-03 0.  1.
        -12    1    3    3    0    0 -0.40760147060E+01 -0.16333311073E+01  0.11088215377E+01  0.45289238890E+01  0.00000000000E+00 0.  1.
</event>
<event>
 7    1  0.2835316E-011  0.5052883E+02  0.7816164E-02  0.1300439E+00
        -11   -1    0    0    0    0  0.00000000000E+00  0.00000000000E+00  0.45593999997E+02  0.45594000000E+02  0.51100000000E-03 0.  1.
         11   -1    0    0    0    0 -0.00000000000E+00 -0.00000000000E+00 -0.45593999997E+02  0.45594000000E+02  0.51100000000E-03 0. -1.
    9900012    2    1    2    0    0  0.14652272983E+02 -0.23742801591E+02 -0.29576308236E+02  0.50528834492E+02  0.29999922921E+02 0.  0.
        -12    1    1    2    0    0 -0.14652272983E+02  0.23742801591E+02  0.29576308236E+02  0.40659165508E+02  0.00000000000E+00 0.  1.
         11    1    3    3    0    0  0.47571309801E+01 -0.97299862784E+01 -0.21104493809E+02  0.23721352983E+02  0.51100000000E-03 0. -1.
        -11    1    3    3    0    0 -0.52365645736E+01 -0.14543542824E+01 -0.10109124528E+00  0.54357128891E+01  0.51100000000E-03 0.  1.
         12    1    3    3    0    0  0.15131706576E+02 -0.12558461030E+02 -0.83707231820E+01  0.21371768620E+02  0.00000000000E+00 0. -1.
</event>
<event>
 7    1  0.2835316E-011  0.5052886E+02  0.7816164E-02  0.1300439E+00
        -11   -1    0    0    0    0  0.00000000000E+00  0.00000000000E+00  0.45593999997E+02  0.45594000000E+02  0.51100000000E-03 0. -1.
         11   -1    0    0    0    0 -0.00000000000E+00 -0.00000000000E+00 -0.45593999997E+02  0.45594000000E+02  0.51100000000E-03 0.  1.
    9900012    2    1    2    0    0 -0.38221674228E+01 -0.30256912687E+02  0.26890074075E+02  0.50528858187E+02  0.29999994946E+02 0.  0.
        -12    1    1    2    0    0  0.38221674228E+01  0.30256912687E+02 -0.26890074075E+02  0.40659141813E+02  0.00000000000E+00 0.  1.
         11    1    3    3    0    0  0.25102047063E+01  0.15128450713E+01 -0.10423293479E+01  0.31106717294E+01  0.51100000000E-03 0. -1.
        -11    1    3    3    0    0 -0.14691489605E+01 -0.11311765034E+01  0.12742707683E+02  0.12876900182E+02  0.51100000000E-03 0.  1.
         12    1    3    3    0    0 -0.48632231686E+01 -0.30638581255E+02  0.15189695741E+02  0.34541286276E+02  0.00000000000E+00 0. -1.
</event>
<event>
 7    1  0.2835316E-011  0.5052886E+02  0.7816164E-02  0.1300439E+00
        -11   -1    0    0    0    0  0.00000000000E+00  0.00000000000E+00  0.45593999997E+02  0.45594000000E+02  0.51100000000E-03 0. -1.
         11   -1    0    0    0    0 -0.00000000000E+00 -0.00000000000E+00 -0.45593999997E+02  0.45594000000E+02  0.51100000000E-03 0.  1.
    9900012    2    1    2    0    0  0.20333609260E+02 -0.15946611097E+02  0.31391330251E+02  0.50528859749E+02  0.29999999692E+02 0.  0.
        -12    1    1    2    0    0 -0.20333609260E+02  0.15946611097E+02 -0.31391330251E+02  0.40659140251E+02  0.00000000000E+00 0.  1.
         11    1    3    3    0    0 -0.58957615851E+01 -0.24386494397E+01  0.93323475592E+01  0.11304854134E+02  0.51100000000E-03 0. -1.
        -11    1    3    3    0    0  0.38214095173E+01 -0.98809815337E+00 -0.16531964497E+01  0.42793185698E+01  0.51100000000E-03 0.  1.
         12    1    3    3    0    0  0.22407961328E+02 -0.12519863504E+02  0.23712179142E+02  0.34944687045E+02  0.00000000000E+00 0. -1.
</event>
<event>
 7    1  0.2856068E-011  0.5052887E+02  0.7816164E-02  0.1300439E+00
        -11   -1    0    0    0    0  0.00000000000E+00  0.00000000000E+00  0.45593999997E+02  0.45594000000E+02  0.51100000000E-03 0.  1.
         11   -1    0    0    0    0 -0.00000000000E+00 -0.00000000000E+00 -0.45593999997E+02  0.45594000000E+02  0.51100000000E-03 0. -1.
    9900012    2    1    2    0    0 -0.34151909228E+02 -0.46549804106E+00 -0.22058910287E+02  0.50528866765E+02  0.30000021018E+02 0.  0.
        -12    1    1    2    0    0  0.34151909228E+02  0.46549804106E+00  0.22058910287E+02  0.40659133235E+02  0.00000000000E+00 0.  1.
         11    1    3    3    0    0 -0.62946025103E+01 -0.61125416625E+01  0.16493799004E+01  0.89278015578E+01  0.51100000000E-03 0. -1.
        -11    1    3    3    0    0  0.23318381050E+01 -0.80149427645E+00 -0.48110773430E+01  0.54061379454E+01  0.51100000000E-03 0.  1.
         12    1    3    3    0    0 -0.30189144823E+02  0.64485378979E+01 -0.18897212845E+02  0.36194927262E+02  0.00000000000E+00 0. -1.
</event>
<event>
 7    1  0.2835316E-011  0.5052887E+02  0.7816164E-02  0.1300439E+00
        -11   -1    0    0    0    0  0.00000000000E+00  0.00000000000E+00  0.45593999997E+02  0.45594000000E+02  0.51100000000E-03 0. -1.
         11   -1    0    0    0    0 -0.00000000000E+00 -0.00000000000E+00 -0.45593999997E+02  0.45594000000E+02  0.51100000000E-03 0.  1.
    9900012    2    1    2    0    0  0.16211854132E+02 -0.18542946657E+02  0.32349653370E+02  0.50528866238E+02  0.30000019418E+02 0.  0.
        -12    1    1    2    0    0 -0.16211854132E+02  0.18542946657E+02 -0.32349653370E+02  0.40659133762E+02  0.00000000000E+00 0.  1.
         11    1    3    3    0    0 -0.86879994833E-01  0.13902549844E+01  0.45613889018E+01  0.47693423058E+01  0.51100000000E-03 0. -1.
        -11    1    3    3    0    0 -0.41500953404E+01 -0.14631130701E+02  0.12428059921E+02  0.19640518083E+02  0.51100000000E-03 0.  1.
        -12    1    3    3    0    0  0.20448829467E+02 -0.53020709407E+01  0.15360204547E+02  0.26119005849E+02  0.00000000000E+00 0.  1.
</event>
<event>
 7    1  0.2835316E-011  0.5052888E+02  0.7816164E-02  0.1300439E+00
        -11   -1    0    0    0    0  0.00000000000E+00  0.00000000000E+00  0.45593999997E+02  0.45594000000E+02  0.51100000000E-03 0.  1.
         11   -1    0    0    0    0 -0.00000000000E+00 -0.00000000000E+00 -0.45593999997E+02  0.45594000000E+02  0.51100000000E-03 0. -1.
    9900012    2    1    2    0    0  0.31679654115E+02 -0.14721536107E+02 -0.20804809770E+02  0.50528877780E+02  0.30000054500E+02 0.  0.
        -12    1    1    2    0    0 -0.31679654115E+02  0.14721536107E+02  0.20804809770E+02  0.40659122220E+02  0.00000000000E+00 0.  1.
         11    1    3    3    0    0  0.86125333437E+01 -0.32287411725E+01 -0.30101882251E+01  0.96778992331E+01  0.51100000000E-03 0. -1.
        -11    1    3    3    0    0  0.78027429565E+01 -0.18422708105E+02 -0.98222957997E+01  0.22288034157E+02  0.51100000000E-03 0.  1.
        -12    1    3    3    0    0  0.15264377815E+02  0.69299131708E+01 -0.79723257447E+01  0.18562944389E+02  0.00000000000E+00 0.  1.
</event>
<event>
 7    1  0.2835316E-011  0.5052886E+02  0.7816164E-02  0.1300439E+00
        -11   -1    0    0    0    0  0.00000000000E+00  0.00000000000E+00  0.45593999997E+02  0.45594000000E+02  0.51100000000E-03 0.  1.
         11   -1    0    0    0    0 -0.00000000000E+00 -0.00000000000E+00 -0.45593999997E+02  0.45594000000E+02  0.51100000000E-03 0. -1.
    9900012    2    1    2    0    0  0.12122657090E+02 -0.79867902627E+01 -0.37979179108E+02  0.50528859830E+02  0.29999999939E+02 0.  0.
        -12    1    1    2    0    0 -0.12122657090E+02  0.79867902627E+01  0.37979179108E+02  0.40659140170E+02  0.00000000000E+00 0.  1.
         11    1    3    3    0    0  0.27105089697E+01 -0.13684591504E+02 -0.25480723909E+02  0.29049650509E+02  0.51100000000E-03 0. -1.
        -11    1    3    3    0    0  0.99795427651E+01 -0.15782301304E+01 -0.81745603855E+01  0.12996365719E+02  0.51100000000E-03 0.  1.
        -12    1    3    3    0    0 -0.56739464442E+00  0.72760313720E+01 -0.43238948138E+01  0.84828436017E+01  0.00000000000E+00 0.  1.
</event>
<event>
 7    1  0.2835316E-011  0.5052884E+02  0.7816164E-02  0.1300439E+00
        -11   -1    0    0    0    0  0.00000000000E+00  0.00000000000E+00  0.45593999997E+02  0.45594000000E+02  0.51100000000E-03 0.  1.
         11   -1    0    0    0    0 -0.00000000000E+00 -0.00000000000E+00 -0.45593999997E+02  0.45594000000E+02  0.51100000000E-03 0. -1.
    9900012    2    1    2    0    0  0.11247290153E+02 -0.34781929064E+02 -0.17801209820E+02  0.50528841176E+02  0.29999943239E+02 0.  0.
        -12    1    1    2    0    0 -0.11247290153E+02  0.34781929064E+02  0.17801209820E+02  0.40659158824E+02  0.00000000000E+00 0.  1.
         11    1    3    3    0    0 -0.36848122435E+01 -0.21929495974E+02 -0.10775570862E+01  0.22263013374E+02  0.51100000000E-03 0. -1.
        -11    1    3    3    0    0  0.62059281356E+01 -0.85097852438E+01 -0.21760717421E+01  0.10754779282E+02  0.51100000000E-03 0.  1.
        -12    1    3    3    0    0  0.87261742611E+01 -0.43426478461E+01 -0.14547580992E+02  0.17511048520E+02  0.00000000000E+00 0.  1.
</event>
<event>
 7    1  0.2835316E-011  0.5052878E+02  0.7816164E-02  0.1300439E+00
        -11   -1    0    0    0    0  0.00000000000E+00  0.00000000000E+00  0.45593999997E+02  0.45594000000E+02  0.51100000000E-03 0.  1.
         11   -1    0    0    0    0 -0.00000000000E+00 -0.00000000000E+00 -0.45593999997E+02  0.45594000000E+02  0.51100000000E-03 0. -1.
    9900012    2    1    2    0    0  0.10366506980E+02  0.35817706772E+01 -0.39151992348E+02  0.50528781452E+02  0.29999761701E+02 0.  0.
        -12    1    1    2    0    0 -0.10366506980E+02 -0.35817706772E+01  0.39151992348E+02  0.40659218548E+02  0.00000000000E+00 0.  1.
         11    1    3    3    0    0 -0.10398464630E+01  0.22422721287E+01 -0.14245319280E+02  0.14458152946E+02  0.51100000000E-03 0. -1.
        -11    1    3    3    0    0  0.62904023747E+01  0.10293965963E+02 -0.39161369281E+01  0.12683494234E+02  0.51100000000E-03 0.  1.
         12    1    3    3    0    0  0.51159510679E+01 -0.89544674148E+01 -0.20990536140E+02  0.23387134272E+02  0.00000000000E+00 0. -1.
</event>
<event>
 7    1  0.2835316E-011  0.5052888E+02  0.7816164E-02  0.1300439E+00
        -11   -1    0    0    0    0  0.00000000000E+00  0.00000000000E+00  0.45593999997E+02  0.45594000000E+02  0.51100000000E-03 0. -1.
         11   -1    0    0    0    0 -0.00000000000E+00 -0.00000000000E+00 -0.45593999997E+02  0.45594000000E+02  0.51100000000E-03 0.  1.
    9900012    2    1    2    0    0  0.39312118256E+02  0.71207511493E+01  0.75509193789E+01  0.50528878979E+02  0.30000058146E+02 0.  0.
        -12    1    1    2    0    0 -0.39312118256E+02 -0.71207511493E+01 -0.75509193789E+01  0.40659121021E+02  0.00000000000E+00 0.  1.
         11    1    3    3    0    0  0.32844942063E+02  0.15610647137E+01  0.30638851578E+01  0.33024453586E+02  0.51100000000E-03 0.  1.
        -11    1    3    3    0    0  0.86931088926E+01  0.88341051261E+01  0.52708189268E+01  0.13468225125E+02  0.51100000000E-03 0. -1.
        -12    1    3    3    0    0 -0.22259326992E+01 -0.32744186905E+01 -0.78378470561E+00  0.40362002684E+01  0.00000000000E+00 0.  1.
</event>
<event>
 7    1  0.2835316E-011  0.5052886E+02  0.7816164E-02  0.1300439E+00
        -11   -1    0    0    0    0  0.00000000000E+00  0.00000000000E+00  0.45593999997E+02  0.45594000000E+02  0.51100000000E-03 0.  1.
         11   -1    0    0    0    0 -0.00000000000E+00 -0.00000000000E+00 -0.45593999997E+02  0.45594000000E+02  0.51100000000E-03 0. -1.
    9900012    2    1    2    0    0  0.50533692421E+01 -0.39303510474E+02  0.91029123541E+01  0.50528862164E+02  0.30000007032E+02 0.  0.
        -12    1    1    2    0    0 -0.50533692421E+01  0.39303510474E+02 -0.91029123541E+01  0.40659137836E+02  0.00000000000E+00 0.  1.
         11    1    3    3    0    0 -0.45791716809E+01 -0.14198720650E+02  0.32401171035E+01  0.15266657803E+02  0.51100000000E-03 0. -1.
        -11    1    3    3    0    0 -0.27382361311E+01 -0.60531226712E+01 -0.65895063297E+01  0.93573407073E+01  0.51100000000E-03 0.  1.
        -12    1    3    3    0    0  0.12370777054E+02 -0.19051667153E+02  0.12452301580E+02  0.25904863653E+02  0.00000000000E+00 0.  1.
</event>
<event>
 7    1  0.2835316E-011  0.5052885E+02  0.7816164E-02  0.1300439E+00
        -11   -1    0    0    0    0  0.00000000000E+00  0.00000000000E+00  0.45593999997E+02  0.45594000000E+02  0.51100000000E-03 0.  1.
         11   -1    0    0    0    0 -0.00000000000E+00 -0.00000000000E+00 -0.45593999997E+02  0.45594000000E+02  0.51100000000E-03 0. -1.
    9900012    2    1    2    0    0 -0.45652091765E+01 -0.74096927976E+01 -0.39716765362E+02  0.50528854251E+02  0.29999982982E+02 0.  0.
        -12    1    1    2    0    0  0.45652091765E+01  0.74096927976E+01  0.39716765362E+02  0.40659145749E+02  0.00000000000E+00 0.  1.
         11    1    3    3    0    0  0.34123826732E+01 -0.29474577822E+01  0.41078198178E+00  0.45277593779E+01  0.51100000000E-03 0. -1.
        -11    1    3    3    0    0  0.57416276587E+01 -0.97136617685E+00 -0.36491670195E+01  0.68721365396E+01  0.51100000000E-03 0.  1.
         12    1    3    3    0    0 -0.13719219508E+02 -0.34908688386E+01 -0.36478380325E+02  0.39128958334E+02  0.00000000000E+00 0. -1.
</event>
<event>
 7    1  0.2835316E-011  0.5052887E+02  0.7816164E-02  0.1300439E+00
        -11   -1    0    0    0    0  0.00000000000E+00  0.00000000000E+00  0.45593999997E+02  0.45594000000E+02  0.51100000000E-03 0.  1.
         11   -1    0    0    0    0 -0.00000000000E+00 -0.00000000000E+00 -0.45593999997E+02  0.45594000000E+02  0.51100000000E-03 0. -1.
    9900012    2    1    2    0    0  0.40237138404E+01  0.16432279931E+02 -0.36972349976E+02  0.50528871141E+02  0.30000034320E+02 0.  0.
        -12    1    1    2    0    0 -0.40237138404E+01 -0.16432279931E+02  0.36972349976E+02  0.40659128859E+02  0.00000000000E+00 0.  1.
         11    1    3    3    0    0 -0.32630937422E+01  0.61511458138E+01 -0.70794380801E+01  0.99298952353E+01  0.51100000000E-03 0.  1.
        -11    1    3    3    0    0 -0.12210122445E+01  0.13890317338E+02 -0.63782638660E+01  0.15333428738E+02  0.51100000000E-03 0. -1.
         12    1    3    3    0    0  0.85078198271E+01 -0.36091832202E+01 -0.23514648030E+02  0.25265547168E+02  0.00000000000E+00 0. -1.
</event>
<event>
 7    1  0.2835316E-011  0.5052886E+02  0.7816164E-02  0.1300439E+00
        -11   -1    0    0    0    0  0.00000000000E+00  0.00000000000E+00  0.45593999997E+02  0.45594000000E+02  0.51100000000E-03 0. -1.
         11   -1    0    0    0    0 -0.00000000000E+00 -0.00000000000E+00 -0.45593999997E+02  0.45594000000E+02  0.51100000000E-03 0.  1.
    9900012    2    1    2    0    0 -0.33429822105E+02  0.16015758697E+02  0.16706538854E+02  0.50528856218E+02  0.29999988960E+02 0.  0.
        -12    1    1    2    0    0  0.33429822105E+02 -0.16015758697E+02 -0.16706538854E+02  0.40659143782E+02  0.00000000000E+00 0.  1.
         11    1    3    3    0    0 -0.13933502725E+02  0.53553893873E+01 -0.46169844422E+01  0.15624955656E+02  0.51100000000E-03 0. -1.
        -11    1    3    3    0    0  0.29399451933E+01  0.75810450119E+00  0.31882529860E+01  0.44026080382E+01  0.51100000000E-03 0.  1.
         12    1    3    3    0    0 -0.22436264573E+02  0.99022648089E+01  0.18135270311E+02  0.30501292523E+02  0.00000000000E+00 0. -1.
</event>
<event>
 7    1  0.2835316E-011  0.5052878E+02  0.7816164E-02  0.1300439E+00
        -11   -1    0    0    0    0  0.00000000000E+00  0.00000000000E+00  0.45593999997E+02  0.45594000000E+02  0.51100000000E-03 0. -1.
         11   -1    0    0    0    0 -0.00000000000E+00 -0.00000000000E+00 -0.45593999997E+02  0.45594000000E+02  0.51100000000E-03 0.  1.
    9900012    2    1    2    0    0  0.39622418811E+02  0.72034945417E+01  0.55987113539E+01  0.50528782412E+02  0.29999764618E+02 0.  0.
        -12    1    1    2    0    0 -0.39622418811E+02 -0.72034945417E+01 -0.55987113539E+01  0.40659217588E+02  0.00000000000E+00 0.  1.
         11    1    3    3    0    0  0.15385673414E+02  0.11250091643E+02  0.58056669806E+01  0.19924589776E+02  0.51100000000E-03 0. -1.
        -11    1    3    3    0    0  0.66650706834E+00  0.28514175173E+01 -0.47969116270E+01  0.56200689451E+01  0.51100000000E-03 0.  1.
        -12    1    3    3    0    0  0.23570238328E+02 -0.68980146183E+01  0.45899560003E+01  0.24984123691E+02  0.00000000000E+00 0.  1.
</event>
<event>
 7    1  0.2835316E-011  0.5052883E+02  0.7816164E-02  0.1300439E+00
        -11   -1    0    0    0    0  0.00000000000E+00  0.00000000000E+00  0.45593999997E+02  0.45594000000E+02  0.51100000000E-03 0. -1.
         11   -1    0    0    0    0 -0.00000000000E+00 -0.00000000000E+00 -0.45593999997E+02  0.45594000000E+02  0.51100000000E-03 0.  1.
    9900012    2    1    2    0    0  0.31313539554E+02  0.66664185262E+01  0.25063701920E+02  0.50528830686E+02  0.29999911352E+02 0.  0.
        -12    1    1    2    0    0 -0.31313539554E+02 -0.66664185262E+01 -0.25063701920E+02  0.40659169314E+02  0.00000000000E+00 0.  1.
         11    1    3    3    0    0  0.31192991436E+01 -0.75657490432E+01  0.10119459926E+02  0.13014378786E+02  0.51100000000E-03 0. -1.
        -11    1    3    3    0    0  0.33128543761E+01  0.13204296207E+01 -0.26280100939E+01  0.44300085570E+01  0.51100000000E-03 0.  1.
         12    1    3    3    0    0  0.24881386034E+02  0.12911737949E+02  0.17572252089E+02  0.33084443343E+02  0.00000000000E+00 0. -1.
</event>
<event>
 7    1  0.2835316E-011  0.5052894E+02  0.7816164E-02  0.1300438E+00
        -11   -1    0    0    0    0  0.00000000000E+00  0.00000000000E+00  0.45593999997E+02  0.45594000000E+02  0.51100000000E-03 0.  1.
         11   -1    0    0    0    0 -0.00000000000E+00 -0.00000000000E+00 -0.45593999997E+02  0.45594000000E+02  0.51100000000E-03 0. -1.
    9900012    2    1    2    0    0 -0.30671464519E+02  0.20748388431E+02 -0.16790606572E+02  0.50528944092E+02  0.30000256062E+02 0.  0.
        -12    1    1    2    0    0  0.30671464519E+02 -0.20748388431E+02  0.16790606572E+02  0.40659055908E+02  0.00000000000E+00 0.  1.
         11    1    3    3    0    0 -0.19933191093E+02  0.54187997331E+01 -0.21557803838E+02  0.29856898772E+02  0.51100000000E-03 0. -1.
        -11    1    3    3    0    0 -0.43007812801E+01  0.10201840477E+01  0.87852956920E+00  0.45065851346E+01  0.51100000000E-03 0.  1.
        -12    1    3    3    0    0 -0.64374921457E+01  0.14309404650E+02  0.38886676965E+01  0.16165460186E+02  0.00000000000E+00 0.  1.
</event>
<event>
 7    1  0.2835316E-011  0.5052886E+02  0.7816164E-02  0.1300439E+00
        -11   -1    0    0    0    0  0.00000000000E+00  0.00000000000E+00  0.45593999997E+02  0.45594000000E+02  0.51100000000E-03 0.  1.
         11   -1    0    0    0    0 -0.00000000000E+00 -0.00000000000E+00 -0.45593999997E+02  0.45594000000E+02  0.51100000000E-03 0. -1.
    9900012    2    1    2    0    0  0.36970270175E+02  0.16920080349E+02  0.27573797170E+00  0.50528855552E+02  0.29999986935E+02 0.  0.
        -12    1    1    2    0    0 -0.36970270175E+02 -0.16920080349E+02 -0.27573797170E+00  0.40659144448E+02  0.00000000000E+00 0.  1.
         11    1    3    3    0    0  0.14464200917E+02  0.13698733271E+02 -0.14928507002E+01  0.19977412367E+02  0.51100000000E-03 0. -1.
        -11    1    3    3    0    0 -0.70413498955E+00  0.65267749817E+01  0.26769184791E+01  0.70894633471E+01  0.51100000000E-03 0.  1.
        -12    1    3    3    0    0  0.23210204248E+02 -0.33054279041E+01 -0.90832980720E+00  0.23461979838E+02  0.00000000000E+00 0.  1.
</event>
<event>
 7    1  0.2835316E-011  0.5052887E+02  0.7816164E-02  0.1300439E+00
        -11   -1    0    0    0    0  0.00000000000E+00  0.00000000000E+00  0.45593999997E+02  0.45594000000E+02  0.51100000000E-03 0.  1.
         11   -1    0    0    0    0 -0.00000000000E+00 -0.00000000000E+00 -0.45593999997E+02  0.45594000000E+02  0.51100000000E-03 0. -1.
    9900012    2    1    2    0    0 -0.38348847055E+02 -0.44693118714E+01 -0.12749739878E+02  0.50528872046E+02  0.30000037070E+02 0.  0.
        -12    1    1    2    0    0  0.38348847055E+02  0.44693118714E+01  0.12749739878E+02  0.40659127954E+02  0.00000000000E+00 0.  1.
         11    1    3    3    0    0 -0.80711319320E+01  0.18739095719E+01 -0.11115563646E+02  0.13863998816E+02  0.51100000000E-03 0. -1.
        -11    1    3    3    0    0 -0.12223430169E+02 -0.12458766854E+02 -0.22173523325E+01  0.17594026493E+02  0.51100000000E-03 0.  1.
         12    1    3    3    0    0 -0.18054284954E+02  0.61155454110E+01  0.58317609983E+00  0.19070846736E+02  0.00000000000E+00 0. -1.
</event>
<event>
 7    1  0.2835316E-011  0.5052884E+02  0.7816164E-02  0.1300439E+00
        -11   -1    0    0    0    0  0.00000000000E+00  0.00000000000E+00  0.45593999997E+02  0.45594000000E+02  0.51100000000E-03 0.  1.
         11   -1    0    0    0    0 -0.00000000000E+00 -0.00000000000E+00 -0.45593999997E+02  0.45594000000E+02  0.51100000000E-03 0. -1.
    9900012    2    1    2    0    0  0.28884909129E+02 -0.20766149123E+02 -0.19687462755E+02  0.50528842182E+02  0.29999946296E+02 0.  0.
        -12    1    1    2    0    0 -0.28884909129E+02  0.20766149123E+02  0.19687462755E+02  0.40659157818E+02  0.00000000000E+00 0.  1.
         11    1    3    3    0    0  0.10521468446E+01  0.19158404296E+01 -0.32538769079E+01  0.39198434570E+01  0.51100000000E-03 0.  1.
        -11    1    3    3    0    0  0.13067625286E+02 -0.14671760010E+02  0.41092356635E+01  0.20072597999E+02  0.51100000000E-03 0. -1.
         12    1    3    3    0    0  0.14765136998E+02 -0.80102295425E+01 -0.20542821510E+02  0.26536400726E+02  0.00000000000E+00 0. -1.
</event>
<event>
 7    1  0.3377505E-011  0.5052886E+02  0.7816164E-02  0.1300439E+00
        -11   -1    0    0    0    0  0.00000000000E+00  0.00000000000E+00  0.45593999997E+02  0.45594000000E+02  0.51100000000E-03 0. -1.
         11   -1    0    0    0    0 -0.00000000000E+00 -0.00000000000E+00 -0.45593999997E+02  0.45594000000E+02  0.51100000000E-03 0.  1.
    9900012    2    1    2    0    0  0.78503144165E+01 -0.66409159930E+01  0.39337471022E+02  0.50528858001E+02  0.29999994381E+02 0.  0.
        -12    1    1    2    0    0 -0.78503144165E+01  0.66409159930E+01 -0.39337471022E+02  0.40659141999E+02  0.00000000000E+00 0.  1.
         11    1    3    3    0    0  0.97005558692E+00  0.61341281468E+01  0.26226663351E+02  0.26951927700E+02  0.51100000000E-03 0. -1.
        -11    1    3    3    0    0  0.87281708678E+01 -0.46759884701E+01  0.11391927884E+02  0.15093768782E+02  0.51100000000E-03 0.  1.
        -12    1    3    3    0    0 -0.18479120382E+01 -0.80990556698E+01  0.17188797874E+01  0.84831615196E+01  0.00000000000E+00 0.  1.
</event>
<event>
 7    1  0.2835316E-011  0.5052886E+02  0.7816164E-02  0.1300439E+00
        -11   -1    0    0    0    0  0.00000000000E+00  0.00000000000E+00  0.45593999997E+02  0.45594000000E+02  0.51100000000E-03 0.  1.
         11   -1    0    0    0    0 -0.00000000000E+00 -0.00000000000E+00 -0.45593999997E+02  0.45594000000E+02  0.51100000000E-03 0. -1.
    9900012    2    1    2    0    0 -0.16310957639E+02 -0.33532475588E+02 -0.16207750996E+02  0.50528862644E+02  0.30000008493E+02 0.  0.
        -12    1    1    2    0    0  0.16310957639E+02  0.33532475588E+02  0.16207750996E+02  0.40659137356E+02  0.00000000000E+00 0.  1.
         11    1    3    3    0    0 -0.14265147574E+02 -0.17932064543E+02 -0.17915796699E+02  0.29086580165E+02  0.51100000000E-03 0. -1.
        -11    1    3    3    0    0 -0.83059851347E+01 -0.81007059165E+01  0.75278824825E+00  0.11626586593E+02  0.51100000000E-03 0.  1.
        -12    1    3    3    0    0  0.62601750694E+01 -0.74997051288E+01  0.95525745463E+00  0.98156958858E+01  0.00000000000E+00 0.  1.
</event>
<event>
 7    1  0.2835316E-011  0.5052885E+02  0.7816164E-02  0.1300439E+00
        -11   -1    0    0    0    0  0.00000000000E+00  0.00000000000E+00  0.45593999997E+02  0.45594000000E+02  0.51100000000E-03 0. -1.
         11   -1    0    0    0    0 -0.00000000000E+00 -0.00000000000E+00 -0.45593999997E+02  0.45594000000E+02  0.51100000000E-03 0.  1.
    9900012    2    1    2    0    0 -0.16716665611E+02  0.33240573400E+02  0.16394618472E+02  0.50528854117E+02  0.29999982573E+02 0.  0.
        -12    1    1    2    0    0  0.16716665611E+02 -0.33240573400E+02 -0.16394618472E+02  0.40659145883E+02  0.00000000000E+00 0.  1.
         11    1    3    3    0    0 -0.80223096906E+01  0.64890237049E+01 -0.20605782417E+01  0.10521923036E+02  0.51100000000E-03 0. -1.
        -11    1    3    3    0    0  0.19201416787E+01 -0.22381395378E+01 -0.14379335546E+01  0.32808330992E+01  0.51100000000E-03 0.  1.
        -12    1    3    3    0    0 -0.10614497599E+02  0.28989689233E+02  0.19893130269E+02  0.36726097982E+02  0.00000000000E+00 0.  1.
</event>
<event>
 7    1  0.2835316E-011  0.5052885E+02  0.7816164E-02  0.1300439E+00
        -11   -1    0    0    0    0  0.00000000000E+00  0.00000000000E+00  0.45593999997E+02  0.45594000000E+02  0.51100000000E-03 0.  1.
         11   -1    0    0    0    0 -0.00000000000E+00 -0.00000000000E+00 -0.45593999997E+02  0.45594000000E+02  0.51100000000E-03 0. -1.
    9900012    2    1    2    0    0 -0.34990693933E+02 -0.59556350048E+01 -0.19833005802E+02  0.50528851345E+02  0.29999974149E+02 0.  0.
        -12    1    1    2    0    0  0.34990693933E+02  0.59556350048E+01  0.19833005802E+02  0.40659148655E+02  0.00000000000E+00 0.  1.
         11    1    3    3    0    0 -0.11810520878E+02  0.47470791004E+01 -0.15496690475E+02  0.20054191067E+02  0.51100000000E-03 0. -1.
        -11    1    3    3    0    0 -0.13393384001E+02 -0.13682404308E+02 -0.60970641949E+01  0.20093907403E+02  0.51100000000E-03 0.  1.
         12    1    3    3    0    0 -0.97867890536E+01  0.29796902030E+01  0.17607488682E+01  0.10380752875E+02  0.00000000000E+00 0. -1.
</event>
<event>
 7    1  0.2835316E-011  0.5052886E+02  0.7816164E-02  0.1300439E+00
        -11   -1    0    0    0    0  0.00000000000E+00  0.00000000000E+00  0.45593999997E+02  0.45594000000E+02  0.51100000000E-03 0.  1.
         11   -1    0    0    0    0 -0.00000000000E+00 -0.00000000000E+00 -0.45593999997E+02  0.45594000000E+02  0.51100000000E-03 0. -1.
    9900012    2    1    2    0    0  0.21638234747E+02 -0.29622422032E+02 -0.17534665100E+02  0.50528861173E+02  0.30000004020E+02 0.  0.
        -12    1    1    2    0    0 -0.21638234747E+02  0.29622422032E+02  0.17534665100E+02  0.40659138827E+02  0.00000000000E+00 0.  1.
         11    1    3    3    0    0  0.19918488630E+02 -0.19989935543E+02 -0.57918618988E+01  0.28807800624E+02  0.51100000000E-03 0. -1.
        -11    1    3    3    0    0  0.37694590988E+00 -0.13761249772E+02 -0.10120573299E+02  0.17086254349E+02  0.51100000000E-03 0.  1.
        -12    1    3    3    0    0  0.13428002078E+01  0.41287632833E+01 -0.16222299019E+01  0.46348061990E+01  0.00000000000E+00 0.  1.
</event>
<event>
 7    1  0.2835316E-011  0.5052886E+02  0.7816164E-02  0.1300439E+00
        -11   -1    0    0    0    0  0.00000000000E+00  0.00000000000E+00  0.45593999997E+02  0.45594000000E+02  0.51100000000E-03 0. -1.
         11   -1    0    0    0    0 -0.00000000000E+00 -0.00000000000E+00 -0.45593999997E+02  0.45594000000E+02  0.51100000000E-03 0.  1.
    9900012    2    1    2    0    0  0.35428064582E+02 -0.19160857547E+02  0.55569169559E+01  0.50528861445E+02  0.30000004849E+02 0.  0.
        -12    1    1    2    0    0 -0.35428064582E+02  0.19160857547E+02 -0.55569169559E+01  0.40659138555E+02  0.00000000000E+00 0.  1.
         11    1    3    3    0    0  0.20111677161E+01 -0.12946582147E+02 -0.27086039957E+01  0.13378913286E+02  0.51100000000E-03 0. -1.
        -11    1    3    3    0    0  0.10973295797E+02 -0.78515393589E+01  0.51024418858E+01  0.14425491479E+02  0.51100000000E-03 0.  1.
        -12    1    3    3    0    0  0.22443601069E+02  0.16372639587E+01  0.31630790657E+01  0.22724456680E+02  0.00000000000E+00 0.  1.
</event>
<event>
 7    1  0.2835316E-011  0.5052889E+02  0.7816164E-02  0.1300439E+00
        -11   -1    0    0    0    0  0.00000000000E+00  0.00000000000E+00  0.45593999997E+02  0.45594000000E+02  0.51100000000E-03 0. -1.
         11   -1    0    0    0    0 -0.00000000000E+00 -0.00000000000E+00 -0.45593999997E+02  0.45594000000E+02  0.51100000000E-03 0.  1.
    9900012    2    1    2    0    0  0.82973834041E+01  0.27780162160E+02  0.28505776163E+02  0.50528889635E+02  0.30000090534E+02 0.  0.
        -12    1    1    2    0    0 -0.82973834041E+01 -0.27780162160E+02 -0.28505776163E+02  0.40659110365E+02  0.00000000000E+00 0.  1.
         11    1    3    3    0    0  0.89895174871E+01  0.86854059817E+01  0.20499588833E+02  0.24010015500E+02  0.51100000000E-03 0. -1.
        -11    1    3    3    0    0 -0.10293414869E+00 -0.15374609343E+01 -0.28183556795E+01  0.32120881932E+01  0.51100000000E-03 0.  1.
         12    1    3    3    0    0 -0.58919993432E+00  0.20632217113E+02  0.10824543010E+02  0.23306785942E+02  0.00000000000E+00 0. -1.
</event>
<event>
 7    1  0.2835316E-011  0.5052886E+02  0.7816164E-02  0.1300439E+00
        -11   -1    0    0    0    0  0.00000000000E+00  0.00000000000E+00  0.45593999997E+02  0.45594000000E+02  0.51100000000E-03 0.  1.
         11   -1    0    0    0    0 -0.00000000000E+00 -0.00000000000E+00 -0.45593999997E+02  0.45594000000E+02  0.51100000000E-03 0. -1.
    9900012    2    1    2    0    0  0.74733037511E+01 -0.11910132689E+02 -0.38150550174E+02  0.50528855787E+02  0.29999987649E+02 0.  0.
        -12    1    1    2    0    0 -0.74733037511E+01  0.11910132689E+02  0.38150550174E+02  0.40659144213E+02  0.00000000000E+00 0.  1.
         11    1    3    3    0    0  0.10148434198E+01 -0.80801440667E+01 -0.19710507693E+01  0.83787634351E+01  0.51100000000E-03 0. -1.
        -11    1    3    3    0    0  0.28447374931E+01 -0.49923882614E+01  0.26076734178E-01  0.57460553612E+01  0.51100000000E-03 0.  1.
         12    1    3    3    0    0  0.36137228382E+01  0.11623996394E+01 -0.36205576138E+02  0.36404036990E+02  0.00000000000E+00 0. -1.
</event>
<event>
 7    1  0.2835316E-011  0.5052885E+02  0.7816164E-02  0.1300439E+00
        -11   -1    0    0    0    0  0.00000000000E+00  0.00000000000E+00  0.45593999997E+02  0.45594000000E+02  0.51100000000E-03 0.  1.
         11   -1    0    0    0    0 -0.00000000000E+00 -0.00000000000E+00 -0.45593999997E+02  0.45594000000E+02  0.51100000000E-03 0. -1.
    9900012    2    1    2    0    0  0.16176609358E+02 -0.36733831422E+02  0.64891771425E+01  0.50528849969E+02  0.29999969966E+02 0.  0.
        -12    1    1    2    0    0 -0.16176609358E+02  0.36733831422E+02 -0.64891771425E+01  0.40659150031E+02  0.00000000000E+00 0.  1.
         11    1    3    3    0    0 -0.58355888021E+00  0.26768924715E+01  0.35916045076E+01  0.45172909437E+01  0.51100000000E-03 0. -1.
        -11    1    3    3    0    0  0.90792925669E+00 -0.17097389281E+02 -0.44128168960E+01  0.17681007013E+02  0.51100000000E-03 0.  1.
         12    1    3    3    0    0  0.15852238981E+02 -0.22313334612E+02  0.73103895310E+01  0.28330552013E+02  0.00000000000E+00 0. -1.
</event>
<event>
 7    1  0.2835316E-011  0.5052888E+02  0.7816164E-02  0.1300439E+00
        -11   -1    0    0    0    0  0.00000000000E+00  0.00000000000E+00  0.45593999997E+02  0.45594000000E+02  0.51100000000E-03 0.  1.
         11   -1    0    0    0    0 -0.00000000000E+00 -0.00000000000E+00 -0.45593999997E+02  0.45594000000E+02  0.51100000000E-03 0. -1.
    9900012    2    1    2    0    0 -0.11053630017E+02  0.68507528699E+01 -0.38523352563E+02  0.50528877480E+02  0.30000053588E+02 0.  0.
        -12    1    1    2    0    0  0.11053630017E+02 -0.68507528699E+01  0.38523352563E+02  0.40659122520E+02  0.00000000000E+00 0.  1.
         11    1    3    3    0    0  0.93986843794E+00 -0.10294123881E+02 -0.86435335557E+01  0.13474531968E+02  0.51100000000E-03 0. -1.
        -11    1    3    3    0    0 -0.11543301736E+01 -0.42094231390E+00 -0.11855225746E+01  0.17073765307E+01  0.51100000000E-03 0.  1.
         12    1    3    3    0    0 -0.10839168282E+02  0.17565819065E+02 -0.28694296432E+02  0.35346968982E+02  0.00000000000E+00 0. -1.
</event>
<event>
 7    1  0.2835316E-011  0.5052886E+02  0.7816164E-02  0.1300439E+00
        -11   -1    0    0    0    0  0.00000000000E+00  0.00000000000E+00  0.45593999997E+02  0.45594000000E+02  0.51100000000E-03 0.  1.
         11   -1    0    0    0    0 -0.00000000000E+00 -0.00000000000E+00 -0.45593999997E+02  0.45594000000E+02  0.51100000000E-03 0. -1.
    9900012    2    1    2    0    0  0.37533973343E+02 -0.10296128898E+02 -0.11762503960E+02  0.50528856814E+02  0.29999990773E+02 0.  0.
        -12    1    1    2    0    0 -0.37533973343E+02  0.10296128898E+02  0.11762503960E+02  0.40659143186E+02  0.00000000000E+00 0.  1.
         11    1    3    3    0    0  0.81167038444E+01 -0.76943195723E+00 -0.61345237145E+00  0.81761378968E+01  0.51100000000E-03 0. -1.
        -11    1    3    3    0    0  0.29637099102E+02 -0.15180172227E+01 -0.15236203881E+02  0.33358715930E+02  0.51100000000E-03 0.  1.
        -12    1    3    3    0    0 -0.21982960400E+00 -0.80086797182E+01  0.40871522932E+01  0.89940029882E+01  0.00000000000E+00 0.  1.
</event>
<event>
 7    1  0.2835316E-011  0.5052888E+02  0.7816164E-02  0.1300439E+00
        -11   -1    0    0    0    0  0.00000000000E+00  0.00000000000E+00  0.45593999997E+02  0.45594000000E+02  0.51100000000E-03 0. -1.
         11   -1    0    0    0    0 -0.00000000000E+00 -0.00000000000E+00 -0.45593999997E+02  0.45594000000E+02  0.51100000000E-03 0.  1.
    9900012    2    1    2    0    0  0.25276599284E+02  0.28557112328E+02  0.14097842845E+02  0.50528876685E+02  0.30000051171E+02 0.  0.
        -12    1    1    2    0    0 -0.25276599284E+02 -0.28557112328E+02 -0.14097842845E+02  0.40659123315E+02  0.00000000000E+00 0.  1.
         11    1    3    3    0    0  0.31140141491E+01  0.99315003692E+01  0.10163029300E+02  0.14547128532E+02  0.51100000000E-03 0. -1.
        -11    1    3    3    0    0 -0.33435090146E+01 -0.10063489242E+01 -0.35884077757E+00  0.35100651921E+01  0.51100000000E-03 0.  1.
        -12    1    3    3    0    0  0.25506094149E+02  0.19631960883E+02  0.42936543229E+01  0.32471682961E+02  0.00000000000E+00 0.  1.
</event>
<event>
 7    1  0.2835316E-011  0.5052886E+02  0.7816164E-02  0.1300439E+00
        -11   -1    0    0    0    0  0.00000000000E+00  0.00000000000E+00  0.45593999997E+02  0.45594000000E+02  0.51100000000E-03 0. -1.
         11   -1    0    0    0    0 -0.00000000000E+00 -0.00000000000E+00 -0.45593999997E+02  0.45594000000E+02  0.51100000000E-03 0.  1.
    9900012    2    1    2    0    0  0.40541153764E+02  0.22963027113E+01  0.20754104825E+01  0.50528862241E+02  0.30000007267E+02 0.  0.
        -12    1    1    2    0    0 -0.40541153764E+02 -0.22963027113E+01 -0.20754104825E+01  0.40659137759E+02  0.00000000000E+00 0.  1.
         11    1    3    3    0    0  0.46312189811E+01 -0.21905508337E+01 -0.42246073816E+01  0.66403320697E+01  0.51100000000E-03 0. -1.
        -11    1    3    3    0    0  0.17011479408E+02 -0.88313479263E+01 -0.21179262463E+01  0.19283898716E+02  0.51100000000E-03 0.  1.
        -12    1    3    3    0    0  0.18898455375E+02  0.13318201471E+02  0.84179441103E+01  0.24604631455E+02  0.00000000000E+00 0.  1.
</event>
<event>
 7    1  0.2835316E-011  0.5052873E+02  0.7816164E-02  0.1300439E+00
        -11   -1    0    0    0    0  0.00000000000E+00  0.00000000000E+00  0.45593999997E+02  0.45594000000E+02  0.51100000000E-03 0. -1.
         11   -1    0    0    0    0 -0.00000000000E+00 -0.00000000000E+00 -0.45593999997E+02  0.45594000000E+02  0.51100000000E-03 0.  1.
    9900012    2    1    2    0    0 -0.32408776372E+02  0.83607655877E+01  0.23085603898E+02  0.50528729292E+02  0.29999603153E+02 0.  0.
        -12    1    1    2    0    0  0.32408776372E+02 -0.83607655877E+01 -0.23085603898E+02  0.40659270708E+02  0.00000000000E+00 0.  1.
         11    1    3    3    0    0 -0.57494176149E+00  0.37235878199E+01  0.78701560692E+01  0.87255384416E+01  0.51100000000E-03 0.  1.
        -11    1    3    3    0    0 -0.75689662641E-01 -0.13509660161E+01  0.87386849382E+01  0.88428192796E+01  0.51100000000E-03 0. -1.
        -12    1    3    3    0    0 -0.31758144948E+02  0.59881437840E+01  0.64767628907E+01  0.32960371571E+02  0.00000000000E+00 0.  1.
</event>
<event>
 7    1  0.2835316E-011  0.5052887E+02  0.7816164E-02  0.1300439E+00
        -11   -1    0    0    0    0  0.00000000000E+00  0.00000000000E+00  0.45593999997E+02  0.45594000000E+02  0.51100000000E-03 0. -1.
         11   -1    0    0    0    0 -0.00000000000E+00 -0.00000000000E+00 -0.45593999997E+02  0.45594000000E+02  0.51100000000E-03 0.  1.
    9900012    2    1    2    0    0 -0.32130691678E+02  0.24747391163E+02  0.28896407910E+01  0.50528871369E+02  0.30000035013E+02 0.  0.
        -12    1    1    2    0    0  0.32130691678E+02 -0.24747391163E+02 -0.28896407910E+01  0.40659128631E+02  0.00000000000E+00 0.  1.
         11    1    3    3    0    0 -0.17693723001E+02  0.10727532897E+02 -0.18038468462E+01  0.20770210866E+02  0.51100000000E-03 0. -1.
        -11    1    3    3    0    0 -0.13371255125E+02  0.17389617600E+02 -0.21655000619E+01  0.22042655345E+02  0.51100000000E-03 0.  1.
        -12    1    3    3    0    0 -0.10657135516E+01 -0.33697593333E+01  0.68589876991E+01  0.77160051578E+01  0.00000000000E+00 0.  1.
</event>
<event>
 7    1  0.2835316E-011  0.5052886E+02  0.7816164E-02  0.1300439E+00
        -11   -1    0    0    0    0  0.00000000000E+00  0.00000000000E+00  0.45593999997E+02  0.45594000000E+02  0.51100000000E-03 0.  1.
         11   -1    0    0    0    0 -0.00000000000E+00 -0.00000000000E+00 -0.45593999997E+02  0.45594000000E+02  0.51100000000E-03 0. -1.
    9900012    2    1    2    0    0  0.19848125926E+02  0.19198229432E+02 -0.29843689294E+02  0.50528857033E+02  0.29999991439E+02 0.  0.
        -12    1    1    2    0    0 -0.19848125926E+02 -0.19198229432E+02  0.29843689294E+02  0.40659142967E+02  0.00000000000E+00 0.  1.
         11    1    3    3    0    0  0.21962954466E+01 -0.55484786596E+01 -0.28812083430E+00  0.59743069055E+01  0.51100000000E-03 0. -1.
        -11    1    3    3    0    0  0.16999169287E-02  0.10614647564E+02 -0.11203859090E+02  0.15433638734E+02  0.51100000000E-03 0.  1.
        -12    1    3    3    0    0  0.17650130563E+02  0.14132060528E+02 -0.18351709370E+02  0.29120911394E+02  0.00000000000E+00 0.  1.
</event>
<event>
 7    1  0.2835316E-011  0.5052884E+02  0.7816164E-02  0.1300439E+00
        -11   -1    0    0    0    0  0.00000000000E+00  0.00000000000E+00  0.45593999997E+02  0.45594000000E+02  0.51100000000E-03 0.  1.
         11   -1    0    0    0    0 -0.00000000000E+00 -0.00000000000E+00 -0.45593999997E+02  0.45594000000E+02  0.51100000000E-03 0. -1.
    9900012    2    1    2    0    0  0.10293056139E+02 -0.18481283871E+02 -0.34722644355E+02  0.50528844952E+02  0.29999954716E+02 0.  0.
        -12    1    1    2    0    0 -0.10293056139E+02  0.18481283871E+02  0.34722644355E+02  0.40659155048E+02  0.00000000000E+00 0.  1.
         11    1    3    3    0    0 -0.58950480318E+01 -0.68176315434E+01 -0.18839016224E+01  0.92076477312E+01  0.51100000000E-03 0. -1.
        -11    1    3    3    0    0  0.52852459808E+01  0.22622161819E+01 -0.26437759770E+01  0.63277957307E+01  0.51100000000E-03 0.  1.
         12    1    3    3    0    0  0.10902858190E+02 -0.13925868510E+02 -0.30194966756E+02  0.34993401490E+02  0.00000000000E+00 0. -1.
</event>
<event>
 7    1  0.2835316E-011  0.5052886E+02  0.7816164E-02  0.1300439E+00
        -11   -1    0    0    0    0  0.00000000000E+00  0.00000000000E+00  0.45593999997E+02  0.45594000000E+02  0.51100000000E-03 0.  1.
         11   -1    0    0    0    0 -0.00000000000E+00 -0.00000000000E+00 -0.45593999997E+02  0.45594000000E+02  0.51100000000E-03 0. -1.
    9900012    2    1    2    0    0 -0.95982023592E+01  0.25540315159E+02 -0.30145192581E+02  0.50528858068E+02  0.29999994582E+02 0.  0.
        -12    1    1    2    0    0  0.95982023592E+01 -0.25540315159E+02  0.30145192581E+02  0.40659141932E+02  0.00000000000E+00 0.  1.
         11    1    3    3    0    0  0.29145229286E+01 -0.14188020740E+01 -0.88216468595E+01  0.93983454289E+01  0.51100000000E-03 0. -1.
        -11    1    3    3    0    0 -0.10964406760E+02  0.33428589026E+01 -0.60272140780E+01  0.12950684578E+02  0.51100000000E-03 0.  1.
         12    1    3    3    0    0 -0.15483185281E+01  0.23616258330E+02 -0.15296331643E+02  0.28179828061E+02  0.00000000000E+00 0. -1.
</event>
<event>
 7    1  0.2835316E-011  0.5052886E+02  0.7816164E-02  0.1300439E+00
        -11   -1    0    0    0    0  0.00000000000E+00  0.00000000000E+00  0.45593999997E+02  0.45594000000E+02  0.51100000000E-03 0.  1.
         11   -1    0    0    0    0 -0.00000000000E+00 -0.00000000000E+00 -0.45593999997E+02  0.45594000000E+02  0.51100000000E-03 0. -1.
    9900012    2    1    2    0    0 -0.25929357385E+02 -0.31261233294E+02 -0.18892210952E+01  0.50528862800E+02  0.30000008967E+02 0.  0.
        -12    1    1    2    0    0  0.25929357385E+02  0.31261233294E+02  0.18892210952E+01  0.40659137200E+02  0.00000000000E+00 0.  1.
         11    1    3    3    0    0  0.20068234750E+01 -0.82166365041E+01 -0.10333442614E+01  0.85210478536E+01  0.51100000000E-03 0. -1.
        -11    1    3    3    0    0 -0.11592878956E+02 -0.14820019606E+00  0.59987581189E+01  0.13053808065E+02  0.51100000000E-03 0.  1.
         12    1    3    3    0    0 -0.16343301904E+02 -0.22896396594E+02 -0.68546349528E+01  0.28954006881E+02  0.00000000000E+00 0. -1.
</event>
<event>
 7    1  0.2835316E-011  0.5052886E+02  0.7816164E-02  0.1300439E+00
        -11   -1    0    0    0    0  0.00000000000E+00  0.00000000000E+00  0.45593999997E+02  0.45594000000E+02  0.51100000000E-03 0. -1.
         11   -1    0    0    0    0 -0.00000000000E+00 -0.00000000000E+00 -0.45593999997E+02  0.45594000000E+02  0.51100000000E-03 0.  1.
    9900012    2    1    2    0    0 -0.14028400847E+00  0.25014449702E+02  0.32053438499E+02  0.50528864580E+02  0.30000014376E+02 0.  0.
        -12    1    1    2    0    0  0.14028400847E+00 -0.25014449702E+02 -0.32053438499E+02  0.40659135420E+02  0.00000000000E+00 0.  1.
         11    1    3    3    0    0 -0.10435332572E+02  0.69361049737E+01  0.20477237971E+02  0.24006728083E+02  0.51100000000E-03 0. -1.
        -11    1    3    3    0    0  0.45949860489E+01 -0.29131842813E+00  0.27179408944E+01  0.53465845343E+01  0.51100000000E-03 0.  1.
        -12    1    3    3    0    0  0.57000625146E+01  0.18369663157E+02  0.88582596344E+01  0.21175551962E+02  0.00000000000E+00 0.  1.
</event>
<event>
 7    1  0.2835316E-011  0.5052886E+02  0.7816164E-02  0.1300439E+00
        -11   -1    0    0    0    0  0.00000000000E+00  0.00000000000E+00  0.45593999997E+02  0.45594000000E+02  0.51100000000E-03 0.  1.
         11   -1    0    0    0    0 -0.00000000000E+00 -0.00000000000E+00 -0.45593999997E+02  0.45594000000E+02  0.51100000000E-03 0. -1.
    9900012    2    1    2    0    0 -0.18836320286E+01  0.22750754531E+02 -0.33645515284E+02  0.50528860805E+02  0.30000002904E+02 0.  0.
        -12    1    1    2    0    0  0.18836320286E+01 -0.22750754531E+02  0.33645515284E+02  0.40659139195E+02  0.00000000000E+00 0.  1.
         11    1    3    3    0    0 -0.69638495765E+01  0.34023272385E+01 -0.21956123990E+02  0.23283951823E+02  0.51100000000E-03 0. -1.
        -11    1    3    3    0    0 -0.28057674933E+01  0.13180414436E+01  0.16098269992E+01  0.34930084028E+01  0.51100000000E-03 0.  1.
         12    1    3    3    0    0  0.78859850412E+01  0.18030385849E+02 -0.13299218293E+02  0.23751900580E+02  0.00000000000E+00 0. -1.
</event>
<event>
 7    1  0.2835316E-011  0.5052885E+02  0.7816164E-02  0.1300439E+00
        -11   -1    0    0    0    0  0.00000000000E+00  0.00000000000E+00  0.45593999997E+02  0.45594000000E+02  0.51100000000E-03 0.  1.
         11   -1    0    0    0    0 -0.00000000000E+00 -0.00000000000E+00 -0.45593999997E+02  0.45594000000E+02  0.51100000000E-03 0. -1.
    9900012    2    1    2    0    0 -0.30226241632E+02 -0.47068164627E+00 -0.27190430501E+02  0.50528846845E+02  0.29999960471E+02 0.  0.
        -12    1    1    2    0    0  0.30226241632E+02  0.47068164627E+00  0.27190430501E+02  0.40659153155E+02  0.00000000000E+00 0.  1.
         11    1    3    3    0    0 -0.11872504655E+02  0.11069236686E+01 -0.18778742809E+02  0.22244613472E+02  0.51100000000E-03 0. -1.
        -11    1    3    3    0    0 -0.55811350419E+01 -0.53327249670E+01 -0.12204977794E+02  0.14441208646E+02  0.51100000000E-03 0.  1.
        -12    1    3    3    0    0 -0.12772601936E+02  0.37551196521E+01  0.37932901023E+01  0.13843024728E+02  0.00000000000E+00 0.  1.
</event>
<event>
 7    1  0.2835316E-011  0.5052886E+02  0.7816164E-02  0.1300439E+00
        -11   -1    0    0    0    0  0.00000000000E+00  0.00000000000E+00  0.45593999997E+02  0.45594000000E+02  0.51100000000E-03 0.  1.
         11   -1    0    0    0    0 -0.00000000000E+00 -0.00000000000E+00 -0.45593999997E+02  0.45594000000E+02  0.51100000000E-03 0. -1.
    9900012    2    1    2    0    0 -0.12127492562E+02 -0.38288566638E+02  0.63305232221E+01  0.50528856683E+02  0.29999990373E+02 0.  0.
        -12    1    1    2    0    0  0.12127492562E+02  0.38288566638E+02 -0.63305232221E+01  0.40659143317E+02  0.00000000000E+00 0.  1.
         11    1    3    3    0    0 -0.13942110502E+02 -0.32833262527E+02  0.10622625307E+02  0.37218889587E+02  0.51100000000E-03 0. -1.
        -11    1    3    3    0    0 -0.20231420404E+01  0.48870779434E-01  0.28596129197E+01  0.35032668155E+01  0.51100000000E-03 0.  1.
        -12    1    3    3    0    0  0.38377599797E+01 -0.55041748901E+01 -0.71517150047E+01  0.98067002805E+01  0.00000000000E+00 0.  1.
</event>
<event>
 7    1  0.2835316E-011  0.5052884E+02  0.7816164E-02  0.1300439E+00
        -11   -1    0    0    0    0  0.00000000000E+00  0.00000000000E+00  0.45593999997E+02  0.45594000000E+02  0.51100000000E-03 0.  1.
         11   -1    0    0    0    0 -0.00000000000E+00 -0.00000000000E+00 -0.45593999997E+02  0.45594000000E+02  0.51100000000E-03 0. -1.
    9900012    2    1    2    0    0 -0.17111489184E+01 -0.21870796146E+02 -0.34233130097E+02  0.50528844193E+02  0.29999952408E+02 0.  0.
        -12    1    1    2    0    0  0.17111489184E+01  0.21870796146E+02  0.34233130097E+02  0.40659155807E+02  0.00000000000E+00 0.  1.
         11    1    3    3    0    0  0.16664767856E+00 -0.10457323663E+02 -0.26916703725E+02  0.28877193931E+02  0.51100000000E-03 0. -1.
        -11    1    3    3    0    0  0.17536132723E+01 -0.11440705014E+01 -0.10176660526E+02  0.10389825627E+02  0.51100000000E-03 0.  1.
         12    1    3    3    0    0 -0.36314098692E+01 -0.10269401982E+02  0.28602341539E+01  0.11261824635E+02  0.00000000000E+00 0. -1.
</event>
<event>
 7    1  0.2835316E-011  0.5052882E+02  0.7816164E-02  0.1300439E+00
        -11   -1    0    0    0    0  0.00000000000E+00  0.00000000000E+00  0.45593999997E+02  0.45594000000E+02  0.51100000000E-03 0. -1.
         11   -1    0    0    0    0 -0.00000000000E+00 -0.00000000000E+00 -0.45593999997E+02  0.45594000000E+02  0.51100000000E-03 0.  1.
    9900012    2    1    2    0    0  0.11428502563E+02 -0.33052572213E+02  0.20738506720E+02  0.50528820696E+02  0.29999880986E+02 0.  0.
        -12    1    1    2    0    0 -0.11428502563E+02  0.33052572213E+02 -0.20738506720E+02  0.40659179304E+02  0.00000000000E+00 0.  1.
         11    1    3    3    0    0 -0.53257838547E+01 -0.17437195548E+02  0.13503837756E+02  0.22688618218E+02  0.51100000000E-03 0. -1.
        -11    1    3    3    0    0  0.61360749764E+01 -0.86209907661E+01  0.10293668434E+02  0.14762537316E+02  0.51100000000E-03 0.  1.
        -12    1    3    3    0    0  0.10618211442E+02 -0.69943858990E+01 -0.30589994700E+01  0.13077665162E+02  0.00000000000E+00 0.  1.
</event>
<event>
 7    1  0.2835316E-011  0.5052890E+02  0.7816164E-02  0.1300439E+00
        -11   -1    0    0    0    0  0.00000000000E+00  0.00000000000E+00  0.45593999997E+02  0.45594000000E+02  0.51100000000E-03 0.  1.
         11   -1    0    0    0    0 -0.00000000000E+00 -0.00000000000E+00 -0.45593999997E+02  0.45594000000E+02  0.51100000000E-03 0. -1.
    9900012    2    1    2    0    0 -0.73378621172E+01  0.34314201508E+02 -0.20539082970E+02  0.50528898007E+02  0.30000115983E+02 0.  0.
        -12    1    1    2    0    0  0.73378621172E+01 -0.34314201508E+02  0.20539082970E+02  0.40659101993E+02  0.00000000000E+00 0.  1.
         11    1    3    3    0    0 -0.11974428849E+01  0.83951829699E+01  0.69970639380E+00  0.85089691420E+01  0.51100000000E-03 0. -1.
        -11    1    3    3    0    0  0.10707662198E+01 -0.31694041940E+01  0.21739982347E+01  0.39897282900E+01  0.51100000000E-03 0.  1.
         12    1    3    3    0    0 -0.72111854520E+01  0.29088422732E+02 -0.23412787599E+02  0.38030200575E+02  0.00000000000E+00 0. -1.
</event>
<event>
 7    1  0.2835316E-011  0.5052885E+02  0.7816164E-02  0.1300439E+00
        -11   -1    0    0    0    0  0.00000000000E+00  0.00000000000E+00  0.45593999997E+02  0.45594000000E+02  0.51100000000E-03 0.  1.
         11   -1    0    0    0    0 -0.00000000000E+00 -0.00000000000E+00 -0.45593999997E+02  0.45594000000E+02  0.51100000000E-03 0. -1.
    9900012    2    1    2    0    0 -0.32510643212E+02 -0.13120065309E+02 -0.20593411630E+02  0.50528848037E+02  0.29999964093E+02 0.  0.
        -12    1    1    2    0    0  0.32510643212E+02  0.13120065309E+02  0.20593411630E+02  0.40659151963E+02  0.00000000000E+00 0.  1.
         11    1    3    3    0    0 -0.56702377966E+00 -0.12438992069E+01 -0.11735694029E+02  0.11815046162E+02  0.51100000000E-03 0. -1.
        -11    1    3    3    0    0 -0.39593745101E+01 -0.82137669281E+01 -0.44591879901E+01  0.10150220266E+02  0.51100000000E-03 0.  1.
        -12    1    3    3    0    0 -0.27984244922E+02 -0.36623991743E+01 -0.43985296105E+01  0.28563581609E+02  0.00000000000E+00 0.  1.
</event>
<event>
 7    1  0.2835316E-011  0.5052885E+02  0.7816164E-02  0.1300439E+00
        -11   -1    0    0    0    0  0.00000000000E+00  0.00000000000E+00  0.45593999997E+02  0.45594000000E+02  0.51100000000E-03 0.  1.
         11   -1    0    0    0    0 -0.00000000000E+00 -0.00000000000E+00 -0.45593999997E+02  0.45594000000E+02  0.51100000000E-03 0. -1.
    9900012    2    1    2    0    0 -0.26650922560E+02 -0.29085242658E+02  0.98459777819E+01  0.50528852293E+02  0.29999977031E+02 0.  0.
        -12    1    1    2    0    0  0.26650922560E+02  0.29085242658E+02 -0.98459777819E+01  0.40659147707E+02  0.00000000000E+00 0.  1.
         11    1    3    3    0    0 -0.23257941542E+02 -0.16400221960E+02  0.14069391184E+02  0.31746604443E+02  0.51100000000E-03 0. -1.
        -11    1    3    3    0    0 -0.45516998438E+01 -0.13543305897E+02  0.33474411756E-01  0.14287764936E+02  0.51100000000E-03 0.  1.
         12    1    3    3    0    0  0.11587188265E+01  0.85828519846E+00 -0.42568878142E+01  0.44944829139E+01  0.00000000000E+00 0. -1.
</event>
<event>
 7    1  0.2835316E-011  0.5052885E+02  0.7816164E-02  0.1300439E+00
        -11   -1    0    0    0    0  0.00000000000E+00  0.00000000000E+00  0.45593999997E+02  0.45594000000E+02  0.51100000000E-03 0. -1.
         11   -1    0    0    0    0 -0.00000000000E+00 -0.00000000000E+00 -0.45593999997E+02  0.45594000000E+02  0.51100000000E-03 0.  1.
    9900012    2    1    2    0    0  0.30134831741E+02  0.15284495903E+02  0.22615088025E+02  0.50528854591E+02  0.29999984013E+02 0.  0.
        -12    1    1    2    0    0 -0.30134831741E+02 -0.15284495903E+02 -0.22615088025E+02  0.40659145409E+02  0.00000000000E+00 0.  1.
         11    1    3    3    0    0  0.31465688892E+01  0.10076614219E+02  0.72725627960E+01  0.12819095903E+02  0.51100000000E-03 0. -1.
        -11    1    3    3    0    0  0.42386111657E+00  0.90055475480E+00 -0.42863560654E+01  0.44003983562E+01  0.51100000000E-03 0.  1.
        -12    1    3    3    0    0  0.26564401735E+02  0.43073269293E+01  0.19628881294E+02  0.33309360331E+02  0.00000000000E+00 0.  1.
</event>
<event>
 7    1  0.2835316E-011  0.5052888E+02  0.7816164E-02  0.1300439E+00
        -11   -1    0    0    0    0  0.00000000000E+00  0.00000000000E+00  0.45593999997E+02  0.45594000000E+02  0.51100000000E-03 0.  1.
         11   -1    0    0    0    0 -0.00000000000E+00 -0.00000000000E+00 -0.45593999997E+02  0.45594000000E+02  0.51100000000E-03 0. -1.
    9900012    2    1    2    0    0 -0.19345215604E+01 -0.14930561701E+02 -0.37769038407E+02  0.50528876688E+02  0.30000051179E+02 0.  0.
        -12    1    1    2    0    0  0.19345215604E+01  0.14930561701E+02  0.37769038407E+02  0.40659123312E+02  0.00000000000E+00 0.  1.
         11    1    3    3    0    0  0.21210288149E+01 -0.11804358153E+02 -0.11282203943E+02  0.16466018363E+02  0.51100000000E-03 0.  1.
        -11    1    3    3    0    0 -0.69029411639E+01 -0.10303259399E+02 -0.21653471365E+02  0.24953568350E+02  0.51100000000E-03 0. -1.
        -12    1    3    3    0    0  0.28473907886E+01  0.71770558521E+01 -0.48333630984E+01  0.91092899750E+01  0.00000000000E+00 0.  1.
</event>
<event>
 7    1  0.2835316E-011  0.5052887E+02  0.7816164E-02  0.1300439E+00
        -11   -1    0    0    0    0  0.00000000000E+00  0.00000000000E+00  0.45593999997E+02  0.45594000000E+02  0.51100000000E-03 0.  1.
         11   -1    0    0    0    0 -0.00000000000E+00 -0.00000000000E+00 -0.45593999997E+02  0.45594000000E+02  0.51100000000E-03 0. -1.
    9900012    2    1    2    0    0  0.33975868606E+02  0.29922846669E+00 -0.22331951243E+02  0.50528865337E+02  0.30000016679E+02 0.  0.
        -12    1    1    2    0    0 -0.33975868606E+02 -0.29922846669E+00  0.22331951243E+02  0.40659134663E+02  0.00000000000E+00 0.  1.
         11    1    3    3    0    0  0.18091913068E+02 -0.77226122875E+01 -0.13851984323E+01  0.19719909583E+02  0.51100000000E-03 0. -1.
        -11    1    3    3    0    0  0.88967337234E+01  0.52309417222E+01 -0.21222922156E+01  0.10536543397E+02  0.51100000000E-03 0.  1.
         12    1    3    3    0    0  0.69872218144E+01  0.27908990320E+01 -0.18824460595E+02  0.20272412357E+02  0.00000000000E+00 0. -1.
</event>
<event>
 7    1  0.2835316E-011  0.5052886E+02  0.7816164E-02  0.1300439E+00
        -11   -1    0    0    0    0  0.00000000000E+00  0.00000000000E+00  0.45593999997E+02  0.45594000000E+02  0.51100000000E-03 0.  1.
         11   -1    0    0    0    0 -0.00000000000E+00 -0.00000000000E+00 -0.45593999997E+02  0.45594000000E+02  0.51100000000E-03 0. -1.
    9900012    2    1    2    0    0 -0.24597328888E+02 -0.31059571732E+02  0.91345728107E+01  0.50528855826E+02  0.29999987768E+02 0.  0.
        -12    1    1    2    0    0  0.24597328888E+02  0.31059571732E+02 -0.91345728107E+01  0.40659144174E+02  0.00000000000E+00 0.  1.
         11    1    3    3    0    0 -0.56437837834E+00 -0.67952919482E+01  0.18735329956E+01  0.70713960264E+01  0.51100000000E-03 0. -1.
        -11    1    3    3    0    0 -0.22284092284E+02 -0.92519026183E+01  0.12857934674E+02  0.27340536852E+02  0.51100000000E-03 0.  1.
         12    1    3    3    0    0 -0.17488582247E+01 -0.15012377165E+02 -0.55968948589E+01  0.16116922948E+02  0.00000000000E+00 0. -1.
</event>
<event>
 7    1  0.2835316E-011  0.5052886E+02  0.7816164E-02  0.1300439E+00
        -11   -1    0    0    0    0  0.00000000000E+00  0.00000000000E+00  0.45593999997E+02  0.45594000000E+02  0.51100000000E-03 0. -1.
         11   -1    0    0    0    0 -0.00000000000E+00 -0.00000000000E+00 -0.45593999997E+02  0.45594000000E+02  0.51100000000E-03 0.  1.
    9900012    2    1    2    0    0  0.85567615011E+01  0.31488302333E+00  0.39747309007E+02  0.50528857215E+02  0.29999991990E+02 0.  0.
        -12    1    1    2    0    0 -0.85567615011E+01 -0.31488302333E+00 -0.39747309007E+02  0.40659142785E+02  0.00000000000E+00 0.  1.
         11    1    3    3    0    0  0.94590419460E+00  0.53735829340E+01  0.27305885786E+01  0.61013312105E+01  0.51100000000E-03 0. -1.
        -11    1    3    3    0    0  0.14459777199E+02 -0.23926463116E+01  0.14009790889E+02  0.20275210332E+02  0.51100000000E-03 0.  1.
        -12    1    3    3    0    0 -0.68489198920E+01 -0.26660535990E+01  0.23006929540E+02  0.24152315672E+02  0.00000000000E+00 0.  1.
</event>
<event>
 7    1  0.2835316E-011  0.5052886E+02  0.7816164E-02  0.1300439E+00
        -11   -1    0    0    0    0  0.00000000000E+00  0.00000000000E+00  0.45593999997E+02  0.45594000000E+02  0.51100000000E-03 0.  1.
         11   -1    0    0    0    0 -0.00000000000E+00 -0.00000000000E+00 -0.45593999997E+02  0.45594000000E+02  0.51100000000E-03 0. -1.
    9900012    2    1    2    0    0 -0.18912734973E+02  0.35424943132E+02 -0.63677057937E+01  0.50528858136E+02  0.29999994791E+02 0.  0.
        -12    1    1    2    0    0  0.18912734973E+02 -0.35424943132E+02  0.63677057937E+01  0.40659141864E+02  0.00000000000E+00 0.  1.
         11    1    3    3    0    0 -0.96364696331E+01  0.22953578721E+02  0.26350747474E+01  0.25033416512E+02  0.51100000000E-03 0. -1.
        -11    1    3    3    0    0 -0.10184120731E+02  0.32057007281E+00  0.25561960005E+00  0.10192370768E+02  0.51100000000E-03 0.  1.
         12    1    3    3    0    0  0.90785539096E+00  0.12150794338E+02 -0.92584001412E+01  0.15303070856E+02  0.00000000000E+00 0. -1.
</event>
<event>
 7    1  0.2835316E-011  0.5052886E+02  0.7816164E-02  0.1300439E+00
        -11   -1    0    0    0    0  0.00000000000E+00  0.00000000000E+00  0.45593999997E+02  0.45594000000E+02  0.51100000000E-03 0.  1.
         11   -1    0    0    0    0 -0.00000000000E+00 -0.00000000000E+00 -0.45593999997E+02  0.45594000000E+02  0.51100000000E-03 0. -1.
    9900012    2    1    2    0    0 -0.32545325084E+02 -0.82869299294E+01 -0.22919297973E+02  0.50528860657E+02  0.30000002454E+02 0.  0.
        -12    1    1    2    0    0  0.32545325084E+02  0.82869299294E+01  0.22919297973E+02  0.40659139343E+02  0.00000000000E+00 0.  1.
         11    1    3    3    0    0 -0.18413558931E+02  0.10863355292E+01 -0.20645113055E+02  0.27685013467E+02  0.51100000000E-03 0. -1.
        -11    1    3    3    0    0 -0.16928620188E+01  0.39377819488E+01 -0.17157232333E+01  0.46168836855E+01  0.51100000000E-03 0.  1.
         12    1    3    3    0    0 -0.12438904134E+02 -0.13311047407E+02 -0.55846168515E+00  0.18226963505E+02  0.00000000000E+00 0. -1.
</event>
<event>
 7    1  0.2835316E-011  0.5052883E+02  0.7816164E-02  0.1300439E+00
        -11   -1    0    0    0    0  0.00000000000E+00  0.00000000000E+00  0.45593999997E+02  0.45594000000E+02  0.51100000000E-03 0. -1.
         11   -1    0    0    0    0 -0.00000000000E+00 -0.00000000000E+00 -0.45593999997E+02  0.45594000000E+02  0.51100000000E-03 0.  1.
    9900012    2    1    2    0    0 -0.21015257493E+02  0.28859845312E+02  0.19458570915E+02  0.50528834969E+02  0.29999924371E+02 0.  0.
        -12    1    1    2    0    0  0.21015257493E+02 -0.28859845312E+02 -0.19458570915E+02  0.40659165031E+02  0.00000000000E+00 0.  1.
         11    1    3    3    0    0  0.25884200028E+01 -0.36397479434E+00 -0.13797260566E+01  0.29556792814E+01  0.51100000000E-03 0.  1.
        -11    1    3    3    0    0 -0.14709103784E+02  0.10731026864E+02 -0.16648365620E+00  0.18208250568E+02  0.51100000000E-03 0. -1.
         12    1    3    3    0    0 -0.88945737119E+01  0.18492793243E+02  0.21004780628E+02  0.29364905120E+02  0.00000000000E+00 0. -1.
</event>
<event>
 7    1  0.2835316E-011  0.5052886E+02  0.7816164E-02  0.1300439E+00
        -11   -1    0    0    0    0  0.00000000000E+00  0.00000000000E+00  0.45593999997E+02  0.45594000000E+02  0.51100000000E-03 0.  1.
         11   -1    0    0    0    0 -0.00000000000E+00 -0.00000000000E+00 -0.45593999997E+02  0.45594000000E+02  0.51100000000E-03 0. -1.
    9900012    2    1    2    0    0 -0.36280505001E+02  0.12531655297E+02 -0.13410757923E+02  0.50528857661E+02  0.29999993348E+02 0.  0.
        -12    1    1    2    0    0  0.36280505001E+02 -0.12531655297E+02  0.13410757923E+02  0.40659142339E+02  0.00000000000E+00 0.  1.
         11    1    3    3    0    0 -0.12592441907E+02  0.20472572833E+01 -0.15312502720E+02  0.19930719891E+02  0.51100000000E-03 0. -1.
        -11    1    3    3    0    0 -0.11298104617E+02 -0.34371118370E+01 -0.42463692632E+00  0.11816988724E+02  0.51100000000E-03 0.  1.
         12    1    3    3    0    0 -0.12389958477E+02  0.13921509851E+02  0.23263817230E+01  0.18781149047E+02  0.00000000000E+00 0. -1.
</event>
<event>
 7    1  0.2835316E-011  0.5052886E+02  0.7816164E-02  0.1300439E+00
        -11   -1    0    0    0    0  0.00000000000E+00  0.00000000000E+00  0.45593999997E+02  0.45594000000E+02  0.51100000000E-03 0.  1.
         11   -1    0    0    0    0 -0.00000000000E+00 -0.00000000000E+00 -0.45593999997E+02  0.45594000000E+02  0.51100000000E-03 0. -1.
    9900012    2    1    2    0    0 -0.24130076812E+02  0.14728367423E+02 -0.29222939419E+02  0.50528860779E+02  0.30000002824E+02 0.  0.
        -12    1    1    2    0    0  0.24130076812E+02 -0.14728367423E+02  0.29222939419E+02  0.40659139221E+02  0.00000000000E+00 0.  1.
         11    1    3    3    0    0 -0.18912373182E+02  0.81367319906E+01 -0.13571335847E+02  0.24658982619E+02  0.51100000000E-03 0. -1.
        -11    1    3    3    0    0  0.21304025440E+01  0.66323240015E+01 -0.17024450347E+02  0.18394516752E+02  0.51100000000E-03 0.  1.
         12    1    3    3    0    0 -0.73481061744E+01 -0.40688569251E-01  0.13728467756E+01  0.74753614079E+01  0.00000000000E+00 0. -1.
</event>
<event>
 7    1  0.2835316E-011  0.5052886E+02  0.7816164E-02  0.1300439E+00
        -11   -1    0    0    0    0  0.00000000000E+00  0.00000000000E+00  0.45593999997E+02  0.45594000000E+02  0.51100000000E-03 0. -1.
         11   -1    0    0    0    0 -0.00000000000E+00 -0.00000000000E+00 -0.45593999997E+02  0.45594000000E+02  0.51100000000E-03 0.  1.
    9900012    2    1    2    0    0  0.30820521371E+02 -0.26148164710E+02 -0.44198244362E+01  0.50528857076E+02  0.29999991567E+02 0.  0.
        -12    1    1    2    0    0 -0.30820521371E+02  0.26148164710E+02  0.44198244362E+01  0.40659142924E+02  0.00000000000E+00 0.  1.
         11    1    3    3    0    0  0.75822287082E+01 -0.11080699700E+02  0.64004619950E+01  0.14874071804E+02  0.51100000000E-03 0. -1.
        -11    1    3    3    0    0 -0.12232416064E+01 -0.17032231550E+00 -0.65883228993E+01  0.67030835147E+01  0.51100000000E-03 0.  1.
         12    1    3    3    0    0  0.24461534269E+02 -0.14897142695E+02 -0.42319635319E+01  0.28951701757E+02  0.00000000000E+00 0. -1.
</event>
<event>
 7    1  0.2835316E-011  0.5052887E+02  0.7816164E-02  0.1300439E+00
        -11   -1    0    0    0    0  0.00000000000E+00  0.00000000000E+00  0.45593999997E+02  0.45594000000E+02  0.51100000000E-03 0. -1.
         11   -1    0    0    0    0 -0.00000000000E+00 -0.00000000000E+00 -0.45593999997E+02  0.45594000000E+02  0.51100000000E-03 0.  1.
    9900012    2    1    2    0    0 -0.17767885820E+02  0.14583254398E+02  0.33537981098E+02  0.50528865092E+02  0.30000015935E+02 0.  0.
        -12    1    1    2    0    0  0.17767885820E+02 -0.14583254398E+02 -0.33537981098E+02  0.40659134908E+02  0.00000000000E+00 0.  1.
         11    1    3    3    0    0 -0.85297758313E+01 -0.46822050217E+01  0.10287624459E+02  0.14160343812E+02  0.51100000000E-03 0. -1.
        -11    1    3    3    0    0 -0.58991751653E+01  0.19349223627E+01 -0.10894113066E+01  0.63032538769E+01  0.51100000000E-03 0.  1.
         12    1    3    3    0    0 -0.33389348233E+01  0.17330537057E+02  0.24339767945E+02  0.30065267404E+02  0.00000000000E+00 0. -1.
</event>
<event>
 7    1  0.2835316E-011  0.5052886E+02  0.7816164E-02  0.1300439E+00
        -11   -1    0    0    0    0  0.00000000000E+00  0.00000000000E+00  0.45593999997E+02  0.45594000000E+02  0.51100000000E-03 0.  1.
         11   -1    0    0    0    0 -0.00000000000E+00 -0.00000000000E+00 -0.45593999997E+02  0.45594000000E+02  0.51100000000E-03 0. -1.
    9900012    2    1    2    0    0 -0.21031957448E+02 -0.33844885339E+02 -0.80837100998E+01  0.50528857527E+02  0.29999992938E+02 0.  0.
        -12    1    1    2    0    0  0.21031957448E+02  0.33844885339E+02  0.80837100998E+01  0.40659142473E+02  0.00000000000E+00 0.  1.
         11    1    3    3    0    0 -0.20086693342E+02 -0.18193143624E+02 -0.90159653100E+01  0.28561396238E+02  0.51100000000E-03 0. -1.
        -11    1    3    3    0    0 -0.76618465907E+01 -0.43891437040E+01  0.15956564524E+00  0.88314176150E+01  0.51100000000E-03 0.  1.
         12    1    3    3    0    0  0.67165824848E+01 -0.11262598011E+02  0.77268956496E+00  0.13136043673E+02  0.00000000000E+00 0. -1.
</event>
<event>
 7    1  0.2835316E-011  0.5052887E+02  0.7816164E-02  0.1300439E+00
        -11   -1    0    0    0    0  0.00000000000E+00  0.00000000000E+00  0.45593999997E+02  0.45594000000E+02  0.51100000000E-03 0.  1.
         11   -1    0    0    0    0 -0.00000000000E+00 -0.00000000000E+00 -0.45593999997E+02  0.45594000000E+02  0.51100000000E-03 0. -1.
    9900012    2    1    2    0    0 -0.38930803447E+02 -0.88308119335E+01 -0.77184253348E+01  0.50528870815E+02  0.30000033329E+02 0.  0.
        -12    1    1    2    0    0  0.38930803447E+02  0.88308119335E+01  0.77184253348E+01  0.40659129185E+02  0.00000000000E+00 0.  1.
         11    1    3    3    0    0 -0.26454533789E+02 -0.53312372884E+01 -0.31371278469E+01  0.27168106677E+02  0.51100000000E-03 0. -1.
        -11    1    3    3    0    0 -0.17443381943E+02 -0.18857532043E+01 -0.24306467490E+01  0.17712585431E+02  0.51100000000E-03 0.  1.
        -12    1    3    3    0    0  0.49671122856E+01 -0.16138214407E+01 -0.21506507388E+01  0.56481787065E+01  0.00000000000E+00 0.  1.
</event>
<event>
 7    1  0.2835316E-011  0.5052886E+02  0.7816164E-02  0.1300439E+00
        -11   -1    0    0    0    0  0.00000000000E+00  0.00000000000E+00  0.45593999997E+02  0.45594000000E+02  0.51100000000E-03 0.  1.
         11   -1    0    0    0    0 -0.00000000000E+00 -0.00000000000E+00 -0.45593999997E+02  0.45594000000E+02  0.51100000000E-03 0. -1.
    9900012    2    1    2    0    0 -0.21764713666E+02 -0.22849465293E+02 -0.25639130079E+02  0.50528858145E+02  0.29999994819E+02 0.  0.
        -12    1    1    2    0    0  0.21764713666E+02  0.22849465293E+02  0.25639130079E+02  0.40659141855E+02  0.00000000000E+00 0.  1.
         11    1    3    3    0    0 -0.94663854629E+00 -0.98600572068E+01 -0.19221078268E+02  0.21623290746E+02  0.51100000000E-03 0. -1.
        -11    1    3    3    0    0 -0.50142072155E+01  0.36169133785E+00 -0.64995720446E+01  0.82169052354E+01  0.51100000000E-03 0.  1.
        -12    1    3    3    0    0 -0.15803867904E+02 -0.13351099424E+02  0.81520233542E-01  0.20688662164E+02  0.00000000000E+00 0.  1.
</event>
<event>
 7    1  0.2835316E-011  0.5052887E+02  0.7816164E-02  0.1300439E+00
        -11   -1    0    0    0    0  0.00000000000E+00  0.00000000000E+00  0.45593999997E+02  0.45594000000E+02  0.51100000000E-03 0.  1.
         11   -1    0    0    0    0 -0.00000000000E+00 -0.00000000000E+00 -0.45593999997E+02  0.45594000000E+02  0.51100000000E-03 0. -1.
    9900012    2    1    2    0    0 -0.37681033479E+02  0.56804309033E+01 -0.14178767318E+02  0.50528867915E+02  0.30000024514E+02 0.  0.
        -12    1    1    2    0    0  0.37681033479E+02 -0.56804309033E+01  0.14178767318E+02  0.40659132085E+02  0.00000000000E+00 0.  1.
         11    1    3    3    0    0 -0.11729150726E+02  0.74673914069E+01 -0.36508606711E+01  0.14375802415E+02  0.51100000000E-03 0. -1.
        -11    1    3    3    0    0 -0.29861637283E+02 -0.20232108127E+01 -0.66886463692E+01  0.30668367314E+02  0.51100000000E-03 0.  1.
        -12    1    3    3    0    0  0.39097545307E+01  0.23625030912E+00 -0.38392602778E+01  0.54846981849E+01  0.00000000000E+00 0.  1.
</event>
<event>
 7    1  0.2835316E-011  0.5052886E+02  0.7816164E-02  0.1300439E+00
        -11   -1    0    0    0    0  0.00000000000E+00  0.00000000000E+00  0.45593999997E+02  0.45594000000E+02  0.51100000000E-03 0.  1.
         11   -1    0    0    0    0 -0.00000000000E+00 -0.00000000000E+00 -0.45593999997E+02  0.45594000000E+02  0.51100000000E-03 0. -1.
    9900012    2    1    2    0    0  0.36267519708E+02  0.33661833322E+00 -0.18377142844E+02  0.50528859862E+02  0.30000000035E+02 0.  0.
        -12    1    1    2    0    0 -0.36267519708E+02 -0.33661833322E+00  0.18377142844E+02  0.40659140138E+02  0.00000000000E+00 0.  1.
         11    1    3    3    0    0  0.14683967280E+02  0.11286632030E+02 -0.52073627107E+01  0.19238596215E+02  0.51100000000E-03 0. -1.
        -11    1    3    3    0    0  0.22151259764E+01 -0.20965762814E-01  0.30464503493E+01  0.37667071358E+01  0.51100000000E-03 0.  1.
         12    1    3    3    0    0  0.19368426452E+02 -0.10929047934E+02 -0.16216230483E+02  0.27523556511E+02  0.00000000000E+00 0. -1.
</event>
<event>
 7    1  0.2835316E-011  0.5052883E+02  0.7816164E-02  0.1300439E+00
        -11   -1    0    0    0    0  0.00000000000E+00  0.00000000000E+00  0.45593999997E+02  0.45594000000E+02  0.51100000000E-03 0.  1.
         11   -1    0    0    0    0 -0.00000000000E+00 -0.00000000000E+00 -0.45593999997E+02  0.45594000000E+02  0.51100000000E-03 0. -1.
    9900012    2    1    2    0    0  0.62391866045E+01  0.18989198334E+02 -0.35406930922E+02  0.50528833012E+02  0.29999918423E+02 0.  0.
        -12    1    1    2    0    0 -0.62391866045E+01 -0.18989198334E+02  0.35406930922E+02  0.40659166988E+02  0.00000000000E+00 0.  1.
         11    1    3    3    0    0  0.12023459678E+01  0.59841090245E+01 -0.99823578224E+01  0.11700541210E+02  0.51100000000E-03 0. -1.
        -11    1    3    3    0    0  0.93514172596E+01  0.15631388304E+02 -0.66578594631E+01  0.19393720581E+02  0.51100000000E-03 0.  1.
        -12    1    3    3    0    0 -0.43145766229E+01 -0.26262989943E+01 -0.18766713637E+02  0.19434571221E+02  0.00000000000E+00 0.  1.
</event>
<event>
 7    1  0.2835316E-011  0.5052884E+02  0.7816164E-02  0.1300439E+00
        -11   -1    0    0    0    0  0.00000000000E+00  0.00000000000E+00  0.45593999997E+02  0.45594000000E+02  0.51100000000E-03 0.  1.
         11   -1    0    0    0    0 -0.00000000000E+00 -0.00000000000E+00 -0.45593999997E+02  0.45594000000E+02  0.51100000000E-03 0. -1.
    9900012    2    1    2    0    0  0.15621544326E+01 -0.13149514491E+02 -0.38442390771E+02  0.50528837859E+02  0.29999933157E+02 0.  0.
        -12    1    1    2    0    0 -0.15621544326E+01  0.13149514491E+02  0.38442390771E+02  0.40659162141E+02  0.00000000000E+00 0.  1.
         11    1    3    3    0    0  0.78789725231E+01 -0.47397166145E+00 -0.33328468610E+02  0.34250396747E+02  0.51100000000E-03 0. -1.
        -11    1    3    3    0    0 -0.39478747695E+01 -0.19824502747E+01 -0.71245240837E+00  0.44747528404E+01  0.51100000000E-03 0.  1.
        -12    1    3    3    0    0 -0.23689433210E+01 -0.10693092555E+02 -0.44014697523E+01  0.11803688272E+02  0.00000000000E+00 0.  1.
</event>
<event>
 7    1  0.2835316E-011  0.5052887E+02  0.7816164E-02  0.1300439E+00
        -11   -1    0    0    0    0  0.00000000000E+00  0.00000000000E+00  0.45593999997E+02  0.45594000000E+02  0.51100000000E-03 0. -1.
         11   -1    0    0    0    0 -0.00000000000E+00 -0.00000000000E+00 -0.45593999997E+02  0.45594000000E+02  0.51100000000E-03 0.  1.
    9900012    2    1    2    0    0  0.13894380445E+02 -0.37175369244E+02  0.88375825093E+01  0.50528871246E+02  0.30000034640E+02 0.  0.
        -12    1    1    2    0    0 -0.13894380445E+02  0.37175369244E+02 -0.88375825093E+01  0.40659128754E+02  0.00000000000E+00 0.  1.
         11    1    3    3    0    0  0.94260094879E+01 -0.74492426104E+01  0.35440171586E+01  0.12526010068E+02  0.51100000000E-03 0. -1.
        -11    1    3    3    0    0  0.28927583258E+01  0.23636516921E+01 -0.30342733330E+01  0.48126619426E+01  0.51100000000E-03 0.  1.
         12    1    3    3    0    0  0.15756126318E+01 -0.32089778326E+02  0.83278386837E+01  0.33190199236E+02  0.00000000000E+00 0. -1.
</event>
<event>
 7    1  0.2835316E-011  0.5052887E+02  0.7816164E-02  0.1300439E+00
        -11   -1    0    0    0    0  0.00000000000E+00  0.00000000000E+00  0.45593999997E+02  0.45594000000E+02  0.51100000000E-03 0. -1.
         11   -1    0    0    0    0 -0.00000000000E+00 -0.00000000000E+00 -0.45593999997E+02  0.45594000000E+02  0.51100000000E-03 0.  1.
    9900012    2    1    2    0    0  0.42964170123E+01 -0.25484120016E+02  0.31388940219E+02  0.50528866460E+02  0.30000020092E+02 0.  0.
        -12    1    1    2    0    0 -0.42964170123E+01  0.25484120016E+02 -0.31388940219E+02  0.40659133540E+02  0.00000000000E+00 0.  1.
         11    1    3    3    0    0 -0.42729303842E+01 -0.84563988448E+01  0.38729279300E+01  0.10235633175E+02  0.51100000000E-03 0. -1.
        -11    1    3    3    0    0 -0.33224604688E+00  0.46949991829E+01  0.98371855470E+01  0.10905210888E+02  0.51100000000E-03 0.  1.
        -12    1    3    3    0    0  0.89015934434E+01 -0.21722720354E+02  0.17678826743E+02  0.29388022397E+02  0.00000000000E+00 0.  1.
</event>
<event>
 7    1  0.2835316E-011  0.5052887E+02  0.7816164E-02  0.1300439E+00
        -11   -1    0    0    0    0  0.00000000000E+00  0.00000000000E+00  0.45593999997E+02  0.45594000000E+02  0.51100000000E-03 0.  1.
         11   -1    0    0    0    0 -0.00000000000E+00 -0.00000000000E+00 -0.45593999997E+02  0.45594000000E+02  0.51100000000E-03 0. -1.
    9900012    2    1    2    0    0  0.36639780598E+02  0.11681567019E+02  0.13199720609E+02  0.50528866285E+02  0.30000019561E+02 0.  0.
        -12    1    1    2    0    0 -0.36639780598E+02 -0.11681567019E+02 -0.13199720609E+02  0.40659133715E+02  0.00000000000E+00 0.  1.
         11    1    3    3    0    0  0.17448055398E+02  0.15761973581E+02  0.68724607939E+01  0.24497044025E+02  0.51100000000E-03 0. -1.
        -11    1    3    3    0    0  0.13772292674E+02  0.32573357887E+01 -0.12028015630E+01  0.14203274756E+02  0.51100000000E-03 0.  1.
        -12    1    3    3    0    0  0.54194325267E+01 -0.73377423507E+01  0.75300613779E+01  0.11828547505E+02  0.00000000000E+00 0.  1.
</event>
<event>
 7    1  0.2835316E-011  0.5052885E+02  0.7816164E-02  0.1300439E+00
        -11   -1    0    0    0    0  0.00000000000E+00  0.00000000000E+00  0.45593999997E+02  0.45594000000E+02  0.51100000000E-03 0.  1.
         11   -1    0    0    0    0 -0.00000000000E+00 -0.00000000000E+00 -0.45593999997E+02  0.45594000000E+02  0.51100000000E-03 0. -1.
    9900012    2    1    2    0    0  0.37087787002E+02 -0.14660384085E+02 -0.79205602768E+01  0.50528854887E+02  0.29999984913E+02 0.  0.
        -12    1    1    2    0    0 -0.37087787002E+02  0.14660384085E+02  0.79205602768E+01  0.40659145113E+02  0.00000000000E+00 0.  1.
         11    1    3    3    0    0  0.24312193104E+02 -0.17837416170E+02 -0.61171557014E+01  0.30768096192E+02  0.51100000000E-03 0. -1.
        -11    1    3    3    0    0 -0.28072092384E+01  0.29677730017E+00 -0.26764511784E+01  0.38899732191E+01  0.51100000000E-03 0.  1.
        -12    1    3    3    0    0  0.15582803137E+02  0.28802547848E+01  0.87304660306E+00  0.15870785476E+02  0.00000000000E+00 0.  1.
</event>
<event>
 7    1  0.2835316E-011  0.5052886E+02  0.7816164E-02  0.1300439E+00
        -11   -1    0    0    0    0  0.00000000000E+00  0.00000000000E+00  0.45593999997E+02  0.45594000000E+02  0.51100000000E-03 0.  1.
         11   -1    0    0    0    0 -0.00000000000E+00 -0.00000000000E+00 -0.45593999997E+02  0.45594000000E+02  0.51100000000E-03 0. -1.
    9900012    2    1    2    0    0 -0.25646302733E+02  0.24866327236E+02 -0.19419036856E+02  0.50528855069E+02  0.29999985469E+02 0.  0.
        -12    1    1    2    0    0  0.25646302733E+02 -0.24866327236E+02  0.19419036856E+02  0.40659144931E+02  0.00000000000E+00 0.  1.
         11    1    3    3    0    0 -0.63768913658E+01  0.88594955854E+01  0.42589004490E+01  0.11717236825E+02  0.51100000000E-03 0. -1.
        -11    1    3    3    0    0  0.23549345446E+01  0.68120754214E+01 -0.64822750887E+01  0.96938113683E+01  0.51100000000E-03 0.  1.
         12    1    3    3    0    0 -0.21624345911E+02  0.91947562294E+01 -0.17195662216E+02  0.29117806876E+02  0.00000000000E+00 0. -1.
</event>
<event>
 7    1  0.2835316E-011  0.5052883E+02  0.7816164E-02  0.1300439E+00
        -11   -1    0    0    0    0  0.00000000000E+00  0.00000000000E+00  0.45593999997E+02  0.45594000000E+02  0.51100000000E-03 0.  1.
         11   -1    0    0    0    0 -0.00000000000E+00 -0.00000000000E+00 -0.45593999997E+02  0.45594000000E+02  0.51100000000E-03 0. -1.
    9900012    2    1    2    0    0 -0.21225580615E+02 -0.29257953077E+02 -0.18617598285E+02  0.50528830596E+02  0.29999911080E+02 0.  0.
        -12    1    1    2    0    0  0.21225580615E+02  0.29257953077E+02  0.18617598285E+02  0.40659169404E+02  0.00000000000E+00 0.  1.
         11    1    3    3    0    0 -0.13418170555E+02 -0.10725967145E+02 -0.13092172052E+02  0.21598579619E+02  0.51100000000E-03 0. -1.
        -11    1    3    3    0    0 -0.54008259632E+01 -0.20635042953E+02 -0.98975156710E+01  0.23514564326E+02  0.51100000000E-03 0.  1.
        -12    1    3    3    0    0 -0.24065840968E+01  0.21030570205E+01  0.43720894384E+01  0.54156866512E+01  0.00000000000E+00 0.  1.
</event>
<event>
 7    1  0.2835316E-011  0.5052886E+02  0.7816164E-02  0.1300439E+00
        -11   -1    0    0    0    0  0.00000000000E+00  0.00000000000E+00  0.45593999997E+02  0.45594000000E+02  0.51100000000E-03 0.  1.
         11   -1    0    0    0    0 -0.00000000000E+00 -0.00000000000E+00 -0.45593999997E+02  0.45594000000E+02  0.51100000000E-03 0. -1.
    9900012    2    1    2    0    0  0.12768807215E+02  0.34453759555E+02 -0.17408678136E+02  0.50528855154E+02  0.29999985726E+02 0.  0.
        -12    1    1    2    0    0 -0.12768807215E+02 -0.34453759555E+02  0.17408678136E+02  0.40659144846E+02  0.00000000000E+00 0.  1.
         11    1    3    3    0    0  0.19628779424E+02  0.20952946704E+02 -0.55728193043E+01  0.29246730972E+02  0.51100000000E-03 0. -1.
        -11    1    3    3    0    0 -0.71265738091E+00  0.10141970228E+02 -0.94536782471E+01  0.13883064262E+02  0.51100000000E-03 0.  1.
        -12    1    3    3    0    0 -0.61473148283E+01  0.33588426229E+01 -0.23821805847E+01  0.73990599202E+01  0.00000000000E+00 0.  1.
</event>
<event>
 7    1  0.2835316E-011  0.5052886E+02  0.7816164E-02  0.1300439E+00
        -11   -1    0    0    0    0  0.00000000000E+00  0.00000000000E+00  0.45593999997E+02  0.45594000000E+02  0.51100000000E-03 0.  1.
         11   -1    0    0    0    0 -0.00000000000E+00 -0.00000000000E+00 -0.45593999997E+02  0.45594000000E+02  0.51100000000E-03 0. -1.
    9900012    2    1    2    0    0  0.93551414941E+01  0.13742136419E+02 -0.37105261690E+02  0.50528862886E+02  0.30000009230E+02 0.  0.
        -12    1    1    2    0    0 -0.93551414941E+01 -0.13742136419E+02  0.37105261690E+02  0.40659137114E+02  0.00000000000E+00 0.  1.
         11    1    3    3    0    0  0.34510457632E+00 -0.21685738843E+01 -0.80036724618E+01  0.82994326913E+01  0.51100000000E-03 0. -1.
        -11    1    3    3    0    0  0.61171820221E+01 -0.36127664569E+01 -0.18518354154E+02  0.19834349957E+02  0.51100000000E-03 0.  1.
        -12    1    3    3    0    0  0.28928548956E+01  0.19523476760E+02 -0.10583235074E+02  0.22395080238E+02  0.00000000000E+00 0.  1.
</event>
<event>
 7    1  0.2835316E-011  0.5052885E+02  0.7816164E-02  0.1300439E+00
        -11   -1    0    0    0    0  0.00000000000E+00  0.00000000000E+00  0.45593999997E+02  0.45594000000E+02  0.51100000000E-03 0. -1.
         11   -1    0    0    0    0 -0.00000000000E+00 -0.00000000000E+00 -0.45593999997E+02  0.45594000000E+02  0.51100000000E-03 0.  1.
    9900012    2    1    2    0    0  0.20522600950E+02  0.16312909070E+02  0.31078585767E+02  0.50528847951E+02  0.29999963830E+02 0.  0.
        -12    1    1    2    0    0 -0.20522600950E+02 -0.16312909070E+02 -0.31078585767E+02  0.40659152049E+02  0.00000000000E+00 0.  1.
         11    1    3    3    0    0  0.54794005861E+01  0.85367516952E+01  0.77905186192E+01  0.12790314340E+02  0.51100000000E-03 0. -1.
        -11    1    3    3    0    0  0.13808258990E+02 -0.52217461451E+01  0.56793877875E+01  0.15817398491E+02  0.51100000000E-03 0.  1.
         12    1    3    3    0    0  0.12349413745E+01  0.12997903520E+02  0.17608679360E+02  0.21921135120E+02  0.00000000000E+00 0. -1.
</event>
<event>
 7    1  0.2835316E-011  0.5052886E+02  0.7816164E-02  0.1300439E+00
        -11   -1    0    0    0    0  0.00000000000E+00  0.00000000000E+00  0.45593999997E+02  0.45594000000E+02  0.51100000000E-03 0. -1.
         11   -1    0    0    0    0 -0.00000000000E+00 -0.00000000000E+00 -0.45593999997E+02  0.45594000000E+02  0.51100000000E-03 0.  1.
    9900012    2    1    2    0    0  0.28192999167E+02 -0.27155886474E+02 -0.10994469290E+02  0.50528859242E+02  0.29999998152E+02 0.  0.
        -12    1    1    2    0    0 -0.28192999167E+02  0.27155886474E+02  0.10994469290E+02  0.40659140758E+02  0.00000000000E+00 0.  1.
         11    1    3    3    0    0  0.15591896999E+01 -0.12939785892E+02 -0.14655044776E+01  0.13115518865E+02  0.51100000000E-03 0. -1.
        -11    1    3    3    0    0  0.25398399741E+01 -0.42032497858E+01 -0.10191715585E+02  0.11313229543E+02  0.51100000000E-03 0.  1.
         12    1    3    3    0    0  0.24093969493E+02 -0.10012850796E+02  0.66275077324E+00  0.26100110834E+02  0.00000000000E+00 0. -1.
</event>
<event>
 7    1  0.2835316E-011  0.5052886E+02  0.7816164E-02  0.1300439E+00
        -11   -1    0    0    0    0  0.00000000000E+00  0.00000000000E+00  0.45593999997E+02  0.45594000000E+02  0.51100000000E-03 0.  1.
         11   -1    0    0    0    0 -0.00000000000E+00 -0.00000000000E+00 -0.45593999997E+02  0.45594000000E+02  0.51100000000E-03 0. -1.
    9900012    2    1    2    0    0  0.93636461841E+01 -0.61774651082E+00 -0.39561425230E+02  0.50528857770E+02  0.29999993678E+02 0.  0.
        -12    1    1    2    0    0 -0.93636461841E+01  0.61774651082E+00  0.39561425230E+02  0.40659142230E+02  0.00000000000E+00 0.  1.
         11    1    3    3    0    0  0.44302488839E+01  0.99649611728E+00 -0.33474354440E+01  0.56414035486E+01  0.51100000000E-03 0. -1.
        -11    1    3    3    0    0  0.12805632138E+02  0.68407569343E+01 -0.24195257865E+02  0.28216850875E+02  0.51100000000E-03 0.  1.
        -12    1    3    3    0    0 -0.78722348378E+01 -0.84549995624E+01 -0.12018731921E+02  0.16670603346E+02  0.00000000000E+00 0.  1.
</event>
<event>
 7    1  0.2835316E-011  0.5052886E+02  0.7816164E-02  0.1300439E+00
        -11   -1    0    0    0    0  0.00000000000E+00  0.00000000000E+00  0.45593999997E+02  0.45594000000E+02  0.51100000000E-03 0.  1.
         11   -1    0    0    0    0 -0.00000000000E+00 -0.00000000000E+00 -0.45593999997E+02  0.45594000000E+02  0.51100000000E-03 0. -1.
    9900012    2    1    2    0    0 -0.29798953580E+02 -0.12484753499E+02 -0.24684386233E+02  0.50528860461E+02  0.30000001856E+02 0.  0.
        -12    1    1    2    0    0  0.29798953580E+02  0.12484753499E+02  0.24684386233E+02  0.40659139539E+02  0.00000000000E+00 0.  1.
         11    1    3    3    0    0 -0.17186616336E+02 -0.11161864143E+02 -0.12397437008E+02  0.23951272134E+02  0.51100000000E-03 0. -1.
        -11    1    3    3    0    0 -0.17300795209E+02  0.10086795747E+01 -0.12450336760E+02  0.21338833966E+02  0.51100000000E-03 0.  1.
        -12    1    3    3    0    0  0.46884579645E+01 -0.23315689307E+01  0.16338753458E+00  0.52387543605E+01  0.00000000000E+00 0.  1.
</event>
<event>
 7    1  0.2835316E-011  0.5052885E+02  0.7816164E-02  0.1300439E+00
        -11   -1    0    0    0    0  0.00000000000E+00  0.00000000000E+00  0.45593999997E+02  0.45594000000E+02  0.51100000000E-03 0. -1.
         11   -1    0    0    0    0 -0.00000000000E+00 -0.00000000000E+00 -0.45593999997E+02  0.45594000000E+02  0.51100000000E-03 0.  1.
    9900012    2    1    2    0    0  0.27397854451E+02 -0.29935195108E+02 -0.25313525627E+01  0.50528854898E+02  0.29999984948E+02 0.  0.
        -12    1    1    2    0    0 -0.27397854451E+02  0.29935195108E+02  0.25313525627E+01  0.40659145102E+02  0.00000000000E+00 0.  1.
         11    1    3    3    0    0  0.13832828233E+02 -0.23237209616E+02 -0.54182701448E+01  0.27580295490E+02  0.51100000000E-03 0. -1.
        -11    1    3    3    0    0 -0.38497179822E+01 -0.29357691022E+01  0.15435109852E+01  0.50814855295E+01  0.51100000000E-03 0.  1.
        -12    1    3    3    0    0  0.17414744200E+02 -0.37622163893E+01  0.13434065968E+01  0.17867073879E+02  0.00000000000E+00 0.  1.
</event>
<event>
 7    1  0.2835316E-011  0.5052886E+02  0.7816164E-02  0.1300439E+00
        -11   -1    0    0    0    0  0.00000000000E+00  0.00000000000E+00  0.45593999997E+02  0.45594000000E+02  0.51100000000E-03 0.  1.
         11   -1    0    0    0    0 -0.00000000000E+00 -0.00000000000E+00 -0.45593999997E+02  0.45594000000E+02  0.51100000000E-03 0. -1.
    9900012    2    1    2    0    0  0.63539268510E+01  0.18499618457E+02 -0.35644879194E+02  0.50528859795E+02  0.29999999833E+02 0.  0.
        -12    1    1    2    0    0 -0.63539268510E+01 -0.18499618457E+02  0.35644879194E+02  0.40659140205E+02  0.00000000000E+00 0.  1.
         11    1    3    3    0    0  0.99671718476E+01  0.16594104723E+02 -0.25989422827E+02  0.32406155671E+02  0.51100000000E-03 0. -1.
        -11    1    3    3    0    0 -0.35138975934E+01  0.19307155967E+01 -0.13599052010E+02  0.14177776795E+02  0.51100000000E-03 0.  1.
        -12    1    3    3    0    0 -0.99347403240E-01 -0.25201863425E-01  0.39435956430E+01  0.39449273296E+01  0.00000000000E+00 0.  1.
</event>
<event>
 7    1  0.2835316E-011  0.5052885E+02  0.7816164E-02  0.1300439E+00
        -11   -1    0    0    0    0  0.00000000000E+00  0.00000000000E+00  0.45593999997E+02  0.45594000000E+02  0.51100000000E-03 0.  1.
         11   -1    0    0    0    0 -0.00000000000E+00 -0.00000000000E+00 -0.45593999997E+02  0.45594000000E+02  0.51100000000E-03 0. -1.
    9900012    2    1    2    0    0  0.16422224114E+01 -0.28916355805E+02 -0.28536180544E+02  0.50528854319E+02  0.29999983188E+02 0.  0.
        -12    1    1    2    0    0 -0.16422224114E+01  0.28916355805E+02  0.28536180544E+02  0.40659145681E+02  0.00000000000E+00 0.  1.
         11    1    3    3    0    0  0.13564244379E+02 -0.16274994129E+02 -0.11196922031E+02  0.23963205602E+02  0.51100000000E-03 0. -1.
        -11    1    3    3    0    0 -0.59389504918E+00 -0.41728776870E+00  0.13451249171E+01  0.15284638416E+01  0.51100000000E-03 0.  1.
        -12    1    3    3    0    0 -0.11328126919E+02 -0.12224073907E+02 -0.18684383429E+02  0.25037184876E+02  0.00000000000E+00 0.  1.
</event>
<event>
 7    1  0.2835316E-011  0.5052888E+02  0.7816164E-02  0.1300439E+00
        -11   -1    0    0    0    0  0.00000000000E+00  0.00000000000E+00  0.45593999997E+02  0.45594000000E+02  0.51100000000E-03 0. -1.
         11   -1    0    0    0    0 -0.00000000000E+00 -0.00000000000E+00 -0.45593999997E+02  0.45594000000E+02  0.51100000000E-03 0.  1.
    9900012    2    1    2    0    0  0.16150107768E+02 -0.14313055979E+02  0.34459753608E+02  0.50528878378E+02  0.30000056317E+02 0.  0.
        -12    1    1    2    0    0 -0.16150107768E+02  0.14313055979E+02 -0.34459753608E+02  0.40659121622E+02  0.00000000000E+00 0.  1.
         11    1    3    3    0    0  0.17300761230E+02 -0.52682685618E+01  0.10140068204E+02  0.20733836505E+02  0.51100000000E-03 0. -1.
        -11    1    3    3    0    0 -0.40750910408E+00 -0.19557445094E+01 -0.18190642619E+01  0.27018503486E+01  0.51100000000E-03 0.  1.
        -12    1    3    3    0    0 -0.74314435820E+00 -0.70890429079E+01  0.26138749665E+02  0.27093191524E+02  0.00000000000E+00 0.  1.
</event>
<event>
 7    1  0.2835316E-011  0.5052886E+02  0.7816164E-02  0.1300439E+00
        -11   -1    0    0    0    0  0.00000000000E+00  0.00000000000E+00  0.45593999997E+02  0.45594000000E+02  0.51100000000E-03 0. -1.
         11   -1    0    0    0    0 -0.00000000000E+00 -0.00000000000E+00 -0.45593999997E+02  0.45594000000E+02  0.51100000000E-03 0.  1.
    9900012    2    1    2    0    0  0.25400374405E+02  0.23380278877E+02  0.21479038496E+02  0.50528861359E+02  0.30000004587E+02 0.  0.
        -12    1    1    2    0    0 -0.25400374405E+02 -0.23380278877E+02 -0.21479038496E+02  0.40659138641E+02  0.00000000000E+00 0.  1.
         11    1    3    3    0    0  0.16676845460E+02  0.10791311408E+01  0.98288952385E+01  0.19387853939E+02  0.51100000000E-03 0. -1.
        -11    1    3    3    0    0 -0.14552510405E+01 -0.19937344836E+01  0.41049108884E+00  0.25022461864E+01  0.51100000000E-03 0.  1.
         12    1    3    3    0    0  0.10178779986E+02  0.24294882220E+02  0.11239652168E+02  0.28638761233E+02  0.00000000000E+00 0. -1.
</event>
<event>
 7    1  0.2835316E-011  0.5052887E+02  0.7816164E-02  0.1300439E+00
        -11   -1    0    0    0    0  0.00000000000E+00  0.00000000000E+00  0.45593999997E+02  0.45594000000E+02  0.51100000000E-03 0.  1.
         11   -1    0    0    0    0 -0.00000000000E+00 -0.00000000000E+00 -0.45593999997E+02  0.45594000000E+02  0.51100000000E-03 0. -1.
    9900012    2    1    2    0    0 -0.31729691245E+02  0.67694245695E+01  0.24506454237E+02  0.50528871692E+02  0.30000035995E+02 0.  0.
        -12    1    1    2    0    0  0.31729691245E+02 -0.67694245695E+01 -0.24506454237E+02  0.40659128308E+02  0.00000000000E+00 0.  1.
         11    1    3    3    0    0  0.13399275886E+01 -0.57484093485E+01  0.56332945344E+01  0.81592661161E+01  0.51100000000E-03 0. -1.
        -11    1    3    3    0    0 -0.14155949247E+02  0.32413709952E+01  0.15133305878E+02  0.20974134835E+02  0.51100000000E-03 0.  1.
        -12    1    3    3    0    0 -0.18913669586E+02  0.92764629228E+01  0.37398538240E+01  0.21395470741E+02  0.00000000000E+00 0.  1.
</event>
<event>
 7    1  0.2835316E-011  0.5052886E+02  0.7816164E-02  0.1300439E+00
        -11   -1    0    0    0    0  0.00000000000E+00  0.00000000000E+00  0.45593999997E+02  0.45594000000E+02  0.51100000000E-03 0.  1.
         11   -1    0    0    0    0 -0.00000000000E+00 -0.00000000000E+00 -0.45593999997E+02  0.45594000000E+02  0.51100000000E-03 0. -1.
    9900012    2    1    2    0    0  0.91865909392E+01  0.92017589426E+00 -0.39597042364E+02  0.50528856616E+02  0.29999990170E+02 0.  0.
        -12    1    1    2    0    0 -0.91865909392E+01 -0.92017589426E+00  0.39597042364E+02  0.40659143384E+02  0.00000000000E+00 0.  1.
         11    1    3    3    0    0  0.43678297816E+01 -0.50083961456E+01  0.53427627825E+00  0.66668898562E+01  0.51100000000E-03 0.  1.
        -11    1    3    3    0    0 -0.32868910416E+01  0.44509828034E+01 -0.40631435049E+01  0.68646948977E+01  0.51100000000E-03 0. -1.
        -12    1    3    3    0    0  0.81056521992E+01  0.14775892364E+01 -0.36068175137E+02  0.36997271862E+02  0.00000000000E+00 0.  1.
</event>
<event>
 7    1  0.2835316E-011  0.5052895E+02  0.7816164E-02  0.1300438E+00
        -11   -1    0    0    0    0  0.00000000000E+00  0.00000000000E+00  0.45593999997E+02  0.45594000000E+02  0.51100000000E-03 0.  1.
         11   -1    0    0    0    0 -0.00000000000E+00 -0.00000000000E+00 -0.45593999997E+02  0.45594000000E+02  0.51100000000E-03 0. -1.
    9900012    2    1    2    0    0 -0.15491074943E+02  0.76529686807E+01 -0.36805117013E+02  0.50528954624E+02  0.30000288074E+02 0.  0.
        -12    1    1    2    0    0  0.15491074943E+02 -0.76529686807E+01  0.36805117013E+02  0.40659045376E+02  0.00000000000E+00 0.  1.
         11    1    3    3    0    0 -0.28068668408E+01 -0.12087661739E+01 -0.29556084126E+02  0.29713662283E+02  0.51100000000E-03 0. -1.
        -11    1    3    3    0    0 -0.12646658828E+01 -0.28225517133E+01 -0.47716188715E+00  0.31295146104E+01  0.51100000000E-03 0.  1.
         12    1    3    3    0    0 -0.11419542220E+02  0.11684286568E+02 -0.67718710000E+01  0.17685777731E+02  0.00000000000E+00 0. -1.
</event>
<event>
 7    1  0.2835316E-011  0.5052886E+02  0.7816164E-02  0.1300439E+00
        -11   -1    0    0    0    0  0.00000000000E+00  0.00000000000E+00  0.45593999997E+02  0.45594000000E+02  0.51100000000E-03 0.  1.
         11   -1    0    0    0    0 -0.00000000000E+00 -0.00000000000E+00 -0.45593999997E+02  0.45594000000E+02  0.51100000000E-03 0. -1.
    9900012    2    1    2    0    0  0.24979442734E+02 -0.31977156784E+02  0.25796969790E+01  0.50528856479E+02  0.29999989755E+02 0.  0.
        -12    1    1    2    0    0 -0.24979442734E+02  0.31977156784E+02 -0.25796969790E+01  0.40659143521E+02  0.00000000000E+00 0.  1.
         11    1    3    3    0    0  0.28373575269E+01 -0.76597355625E+01 -0.35169986029E+01  0.88933360477E+01  0.51100000000E-03 0. -1.
        -11    1    3    3    0    0  0.82998916624E+01  0.53098328239E+00 -0.64721902909E+01  0.10538472009E+02  0.51100000000E-03 0.  1.
        -12    1    3    3    0    0  0.13842193545E+02 -0.24848404504E+02  0.12568885873E+02  0.31097048423E+02  0.00000000000E+00 0.  1.
</event>
<event>
 7    1  0.2835316E-011  0.5052886E+02  0.7816164E-02  0.1300439E+00
        -11   -1    0    0    0    0  0.00000000000E+00  0.00000000000E+00  0.45593999997E+02  0.45594000000E+02  0.51100000000E-03 0.  1.
         11   -1    0    0    0    0 -0.00000000000E+00 -0.00000000000E+00 -0.45593999997E+02  0.45594000000E+02  0.51100000000E-03 0. -1.
    9900012    2    1    2    0    0  0.27204853496E+02 -0.28074156909E+02 -0.11176022695E+02  0.50528858061E+02  0.29999994563E+02 0.  0.
        -12    1    1    2    0    0 -0.27204853496E+02  0.28074156909E+02  0.11176022695E+02  0.40659141939E+02  0.00000000000E+00 0.  1.
         11    1    3    3    0    0  0.21650985625E+02 -0.21931932201E+02 -0.16512103949E+02  0.34963186435E+02  0.51100000000E-03 0. -1.
        -11    1    3    3    0    0  0.69687049167E+01  0.22248806916E-01 -0.46389945847E+00  0.69841639581E+01  0.51100000000E-03 0.  1.
        -12    1    3    3    0    0 -0.14148370457E+01 -0.61644735149E+01  0.57999807130E+01  0.85815076678E+01  0.00000000000E+00 0.  1.
</event>
<event>
 7    1  0.2835316E-011  0.5052888E+02  0.7816164E-02  0.1300439E+00
        -11   -1    0    0    0    0  0.00000000000E+00  0.00000000000E+00  0.45593999997E+02  0.45594000000E+02  0.51100000000E-03 0. -1.
         11   -1    0    0    0    0 -0.00000000000E+00 -0.00000000000E+00 -0.45593999997E+02  0.45594000000E+02  0.51100000000E-03 0.  1.
    9900012    2    1    2    0    0  0.38285493452E+02 -0.11987770272E+02 -0.66089646169E+01  0.50528879765E+02  0.30000060534E+02 0.  0.
        -12    1    1    2    0    0 -0.38285493452E+02  0.11987770272E+02  0.66089646169E+01  0.40659120235E+02  0.00000000000E+00 0.  1.
         11    1    3    3    0    0  0.82873635255E+01  0.73254297316E+00 -0.55242304466E+01  0.99866979378E+01  0.51100000000E-03 0. -1.
        -11    1    3    3    0    0  0.19031421171E+02 -0.15947766109E+02 -0.92466179156E+01  0.26495776622E+02  0.51100000000E-03 0.  1.
         12    1    3    3    0    0  0.10966708755E+02  0.32274528641E+01  0.81618837453E+01  0.14046405205E+02  0.00000000000E+00 0. -1.
</event>
<event>
 7    1  0.2835316E-011  0.5052887E+02  0.7816164E-02  0.1300439E+00
        -11   -1    0    0    0    0  0.00000000000E+00  0.00000000000E+00  0.45593999997E+02  0.45594000000E+02  0.51100000000E-03 0.  1.
         11   -1    0    0    0    0 -0.00000000000E+00 -0.00000000000E+00 -0.45593999997E+02  0.45594000000E+02  0.51100000000E-03 0. -1.
    9900012    2    1    2    0    0 -0.10006877888E+02 -0.88533650213E+01 -0.38401112799E+02  0.50528866444E+02  0.30000020044E+02 0.  0.
        -12    1    1    2    0    0  0.10006877888E+02  0.88533650213E+01  0.38401112799E+02  0.40659133556E+02  0.00000000000E+00 0.  1.
         11    1    3    3    0    0 -0.17807356877E+01  0.17661070500E+01 -0.98824355188E+01  0.10195718991E+02  0.51100000000E-03 0. -1.
        -11    1    3    3    0    0 -0.16529831635E+01 -0.15947443228E+02 -0.27470799096E+02  0.31807202048E+02  0.51100000000E-03 0.  1.
         12    1    3    3    0    0 -0.65731590371E+01  0.53279711565E+01 -0.10478781840E+01  0.85259454056E+01  0.00000000000E+00 0. -1.
</event>
<event>
 7    1  0.2835316E-011  0.5052886E+02  0.7816164E-02  0.1300439E+00
        -11   -1    0    0    0    0  0.00000000000E+00  0.00000000000E+00  0.45593999997E+02  0.45594000000E+02  0.51100000000E-03 0.  1.
         11   -1    0    0    0    0 -0.00000000000E+00 -0.00000000000E+00 -0.45593999997E+02  0.45594000000E+02  0.51100000000E-03 0. -1.
    9900012    2    1    2    0    0 -0.25457726917E+02 -0.22568548775E+02 -0.22265003337E+02  0.50528860472E+02  0.30000001889E+02 0.  0.
        -12    1    1    2    0    0  0.25457726917E+02  0.22568548775E+02  0.22265003337E+02  0.40659139528E+02  0.00000000000E+00 0.  1.
         11    1    3    3    0    0 -0.10445156769E+02 -0.19979804382E+01 -0.78216765212E+01  0.13201206370E+02  0.51100000000E-03 0. -1.
        -11    1    3    3    0    0 -0.40029224626E+01 -0.63067325506E+01  0.63566423225E+01  0.98084231956E+01  0.51100000000E-03 0.  1.
         12    1    3    3    0    0 -0.11009647685E+02 -0.14263835787E+02 -0.20799969138E+02  0.27519230906E+02  0.00000000000E+00 0. -1.
</event>
<event>
 7    1  0.2835316E-011  0.5052886E+02  0.7816164E-02  0.1300439E+00
        -11   -1    0    0    0    0  0.00000000000E+00  0.00000000000E+00  0.45593999997E+02  0.45594000000E+02  0.51100000000E-03 0. -1.
         11   -1    0    0    0    0 -0.00000000000E+00 -0.00000000000E+00 -0.45593999997E+02  0.45594000000E+02  0.51100000000E-03 0.  1.
    9900012    2    1    2    0    0 -0.28266169767E+01  0.36787221498E+02  0.17084386234E+02  0.50528859796E+02  0.29999999837E+02 0.  0.
        -12    1    1    2    0    0  0.28266169767E+01 -0.36787221498E+02 -0.17084386234E+02  0.40659140204E+02  0.00000000000E+00 0.  1.
         11    1    3    3    0    0  0.16399753219E+01  0.22324732703E+02  0.95301528916E+01  0.24329139395E+02  0.51100000000E-03 0. -1.
        -11    1    3    3    0    0  0.70665108065E+01  0.95613642473E+01  0.68462074634E+00  0.11908986820E+02  0.51100000000E-03 0.  1.
         12    1    3    3    0    0 -0.11533103105E+02  0.49011245484E+01  0.68696125962E+01  0.14290733581E+02  0.00000000000E+00 0. -1.
</event>
<event>
 7    1  0.2835316E-011  0.5052885E+02  0.7816164E-02  0.1300439E+00
        -11   -1    0    0    0    0  0.00000000000E+00  0.00000000000E+00  0.45593999997E+02  0.45594000000E+02  0.51100000000E-03 0.  1.
         11   -1    0    0    0    0 -0.00000000000E+00 -0.00000000000E+00 -0.45593999997E+02  0.45594000000E+02  0.51100000000E-03 0. -1.
    9900012    2    1    2    0    0  0.16694334935E+02 -0.19645098252E+02 -0.31440982446E+02  0.50528854886E+02  0.29999984912E+02 0.  0.
        -12    1    1    2    0    0 -0.16694334935E+02  0.19645098252E+02  0.31440982446E+02  0.40659145114E+02  0.00000000000E+00 0.  1.
         11    1    3    3    0    0 -0.66252825777E+01 -0.34929158510E+01 -0.78564747138E+01  0.10854447271E+02  0.51100000000E-03 0. -1.
        -11    1    3    3    0    0  0.68453817548E+01 -0.12644719947E+01  0.42126864524E+00  0.69739234529E+01  0.51100000000E-03 0.  1.
        -12    1    3    3    0    0  0.16474235758E+02 -0.14887710406E+02 -0.24005776377E+02  0.32700484162E+02  0.00000000000E+00 0.  1.
</event>
<event>
 7    1  0.2835316E-011  0.5052888E+02  0.7816164E-02  0.1300439E+00
        -11   -1    0    0    0    0  0.00000000000E+00  0.00000000000E+00  0.45593999997E+02  0.45594000000E+02  0.51100000000E-03 0. -1.
         11   -1    0    0    0    0 -0.00000000000E+00 -0.00000000000E+00 -0.45593999997E+02  0.45594000000E+02  0.51100000000E-03 0.  1.
    9900012    2    1    2    0    0 -0.16572458601E+02 -0.30584084095E+02 -0.21050683125E+02  0.50528882400E+02  0.30000068542E+02 0.  0.
        -12    1    1    2    0    0  0.16572458601E+02  0.30584084095E+02  0.21050683125E+02  0.40659117600E+02  0.00000000000E+00 0.  1.
         11    1    3    3    0    0 -0.56175223928E+01 -0.22287645669E+02 -0.76628945587E+01  0.24228406068E+02  0.51100000000E-03 0. -1.
        -11    1    3    3    0    0 -0.10790186340E+02 -0.45461716024E+00 -0.14809512395E+02  0.18329114972E+02  0.51100000000E-03 0.  1.
         12    1    3    3    0    0 -0.16474986851E+00 -0.78418212655E+01  0.14217238291E+01  0.79713613596E+01  0.00000000000E+00 0. -1.
</event>
<event>
 7    1  0.2835316E-011  0.5052886E+02  0.7816164E-02  0.1300439E+00
        -11   -1    0    0    0    0  0.00000000000E+00  0.00000000000E+00  0.45593999997E+02  0.45594000000E+02  0.51100000000E-03 0.  1.
         11   -1    0    0    0    0 -0.00000000000E+00 -0.00000000000E+00 -0.45593999997E+02  0.45594000000E+02  0.51100000000E-03 0. -1.
    9900012    2    1    2    0    0 -0.34749326215E+02 -0.48327987070E+00 -0.21104893248E+02  0.50528858951E+02  0.29999997267E+02 0.  0.
        -12    1    1    2    0    0  0.34749326215E+02  0.48327987070E+00  0.21104893248E+02  0.40659141049E+02  0.00000000000E+00 0.  1.
         11    1    3    3    0    0 -0.15453226526E+02 -0.38595619994E+01 -0.14437939854E+02  0.21497733285E+02  0.51100000000E-03 0. -1.
        -11    1    3    3    0    0  0.16679328797E+01  0.26134394980E+01 -0.74179510636E+01  0.80397801179E+01  0.51100000000E-03 0.  1.
        -12    1    3    3    0    0 -0.20964032569E+02  0.76284263067E+00  0.75099766997E+00  0.20991345548E+02  0.00000000000E+00 0.  1.
</event>
<event>
 7    1  0.2835316E-011  0.5052886E+02  0.7816164E-02  0.1300439E+00
        -11   -1    0    0    0    0  0.00000000000E+00  0.00000000000E+00  0.45593999997E+02  0.45594000000E+02  0.51100000000E-03 0.  1.
         11   -1    0    0    0    0 -0.00000000000E+00 -0.00000000000E+00 -0.45593999997E+02  0.45594000000E+02  0.51100000000E-03 0. -1.
    9900012    2    1    2    0    0  0.27455923312E+02  0.19640272844E+02 -0.22662693237E+02  0.50528859490E+02  0.29999998906E+02 0.  0.
        -12    1    1    2    0    0 -0.27455923312E+02 -0.19640272844E+02  0.22662693237E+02  0.40659140510E+02  0.00000000000E+00 0.  1.
         11    1    3    3    0    0  0.15999058895E+02  0.35879508980E+00 -0.17083035056E+02  0.23407877017E+02  0.51100000000E-03 0. -1.
        -11    1    3    3    0    0  0.98505325667E+01  0.36067194098E+01 -0.26988482096E+00  0.10493533953E+02  0.51100000000E-03 0.  1.
         12    1    3    3    0    0  0.16063318498E+01  0.15674758344E+02 -0.53097733595E+01  0.16627448520E+02  0.00000000000E+00 0. -1.
</event>
<event>
 7    1  0.2835316E-011  0.5052888E+02  0.7816164E-02  0.1300439E+00
        -11   -1    0    0    0    0  0.00000000000E+00  0.00000000000E+00  0.45593999997E+02  0.45594000000E+02  0.51100000000E-03 0.  1.
         11   -1    0    0    0    0 -0.00000000000E+00 -0.00000000000E+00 -0.45593999997E+02  0.45594000000E+02  0.51100000000E-03 0. -1.
    9900012    2    1    2    0    0  0.15049694771E+02  0.69334704494E+01 -0.37129472808E+02  0.50528879545E+02  0.30000059865E+02 0.  0.
        -12    1    1    2    0    0 -0.15049694771E+02 -0.69334704494E+01  0.37129472808E+02  0.40659120455E+02  0.00000000000E+00 0.  1.
         11    1    3    3    0    0 -0.34158444106E+01  0.41667410925E+01 -0.39899287048E+01  0.67044206088E+01  0.51100000000E-03 0. -1.
        -11    1    3    3    0    0  0.13216555688E+02  0.10440320921E+01 -0.35516176555E+01  0.13725208031E+02  0.51100000000E-03 0.  1.
        -12    1    3    3    0    0  0.52489834939E+01  0.17226972649E+01 -0.29587926448E+02  0.30099250905E+02  0.00000000000E+00 0.  1.
</event>
<event>
 7    1  0.2835316E-011  0.5052886E+02  0.7816164E-02  0.1300439E+00
        -11   -1    0    0    0    0  0.00000000000E+00  0.00000000000E+00  0.45593999997E+02  0.45594000000E+02  0.51100000000E-03 0.  1.
         11   -1    0    0    0    0 -0.00000000000E+00 -0.00000000000E+00 -0.45593999997E+02  0.45594000000E+02  0.51100000000E-03 0. -1.
    9900012    2    1    2    0    0 -0.19633187107E+02  0.41844490868E+01 -0.35358085361E+02  0.50528857725E+02  0.29999993542E+02 0.  0.
        -12    1    1    2    0    0  0.19633187107E+02 -0.41844490868E+01  0.35358085361E+02  0.40659142275E+02  0.00000000000E+00 0.  1.
         11    1    3    3    0    0 -0.15755623840E+01 -0.18120671105E+01 -0.18445694375E+00  0.24083207145E+01  0.51100000000E-03 0.  1.
        -11    1    3    3    0    0  0.41734034440E+01  0.93899636380E+01 -0.12568376126E+02  0.16234309105E+02  0.51100000000E-03 0. -1.
         12    1    3    3    0    0 -0.22231028167E+02 -0.33934474407E+01 -0.22605252291E+02  0.31886227906E+02  0.00000000000E+00 0. -1.
</event>
<event>
 7    1  0.2835316E-011  0.5052886E+02  0.7816164E-02  0.1300439E+00
        -11   -1    0    0    0    0  0.00000000000E+00  0.00000000000E+00  0.45593999997E+02  0.45594000000E+02  0.51100000000E-03 0. -1.
         11   -1    0    0    0    0 -0.00000000000E+00 -0.00000000000E+00 -0.45593999997E+02  0.45594000000E+02  0.51100000000E-03 0.  1.
    9900012    2    1    2    0    0 -0.25121474759E+02  0.26273823367E+02  0.18214367800E+02  0.50528862248E+02  0.30000007289E+02 0.  0.
        -12    1    1    2    0    0  0.25121474759E+02 -0.26273823367E+02 -0.18214367800E+02  0.40659137752E+02  0.00000000000E+00 0.  1.
         11    1    3    3    0    0 -0.12066167927E+02  0.78185517960E+01  0.11560073465E+02  0.18448779347E+02  0.51100000000E-03 0. -1.
        -11    1    3    3    0    0 -0.15344041468E+02  0.17387705774E+02  0.12041816823E+02  0.26130007143E+02  0.51100000000E-03 0.  1.
        -12    1    3    3    0    0  0.22887346360E+01  0.10675657965E+01 -0.53875224875E+01  0.59500757573E+01  0.00000000000E+00 0.  1.
</event>
<event>
 7    1  0.2835316E-011  0.5052887E+02  0.7816164E-02  0.1300439E+00
        -11   -1    0    0    0    0  0.00000000000E+00  0.00000000000E+00  0.45593999997E+02  0.45594000000E+02  0.51100000000E-03 0. -1.
         11   -1    0    0    0    0 -0.00000000000E+00 -0.00000000000E+00 -0.45593999997E+02  0.45594000000E+02  0.51100000000E-03 0.  1.
    9900012    2    1    2    0    0 -0.10930501752E+02 -0.37707727236E+02 -0.10574325644E+02  0.50528869111E+02  0.30000028148E+02 0.  0.
        -12    1    1    2    0    0  0.10930501752E+02  0.37707727236E+02  0.10574325644E+02  0.40659130889E+02  0.00000000000E+00 0.  1.
         11    1    3    3    0    0 -0.16453822131E+00  0.26719943024E+00  0.21082362781E+01  0.21314616645E+01  0.51100000000E-03 0.  1.
        -11    1    3    3    0    0 -0.11145040070E+02 -0.63591103942E+01 -0.10716827988E+02  0.16718271608E+02  0.51100000000E-03 0. -1.
         12    1    3    3    0    0  0.37907653835E+00 -0.31615816272E+02 -0.19657339338E+01  0.31679135838E+02  0.00000000000E+00 0. -1.
</event>
<event>
 7    1  0.2835316E-011  0.5052886E+02  0.7816164E-02  0.1300439E+00
        -11   -1    0    0    0    0  0.00000000000E+00  0.00000000000E+00  0.45593999997E+02  0.45594000000E+02  0.51100000000E-03 0.  1.
         11   -1    0    0    0    0 -0.00000000000E+00 -0.00000000000E+00 -0.45593999997E+02  0.45594000000E+02  0.51100000000E-03 0. -1.
    9900012    2    1    2    0    0  0.38898996191E+02 -0.64568442652E+01 -0.99167813994E+01  0.50528864546E+02  0.30000014275E+02 0.  0.
        -12    1    1    2    0    0 -0.38898996191E+02  0.64568442652E+01  0.99167813994E+01  0.40659135454E+02  0.00000000000E+00 0.  1.
         11    1    3    3    0    0  0.20254356381E+01 -0.97186517274E+01  0.12046262926E+01  0.10000285280E+02  0.51100000000E-03 0. -1.
        -11    1    3    3    0    0  0.78330917745E+01  0.10072400029E+01 -0.79874791806E+01  0.11232616930E+02  0.51100000000E-03 0.  1.
        -12    1    3    3    0    0  0.29040468778E+02  0.22545674594E+01 -0.31339285114E+01  0.29295962336E+02  0.00000000000E+00 0.  1.
</event>
<event>
 7    1  0.2835316E-011  0.5052889E+02  0.7816164E-02  0.1300439E+00
        -11   -1    0    0    0    0  0.00000000000E+00  0.00000000000E+00  0.45593999997E+02  0.45594000000E+02  0.51100000000E-03 0.  1.
         11   -1    0    0    0    0 -0.00000000000E+00 -0.00000000000E+00 -0.45593999997E+02  0.45594000000E+02  0.51100000000E-03 0. -1.
    9900012    2    1    2    0    0 -0.16463787136E+02  0.36443968319E+02 -0.73446909143E+01  0.50528885421E+02  0.30000077727E+02 0.  0.
        -12    1    1    2    0    0  0.16463787136E+02 -0.36443968319E+02  0.73446909143E+01  0.40659114579E+02  0.00000000000E+00 0.  1.
         11    1    3    3    0    0 -0.20272819621E+01  0.23669088313E+02 -0.76139541100E+01  0.24946100119E+02  0.51100000000E-03 0. -1.
        -11    1    3    3    0    0 -0.47220149629E+01  0.13188249532E+02  0.48639883592E+01  0.14828544569E+02  0.51100000000E-03 0.  1.
        -12    1    3    3    0    0 -0.97144902105E+01 -0.41336952541E+00 -0.45947251635E+01  0.10754240733E+02  0.00000000000E+00 0.  1.
</event>
<event>
 7    1  0.2835316E-011  0.5052885E+02  0.7816164E-02  0.1300439E+00
        -11   -1    0    0    0    0  0.00000000000E+00  0.00000000000E+00  0.45593999997E+02  0.45594000000E+02  0.51100000000E-03 0.  1.
         11   -1    0    0    0    0 -0.00000000000E+00 -0.00000000000E+00 -0.45593999997E+02  0.45594000000E+02  0.51100000000E-03 0. -1.
    9900012    2    1    2    0    0 -0.64905150967E+01 -0.15387465136E+02 -0.37071086297E+02  0.50528852090E+02  0.29999976412E+02 0.  0.
        -12    1    1    2    0    0  0.64905150967E+01  0.15387465136E+02  0.37071086297E+02  0.40659147910E+02  0.00000000000E+00 0.  1.
         11    1    3    3    0    0 -0.63487685568E+01 -0.38925933617E+01 -0.15764779223E+02  0.17435234713E+02  0.51100000000E-03 0. -1.
        -11    1    3    3    0    0  0.33298536902E+01 -0.15270529545E+01  0.41501525874E+01  0.55356646470E+01  0.51100000000E-03 0.  1.
         12    1    3    3    0    0 -0.34716002301E+01 -0.99678188198E+01 -0.25456459661E+02  0.27557952730E+02  0.00000000000E+00 0. -1.
</event>
<event>
 7    1  0.2835316E-011  0.5052887E+02  0.7816164E-02  0.1300439E+00
        -11   -1    0    0    0    0  0.00000000000E+00  0.00000000000E+00  0.45593999997E+02  0.45594000000E+02  0.51100000000E-03 0. -1.
         11   -1    0    0    0    0 -0.00000000000E+00 -0.00000000000E+00 -0.45593999997E+02  0.45594000000E+02  0.51100000000E-03 0.  1.
    9900012    2    1    2    0    0 -0.37588324718E+02  0.79506782982E+01  0.13306751392E+02  0.50528867285E+02  0.30000022601E+02 0.  0.
        -12    1    1    2    0    0  0.37588324718E+02 -0.79506782982E+01 -0.13306751392E+02  0.40659132715E+02  0.00000000000E+00 0.  1.
         11    1    3    3    0    0 -0.18351428972E+02  0.24712915742E+01  0.68283761944E+01  0.19735981077E+02  0.51100000000E-03 0.  1.
        -11    1    3    3    0    0 -0.17489578420E+02  0.12647466441E+02  0.10058058887E+01  0.21606837030E+02  0.51100000000E-03 0. -1.
        -12    1    3    3    0    0 -0.17473173260E+01 -0.71680797171E+01  0.54725693091E+01  0.91860491786E+01  0.00000000000E+00 0.  1.
</event>
<event>
 7    1  0.2835316E-011  0.5052886E+02  0.7816164E-02  0.1300439E+00
        -11   -1    0    0    0    0  0.00000000000E+00  0.00000000000E+00  0.45593999997E+02  0.45594000000E+02  0.51100000000E-03 0.  1.
         11   -1    0    0    0    0 -0.00000000000E+00 -0.00000000000E+00 -0.45593999997E+02  0.45594000000E+02  0.51100000000E-03 0. -1.
    9900012    2    1    2    0    0  0.20191990587E+02  0.34400255728E+02 -0.78785471388E+01  0.50528861014E+02  0.30000003539E+02 0.  0.
        -12    1    1    2    0    0 -0.20191990587E+02 -0.34400255728E+02  0.78785471388E+01  0.40659138986E+02  0.00000000000E+00 0.  1.
         11    1    3    3    0    0 -0.39364786575E+00  0.10044732545E+02 -0.81955704574E+00  0.10085796179E+02  0.51100000000E-03 0. -1.
        -11    1    3    3    0    0  0.22441264694E+01  0.94145547097E+01 -0.12850736194E+02  0.16087615267E+02  0.51100000000E-03 0.  1.
        -12    1    3    3    0    0  0.18341511984E+02  0.14940968473E+02  0.57917461014E+01  0.24355449568E+02  0.00000000000E+00 0.  1.
</event>
<event>
 7    1  0.2835316E-011  0.5052886E+02  0.7816164E-02  0.1300439E+00
        -11   -1    0    0    0    0  0.00000000000E+00  0.00000000000E+00  0.45593999997E+02  0.45594000000E+02  0.51100000000E-03 0.  1.
         11   -1    0    0    0    0 -0.00000000000E+00 -0.00000000000E+00 -0.45593999997E+02  0.45594000000E+02  0.51100000000E-03 0. -1.
    9900012    2    1    2    0    0 -0.32949047562E+02  0.18559562269E-01 -0.23822800933E+02  0.50528856821E+02  0.29999990794E+02 0.  0.
        -12    1    1    2    0    0  0.32949047562E+02 -0.18559562269E-01  0.23822800933E+02  0.40659143179E+02  0.00000000000E+00 0.  1.
         11    1    3    3    0    0 -0.58712327290E+01  0.43704447872E+01 -0.16839123590E+02  0.18361052392E+02  0.51100000000E-03 0. -1.
        -11    1    3    3    0    0  0.50476885067E+00 -0.36551212333E+01  0.64686407804E-01  0.36903776792E+01  0.51100000000E-03 0.  1.
         12    1    3    3    0    0 -0.27582583684E+02 -0.69676399170E+00 -0.70483637510E+01  0.28477426750E+02  0.00000000000E+00 0. -1.
</event>
<event>
 7    1  0.2835316E-011  0.5052888E+02  0.7816164E-02  0.1300439E+00
        -11   -1    0    0    0    0  0.00000000000E+00  0.00000000000E+00  0.45593999997E+02  0.45594000000E+02  0.51100000000E-03 0. -1.
         11   -1    0    0    0    0 -0.00000000000E+00 -0.00000000000E+00 -0.45593999997E+02  0.45594000000E+02  0.51100000000E-03 0.  1.
    9900012    2    1    2    0    0  0.38567576858E+02  0.88355216572E+00  0.12842337854E+02  0.50528876907E+02  0.30000051848E+02 0.  0.
        -12    1    1    2    0    0 -0.38567576858E+02 -0.88355216572E+00 -0.12842337854E+02  0.40659123093E+02  0.00000000000E+00 0.  1.
         11    1    3    3    0    0  0.29954795604E+02  0.83720109619E+01  0.13776396554E+02  0.34017193439E+02  0.51100000000E-03 0. -1.
        -11    1    3    3    0    0  0.93170900979E+01 -0.10774672083E+01 -0.28166303280E+01  0.97929826990E+01  0.51100000000E-03 0.  1.
         12    1    3    3    0    0 -0.70430884437E+00 -0.64109915878E+01  0.18825716284E+01  0.67187007690E+01  0.00000000000E+00 0. -1.
</event>
<event>
 7    1  0.2835316E-011  0.5052885E+02  0.7816164E-02  0.1300439E+00
        -11   -1    0    0    0    0  0.00000000000E+00  0.00000000000E+00  0.45593999997E+02  0.45594000000E+02  0.51100000000E-03 0.  1.
         11   -1    0    0    0    0 -0.00000000000E+00 -0.00000000000E+00 -0.45593999997E+02  0.45594000000E+02  0.51100000000E-03 0. -1.
    9900012    2    1    2    0    0 -0.87494250805E+01  0.10389019775E+02 -0.38323396173E+02  0.50528845245E+02  0.29999955608E+02 0.  0.
        -12    1    1    2    0    0  0.87494250805E+01 -0.10389019775E+02  0.38323396173E+02  0.40659154755E+02  0.00000000000E+00 0.  1.
         11    1    3    3    0    0 -0.10654671046E+02  0.10832814235E+02 -0.10962171405E+02  0.18736090348E+02  0.51100000000E-03 0. -1.
        -11    1    3    3    0    0 -0.14207688732E+01  0.59256590073E+01 -0.21997882524E+02  0.22826275532E+02  0.51100000000E-03 0.  1.
        -12    1    3    3    0    0  0.33260148384E+01 -0.63694534678E+01 -0.53633422443E+01  0.89664793655E+01  0.00000000000E+00 0.  1.
</event>
<event>
 7    1  0.2835316E-011  0.5052889E+02  0.7816164E-02  0.1300439E+00
        -11   -1    0    0    0    0  0.00000000000E+00  0.00000000000E+00  0.45593999997E+02  0.45594000000E+02  0.51100000000E-03 0.  1.
         11   -1    0    0    0    0 -0.00000000000E+00 -0.00000000000E+00 -0.45593999997E+02  0.45594000000E+02  0.51100000000E-03 0. -1.
    9900012    2    1    2    0    0 -0.17493260687E+01 -0.19783381793E+02 -0.35478456281E+02  0.50528890357E+02  0.30000092730E+02 0.  0.
        -12    1    1    2    0    0  0.17493260687E+01  0.19783381793E+02  0.35478456281E+02  0.40659109643E+02  0.00000000000E+00 0.  1.
         11    1    3    3    0    0  0.56797565161E+01 -0.54325898488E-01 -0.10454599315E+02  0.11897950768E+02  0.51100000000E-03 0.  1.
        -11    1    3    3    0    0  0.37476172195E+01 -0.14483348077E+02 -0.63672357430E+01  0.16258957458E+02  0.51100000000E-03 0. -1.
         12    1    3    3    0    0 -0.11176699804E+02 -0.52457078174E+01 -0.18656621223E+02  0.22371982131E+02  0.00000000000E+00 0. -1.
</event>
<event>
 7    1  0.2835316E-011  0.5052886E+02  0.7816164E-02  0.1300439E+00
        -11   -1    0    0    0    0  0.00000000000E+00  0.00000000000E+00  0.45593999997E+02  0.45594000000E+02  0.51100000000E-03 0.  1.
         11   -1    0    0    0    0 -0.00000000000E+00 -0.00000000000E+00 -0.45593999997E+02  0.45594000000E+02  0.51100000000E-03 0. -1.
    9900012    2    1    2    0    0  0.14604578174E+01 -0.32346309091E+02 -0.24591639385E+02  0.50528863554E+02  0.30000011260E+02 0.  0.
        -12    1    1    2    0    0 -0.14604578174E+01  0.32346309091E+02  0.24591639385E+02  0.40659136446E+02  0.00000000000E+00 0.  1.
         11    1    3    3    0    0 -0.69106705069E+00 -0.24184025231E+02 -0.11845197056E+02  0.26937953590E+02  0.51100000000E-03 0. -1.
        -11    1    3    3    0    0  0.78032973126E+01 -0.86211424162E+01 -0.13559344311E+02  0.17862568794E+02  0.51100000000E-03 0.  1.
        -12    1    3    3    0    0 -0.56517724445E+01  0.45885855630E+00  0.81290198146E+00  0.57283411709E+01  0.00000000000E+00 0.  1.
</event>
<event>
 7    1  0.2835316E-011  0.5052886E+02  0.7816164E-02  0.1300439E+00
        -11   -1    0    0    0    0  0.00000000000E+00  0.00000000000E+00  0.45593999997E+02  0.45594000000E+02  0.51100000000E-03 0. -1.
         11   -1    0    0    0    0 -0.00000000000E+00 -0.00000000000E+00 -0.45593999997E+02  0.45594000000E+02  0.51100000000E-03 0.  1.
    9900012    2    1    2    0    0  0.39347510445E+02  0.33466841387E+01  0.96818726010E+01  0.50528861666E+02  0.30000005521E+02 0.  0.
        -12    1    1    2    0    0 -0.39347510445E+02 -0.33466841387E+01 -0.96818726010E+01  0.40659138334E+02  0.00000000000E+00 0.  1.
         11    1    3    3    0    0  0.85082934298E+01 -0.14176529270E-01  0.10636378936E+01  0.85745311179E+01  0.51100000000E-03 0. -1.
        -11    1    3    3    0    0  0.23413378192E+01 -0.90270898097E+01 -0.11137493158E+01  0.93920525454E+01  0.51100000000E-03 0.  1.
        -12    1    3    3    0    0  0.28497879196E+02  0.12387950478E+02  0.97319840232E+01  0.32562278003E+02  0.00000000000E+00 0.  1.
</event>
<event>
 7    1  0.2835316E-011  0.5052885E+02  0.7816164E-02  0.1300439E+00
        -11   -1    0    0    0    0  0.00000000000E+00  0.00000000000E+00  0.45593999997E+02  0.45594000000E+02  0.51100000000E-03 0. -1.
         11   -1    0    0    0    0 -0.00000000000E+00 -0.00000000000E+00 -0.45593999997E+02  0.45594000000E+02  0.51100000000E-03 0.  1.
    9900012    2    1    2    0    0  0.35264189289E+01  0.37600149637E+02  0.15065175990E+02  0.50528850835E+02  0.29999972598E+02 0.  0.
        -12    1    1    2    0    0 -0.35264189289E+01 -0.37600149637E+02 -0.15065175990E+02  0.40659149165E+02  0.00000000000E+00 0.  1.
         11    1    3    3    0    0 -0.11289135176E+02  0.11064728549E+02  0.43250381356E+01  0.16388372281E+02  0.51100000000E-03 0. -1.
        -11    1    3    3    0    0  0.30263879705E+01  0.16840861936E+01  0.49344109222E+01  0.60285638311E+01  0.51100000000E-03 0.  1.
         12    1    3    3    0    0  0.11789166134E+02  0.24851334894E+02  0.58057269318E+01  0.28111914723E+02  0.00000000000E+00 0. -1.
</event>
<event>
 7    1  0.2835316E-011  0.5052887E+02  0.7816164E-02  0.1300439E+00
        -11   -1    0    0    0    0  0.00000000000E+00  0.00000000000E+00  0.45593999997E+02  0.45594000000E+02  0.51100000000E-03 0.  1.
         11   -1    0    0    0    0 -0.00000000000E+00 -0.00000000000E+00 -0.45593999997E+02  0.45594000000E+02  0.51100000000E-03 0. -1.
    9900012    2    1    2    0    0 -0.48228364903E+00  0.19714877728E+02 -0.35556373504E+02  0.50528871897E+02  0.30000036618E+02 0.  0.
        -12    1    1    2    0    0  0.48228364903E+00 -0.19714877728E+02  0.35556373504E+02  0.40659128103E+02  0.00000000000E+00 0.  1.
         11    1    3    3    0    0 -0.11301053590E+02  0.68045921429E+01 -0.75980897652E+01  0.15223247184E+02  0.51100000000E-03 0. -1.
        -11    1    3    3    0    0  0.29644361783E+01  0.12000560618E+02 -0.22582683345E+02  0.25744493087E+02  0.51100000000E-03 0.  1.
        -12    1    3    3    0    0  0.78543337628E+01  0.90972496706E+00 -0.53756003940E+01  0.95611316260E+01  0.00000000000E+00 0.  1.
</event>
<event>
 7    1  0.2835316E-011  0.5052886E+02  0.7816164E-02  0.1300439E+00
        -11   -1    0    0    0    0  0.00000000000E+00  0.00000000000E+00  0.45593999997E+02  0.45594000000E+02  0.51100000000E-03 0.  1.
         11   -1    0    0    0    0 -0.00000000000E+00 -0.00000000000E+00 -0.45593999997E+02  0.45594000000E+02  0.51100000000E-03 0. -1.
    9900012    2    1    2    0    0  0.49414901574E+01  0.49465323187E+01 -0.40053457317E+02  0.50528856502E+02  0.29999989824E+02 0.  0.
        -12    1    1    2    0    0 -0.49414901574E+01 -0.49465323187E+01  0.40053457317E+02  0.40659143498E+02  0.00000000000E+00 0.  1.
         11    1    3    3    0    0  0.30245748126E+01  0.10240253924E+02 -0.11328836467E+02  0.15567703401E+02  0.51100000000E-03 0. -1.
        -11    1    3    3    0    0 -0.53995095002E+01 -0.40128873652E+01 -0.17062696688E+01  0.69404124007E+01  0.51100000000E-03 0.  1.
        -12    1    3    3    0    0  0.73164248449E+01 -0.12808342398E+01 -0.27018351181E+02  0.28020740701E+02  0.00000000000E+00 0.  1.
</event>
<event>
 7    1  0.2835316E-011  0.5052887E+02  0.7816164E-02  0.1300439E+00
        -11   -1    0    0    0    0  0.00000000000E+00  0.00000000000E+00  0.45593999997E+02  0.45594000000E+02  0.51100000000E-03 0. -1.
         11   -1    0    0    0    0 -0.00000000000E+00 -0.00000000000E+00 -0.45593999997E+02  0.45594000000E+02  0.51100000000E-03 0.  1.
    9900012    2    1    2    0    0  0.31525448764E+02  0.10193931759E+02  0.23566809258E+02  0.50528872328E+02  0.30000037927E+02 0.  0.
        -12    1    1    2    0    0 -0.31525448764E+02 -0.10193931759E+02 -0.23566809258E+02  0.40659127672E+02  0.00000000000E+00 0.  1.
         11    1    3    3    0    0  0.88335246349E+01  0.59331195612E+01  0.28891596762E+01  0.11026346135E+02  0.51100000000E-03 0. -1.
        -11    1    3    3    0    0  0.24211197147E+02  0.23772015640E+00  0.23982208951E+02  0.34079098060E+02  0.51100000000E-03 0.  1.
         12    1    3    3    0    0 -0.15192730182E+01  0.40230920416E+01 -0.33045593693E+01  0.54234281321E+01  0.00000000000E+00 0. -1.
</event>
<event>
 7    1  0.2835316E-011  0.5052885E+02  0.7816164E-02  0.1300439E+00
        -11   -1    0    0    0    0  0.00000000000E+00  0.00000000000E+00  0.45593999997E+02  0.45594000000E+02  0.51100000000E-03 0. -1.
         11   -1    0    0    0    0 -0.00000000000E+00 -0.00000000000E+00 -0.45593999997E+02  0.45594000000E+02  0.51100000000E-03 0.  1.
    9900012    2    1    2    0    0  0.10423741131E+02  0.39285485459E+02 -0.10783463215E+01  0.50528848783E+02  0.29999966360E+02 0.  0.
        -12    1    1    2    0    0 -0.10423741131E+02 -0.39285485459E+02  0.10783463215E+01  0.40659151217E+02  0.00000000000E+00 0.  1.
         11    1    3    3    0    0 -0.23163027966E+01  0.79360218393E+01  0.74602273045E+01  0.11135559841E+02  0.51100000000E-03 0.  1.
        -11    1    3    3    0    0  0.46161599827E+01  0.13587972690E+02 -0.12995068067E+02  0.19360106641E+02  0.51100000000E-03 0. -1.
         12    1    3    3    0    0  0.81238839444E+01  0.17761490930E+02  0.44564944413E+01  0.20033182301E+02  0.00000000000E+00 0. -1.
</event>
<event>
 7    1  0.2835316E-011  0.5052889E+02  0.7816164E-02  0.1300439E+00
        -11   -1    0    0    0    0  0.00000000000E+00  0.00000000000E+00  0.45593999997E+02  0.45594000000E+02  0.51100000000E-03 0.  1.
         11   -1    0    0    0    0 -0.00000000000E+00 -0.00000000000E+00 -0.45593999997E+02  0.45594000000E+02  0.51100000000E-03 0. -1.
    9900012    2    1    2    0    0  0.18227508795E+02 -0.26556687198E+02 -0.24812572926E+02  0.50528886791E+02  0.30000081888E+02 0.  0.
        -12    1    1    2    0    0 -0.18227508795E+02  0.26556687198E+02  0.24812572926E+02  0.40659113209E+02  0.00000000000E+00 0.  1.
         11    1    3    3    0    0  0.14426939312E+02 -0.12354687468E+02 -0.63292475545E+01  0.20020845517E+02  0.51100000000E-03 0. -1.
        -11    1    3    3    0    0 -0.98709504815E-01 -0.61524849011E+01  0.32839871545E+01  0.69747678038E+01  0.51100000000E-03 0.  1.
        -12    1    3    3    0    0  0.38992789875E+01 -0.80495148280E+01 -0.21767312526E+02  0.23533273470E+02  0.00000000000E+00 0.  1.
</event>
<event>
 7    1  0.2835316E-011  0.5052886E+02  0.7816164E-02  0.1300439E+00
        -11   -1    0    0    0    0  0.00000000000E+00  0.00000000000E+00  0.45593999997E+02  0.45594000000E+02  0.51100000000E-03 0. -1.
         11   -1    0    0    0    0 -0.00000000000E+00 -0.00000000000E+00 -0.45593999997E+02  0.45594000000E+02  0.51100000000E-03 0.  1.
    9900012    2    1    2    0    0 -0.15464670363E+02  0.32338237864E+02  0.19189780781E+02  0.50528863954E+02  0.30000012475E+02 0.  0.
        -12    1    1    2    0    0  0.15464670363E+02 -0.32338237864E+02 -0.19189780781E+02  0.40659136046E+02  0.00000000000E+00 0.  1.
         11    1    3    3    0    0 -0.13156350100E+01 -0.41136212220E+01 -0.31177697781E+01  0.53266559574E+01  0.51100000000E-03 0.  1.
        -11    1    3    3    0    0 -0.38173692921E+01  0.65185531787E+01  0.55634029329E+01  0.93816467804E+01  0.51100000000E-03 0. -1.
        -12    1    3    3    0    0 -0.10331666061E+02  0.29933305907E+02  0.16744147626E+02  0.35820561216E+02  0.00000000000E+00 0.  1.
</event>
<event>
 7    1  0.2835316E-011  0.5052886E+02  0.7816164E-02  0.1300439E+00
        -11   -1    0    0    0    0  0.00000000000E+00  0.00000000000E+00  0.45593999997E+02  0.45594000000E+02  0.51100000000E-03 0.  1.
         11   -1    0    0    0    0 -0.00000000000E+00 -0.00000000000E+00 -0.45593999997E+02  0.45594000000E+02  0.51100000000E-03 0. -1.
    9900012    2    1    2    0    0  0.18639987438E+02  0.34787346609E+02  0.97753125791E+01  0.50528863858E+02  0.30000012184E+02 0.  0.
        -12    1    1    2    0    0 -0.18639987438E+02 -0.34787346609E+02 -0.97753125791E+01  0.40659136142E+02  0.00000000000E+00 0.  1.
         11    1    3    3    0    0  0.38825525077E+01  0.11995262619E+02  0.10781163302E+01  0.12653966744E+02  0.51100000000E-03 0. -1.
        -11    1    3    3    0    0  0.22068904725E+01  0.74941476002E+01 -0.85816906877E+01  0.11605086347E+02  0.51100000000E-03 0.  1.
        -12    1    3    3    0    0  0.12550544458E+02  0.15297936390E+02  0.17278886937E+02  0.26269810767E+02  0.00000000000E+00 0.  1.
</event>
<event>
 7    1  0.2835316E-011  0.5052886E+02  0.7816164E-02  0.1300439E+00
        -11   -1    0    0    0    0  0.00000000000E+00  0.00000000000E+00  0.45593999997E+02  0.45594000000E+02  0.51100000000E-03 0.  1.
         11   -1    0    0    0    0 -0.00000000000E+00 -0.00000000000E+00 -0.45593999997E+02  0.45594000000E+02  0.51100000000E-03 0. -1.
    9900012    2    1    2    0    0 -0.38335686684E+02  0.35211682457E+01 -0.13082131034E+02  0.50528860170E+02  0.30000000971E+02 0.  0.
        -12    1    1    2    0    0  0.38335686684E+02 -0.35211682457E+01  0.13082131034E+02  0.40659139830E+02  0.00000000000E+00 0.  1.
         11    1    3    3    0    0 -0.27523398307E+02  0.48591834593E+01 -0.11591437021E+02  0.30257404561E+02  0.51100000000E-03 0. -1.
        -11    1    3    3    0    0 -0.13876944325E+02 -0.38472561272E+01  0.25373898407E+01  0.14622219769E+02  0.51100000000E-03 0.  1.
         12    1    3    3    0    0  0.30646559481E+01  0.25092409137E+01 -0.40280838532E+01  0.56492358396E+01  0.00000000000E+00 0. -1.
</event>
<event>
 7    1  0.2835316E-011  0.5052885E+02  0.7816164E-02  0.1300439E+00
        -11   -1    0    0    0    0  0.00000000000E+00  0.00000000000E+00  0.45593999997E+02  0.45594000000E+02  0.51100000000E-03 0.  1.
         11   -1    0    0    0    0 -0.00000000000E+00 -0.00000000000E+00 -0.45593999997E+02  0.45594000000E+02  0.51100000000E-03 0. -1.
    9900012    2    1    2    0    0 -0.44636053071E+01 -0.54438274529E+01 -0.40045069882E+02  0.50528847875E+02  0.29999963602E+02 0.  0.
        -12    1    1    2    0    0  0.44636053071E+01  0.54438274529E+01  0.40045069882E+02  0.40659152125E+02  0.00000000000E+00 0.  1.
         11    1    3    3    0    0  0.59032500596E+01 -0.15880823969E+01 -0.25580240281E+01  0.66267529118E+01  0.51100000000E-03 0.  1.
        -11    1    3    3    0    0 -0.22176261476E+01  0.80430021363E+01 -0.11953807584E+02  0.14577423130E+02  0.51100000000E-03 0. -1.
        -12    1    3    3    0    0 -0.81492292191E+01 -0.11898747192E+02 -0.25533238270E+02  0.29324671833E+02  0.00000000000E+00 0.  1.
</event>
<event>
 7    1  0.2835316E-011  0.5052886E+02  0.7816164E-02  0.1300439E+00
        -11   -1    0    0    0    0  0.00000000000E+00  0.00000000000E+00  0.45593999997E+02  0.45594000000E+02  0.51100000000E-03 0.  1.
         11   -1    0    0    0    0 -0.00000000000E+00 -0.00000000000E+00 -0.45593999997E+02  0.45594000000E+02  0.51100000000E-03 0. -1.
    9900012    2    1    2    0    0 -0.18139844748E+02 -0.33385322424E+02 -0.14475224142E+02  0.50528857919E+02  0.29999994129E+02 0.  0.
        -12    1    1    2    0    0  0.18139844748E+02  0.33385322424E+02  0.14475224142E+02  0.40659142081E+02  0.00000000000E+00 0.  1.
         11    1    3    3    0    0  0.33153326454E+01 -0.79975078802E+01 -0.34149849319E+01  0.93066473657E+01  0.51100000000E-03 0. -1.
        -11    1    3    3    0    0 -0.35636269756E+01 -0.12319699229E+02  0.50972006126E+01  0.13800575374E+02  0.51100000000E-03 0.  1.
         12    1    3    3    0    0 -0.17891550418E+02 -0.13068115315E+02 -0.16157439822E+02  0.27421635178E+02  0.00000000000E+00 0. -1.
</event>
<event>
 7    1  0.2835316E-011  0.5052886E+02  0.7816164E-02  0.1300439E+00
        -11   -1    0    0    0    0  0.00000000000E+00  0.00000000000E+00  0.45593999997E+02  0.45594000000E+02  0.51100000000E-03 0.  1.
         11   -1    0    0    0    0 -0.00000000000E+00 -0.00000000000E+00 -0.45593999997E+02  0.45594000000E+02  0.51100000000E-03 0. -1.
    9900012    2    1    2    0    0 -0.33644316122E+01 -0.40167628756E+02  0.53298919476E+01  0.50528861444E+02  0.30000004846E+02 0.  0.
        -12    1    1    2    0    0  0.33644316122E+01  0.40167628756E+02 -0.53298919476E+01  0.40659138556E+02  0.00000000000E+00 0.  1.
         11    1    3    3    0    0 -0.10667427313E+02 -0.26740230439E+02  0.19614115417E+01  0.28856213628E+02  0.51100000000E-03 0. -1.
        -11    1    3    3    0    0 -0.24697239252E+01  0.18850277177E+01 -0.36317746621E+00  0.31280607245E+01  0.51100000000E-03 0.  1.
        -12    1    3    3    0    0  0.97727196262E+01 -0.15312426034E+02  0.37316578721E+01  0.18544587092E+02  0.00000000000E+00 0.  1.
</event>
<event>
 7    1  0.3097087E-011  0.5052892E+02  0.7816164E-02  0.1300439E+00
        -11   -1    0    0    0    0  0.00000000000E+00  0.00000000000E+00  0.45593999997E+02  0.45594000000E+02  0.51100000000E-03 0. -1.
         11   -1    0    0    0    0 -0.00000000000E+00 -0.00000000000E+00 -0.45593999997E+02  0.45594000000E+02  0.51100000000E-03 0.  1.
    9900012    2    1    2    0    0  0.21817390795E+02  0.11964058846E+02  0.32156234877E+02  0.50528921228E+02  0.30000186563E+02 0.  0.
        -12    1    1    2    0    0 -0.21817390795E+02 -0.11964058846E+02 -0.32156234877E+02  0.40659078772E+02  0.00000000000E+00 0.  1.
         11    1    3    3    0    0  0.11822764322E+02  0.12680404431E+02  0.89882916936E+01  0.19528435692E+02  0.51100000000E-03 0. -1.
        -11    1    3    3    0    0 -0.25479959681E+01  0.56205054264E+01  0.99500618641E+01  0.11708377175E+02  0.51100000000E-03 0.  1.
        -12    1    3    3    0    0  0.12542622440E+02 -0.63368510115E+01  0.13217881319E+02  0.19292108361E+02  0.00000000000E+00 0.  1.
</event>
<event>
 7    1  0.2835316E-011  0.5052884E+02  0.7816164E-02  0.1300439E+00
        -11   -1    0    0    0    0  0.00000000000E+00  0.00000000000E+00  0.45593999997E+02  0.45594000000E+02  0.51100000000E-03 0. -1.
         11   -1    0    0    0    0 -0.00000000000E+00 -0.00000000000E+00 -0.45593999997E+02  0.45594000000E+02  0.51100000000E-03 0.  1.
    9900012    2    1    2    0    0  0.23923398725E+02  0.31531365870E+02  0.93064990311E+01  0.50528844028E+02  0.29999951906E+02 0.  0.
        -12    1    1    2    0    0 -0.23923398725E+02 -0.31531365870E+02 -0.93064990311E+01  0.40659155972E+02  0.00000000000E+00 0.  1.
         11    1    3    3    0    0  0.41010203496E+01  0.16545064641E+01 -0.33160110892E+01  0.55273582616E+01  0.51100000000E-03 0. -1.
        -11    1    3    3    0    0 -0.15855452752E+01 -0.60458967006E+00 -0.39001271070E+01  0.42532898092E+01  0.51100000000E-03 0.  1.
         12    1    3    3    0    0  0.21407923650E+02  0.30481449076E+02  0.16522637227E+02  0.40748195957E+02  0.00000000000E+00 0. -1.
</event>
<event>
 7    1  0.2923362E-011  0.5052886E+02  0.7816164E-02  0.1300439E+00
        -11   -1    0    0    0    0  0.00000000000E+00  0.00000000000E+00  0.45593999997E+02  0.45594000000E+02  0.51100000000E-03 0.  1.
         11   -1    0    0    0    0 -0.00000000000E+00 -0.00000000000E+00 -0.45593999997E+02  0.45594000000E+02  0.51100000000E-03 0. -1.
    9900012    2    1    2    0    0  0.17587220961E+01  0.33781546462E+02 -0.22558353617E+02  0.50528864462E+02  0.30000014018E+02 0.  0.
        -12    1    1    2    0    0 -0.17587220961E+01 -0.33781546462E+02  0.22558353617E+02  0.40659135538E+02  0.00000000000E+00 0.  1.
         11    1    3    3    0    0 -0.10825470628E+01  0.19224077078E+02 -0.86522341216E+01  0.21109197124E+02  0.51100000000E-03 0. -1.
        -11    1    3    3    0    0 -0.16242296579E+01  0.13123507257E+02 -0.18575427489E+02  0.22801558530E+02  0.51100000000E-03 0.  1.
        -12    1    3    3    0    0  0.44654988168E+01  0.14339621266E+01  0.46693079935E+01  0.66181088085E+01  0.00000000000E+00 0.  1.
</event>
<event>
 7    1  0.2835316E-011  0.5052886E+02  0.7816164E-02  0.1300439E+00
        -11   -1    0    0    0    0  0.00000000000E+00  0.00000000000E+00  0.45593999997E+02  0.45594000000E+02  0.51100000000E-03 0.  1.
         11   -1    0    0    0    0 -0.00000000000E+00 -0.00000000000E+00 -0.45593999997E+02  0.45594000000E+02  0.51100000000E-03 0. -1.
    9900012    2    1    2    0    0  0.10219842339E+02  0.29563813183E+02 -0.25975014307E+02  0.50528860860E+02  0.30000003070E+02 0.  0.
        -12    1    1    2    0    0 -0.10219842339E+02 -0.29563813183E+02  0.25975014307E+02  0.40659139140E+02  0.00000000000E+00 0.  1.
         11    1    3    3    0    0  0.36477474501E+01  0.20154494359E+02 -0.29775645727E+02  0.36139988698E+02  0.51100000000E-03 0. -1.
        -11    1    3    3    0    0 -0.86847728630E+00 -0.79683298984E+00 -0.64141523913E-01  0.11803855331E+01  0.51100000000E-03 0.  1.
         12    1    3    3    0    0  0.74405721751E+01  0.10206151813E+02  0.38647729434E+01  0.13208486629E+02  0.00000000000E+00 0. -1.
</event>
<event>
 7    1  0.2835316E-011  0.5052884E+02  0.7816164E-02  0.1300439E+00
        -11   -1    0    0    0    0  0.00000000000E+00  0.00000000000E+00  0.45593999997E+02  0.45594000000E+02  0.51100000000E-03 0.  1.
         11   -1    0    0    0    0 -0.00000000000E+00 -0.00000000000E+00 -0.45593999997E+02  0.45594000000E+02  0.51100000000E-03 0. -1.
    9900012    2    1    2    0    0 -0.32130911729E+02 -0.24844661423E+02  0.18746346030E+01  0.50528844271E+02  0.29999952645E+02 0.  0.
        -12    1    1    2    0    0  0.32130911729E+02  0.24844661423E+02 -0.18746346030E+01  0.40659155729E+02  0.00000000000E+00 0.  1.
         11    1    3    3    0    0 -0.76745290642E+01 -0.21183911208E+01  0.21721997233E+01  0.82525407722E+01  0.51100000000E-03 0. -1.
        -11    1    3    3    0    0 -0.95743460501E+01  0.17768565248E+01  0.78107348612E+01  0.12483304880E+02  0.51100000000E-03 0.  1.
        -12    1    3    3    0    0 -0.14882036614E+02 -0.24503126827E+02 -0.81082999815E+01  0.29792998618E+02  0.00000000000E+00 0.  1.
</event>
<event>
 7    1  0.2835316E-011  0.5052887E+02  0.7816164E-02  0.1300439E+00
        -11   -1    0    0    0    0  0.00000000000E+00  0.00000000000E+00  0.45593999997E+02  0.45594000000E+02  0.51100000000E-03 0. -1.
         11   -1    0    0    0    0 -0.00000000000E+00 -0.00000000000E+00 -0.45593999997E+02  0.45594000000E+02  0.51100000000E-03 0.  1.
    9900012    2    1    2    0    0 -0.17089980908E+02  0.36792659631E+02 -0.27198995308E+01  0.50528866910E+02  0.30000021460E+02 0.  0.
        -12    1    1    2    0    0  0.17089980908E+02 -0.36792659631E+02  0.27198995308E+01  0.40659133090E+02  0.00000000000E+00 0.  1.
         11    1    3    3    0    0 -0.16015751728E+02  0.79741409597E+01  0.32051973398E+01  0.18175932375E+02  0.51100000000E-03 0. -1.
        -11    1    3    3    0    0 -0.37478987568E+01  0.28516120360E+02 -0.39858929830E+01  0.29036239574E+02  0.51100000000E-03 0.  1.
        -12    1    3    3    0    0  0.26736695772E+01  0.30239831161E+00 -0.19392038876E+01  0.33166949610E+01  0.00000000000E+00 0.  1.
</event>
<event>
 7    1  0.2835316E-011  0.5052886E+02  0.7816164E-02  0.1300439E+00
        -11   -1    0    0    0    0  0.00000000000E+00  0.00000000000E+00  0.45593999997E+02  0.45594000000E+02  0.51100000000E-03 0.  1.
         11   -1    0    0    0    0 -0.00000000000E+00 -0.00000000000E+00 -0.45593999997E+02  0.45594000000E+02  0.51100000000E-03 0. -1.
    9900012    2    1    2    0    0  0.11099828329E+02 -0.28935039565E+02 -0.26319629627E+02  0.50528860717E+02  0.30000002635E+02 0.  0.
        -12    1    1    2    0    0 -0.11099828329E+02  0.28935039565E+02  0.26319629627E+02  0.40659139283E+02  0.00000000000E+00 0.  1.
         11    1    3    3    0    0  0.19470214237E+01 -0.18929245537E+01 -0.13175133417E+02  0.13452070347E+02  0.51100000000E-03 0. -1.
        -11    1    3    3    0    0  0.36821071234E+01  0.13916618620E+01  0.19834480845E+01  0.44078001510E+01  0.51100000000E-03 0.  1.
        -12    1    3    3    0    0  0.54706997815E+01 -0.28433776873E+02 -0.15127944294E+02  0.32668990219E+02  0.00000000000E+00 0.  1.
</event>
<event>
 7    1  0.3663744E-011  0.5052886E+02  0.7816164E-02  0.1300439E+00
        -11   -1    0    0    0    0  0.00000000000E+00  0.00000000000E+00  0.45593999997E+02  0.45594000000E+02  0.51100000000E-03 0. -1.
         11   -1    0    0    0    0 -0.00000000000E+00 -0.00000000000E+00 -0.45593999997E+02  0.45594000000E+02  0.51100000000E-03 0.  1.
    9900012    2    1    2    0    0  0.29477375963E+02  0.22465404350E+02  0.16719921498E+02  0.50528857594E+02  0.29999993144E+02 0.  0.
        -12    1    1    2    0    0 -0.29477375963E+02 -0.22465404350E+02 -0.16719921498E+02  0.40659142406E+02  0.00000000000E+00 0.  1.
         11    1    3    3    0    0  0.16356326911E+02  0.49554889660E+01 -0.11164185300E+00  0.17090897141E+02  0.51100000000E-03 0. -1.
        -11    1    3    3    0    0 -0.32059503634E+01 -0.12718421320E+01  0.10064888037E+00  0.34504826618E+01  0.51100000000E-03 0.  1.
         12    1    3    3    0    0  0.16326999416E+02  0.18781757516E+02  0.16730914470E+02  0.29987477792E+02  0.00000000000E+00 0. -1.
</event>
<event>
 7    1  0.2835316E-011  0.5052889E+02  0.7816164E-02  0.1300439E+00
        -11   -1    0    0    0    0  0.00000000000E+00  0.00000000000E+00  0.45593999997E+02  0.45594000000E+02  0.51100000000E-03 0. -1.
         11   -1    0    0    0    0 -0.00000000000E+00 -0.00000000000E+00 -0.45593999997E+02  0.45594000000E+02  0.51100000000E-03 0.  1.
    9900012    2    1    2    0    0  0.35182100047E+02  0.36790297166E+01 -0.20046151879E+02  0.50528885050E+02  0.30000076598E+02 0.  0.
        -12    1    1    2    0    0 -0.35182100047E+02 -0.36790297166E+01  0.20046151879E+02  0.40659114950E+02  0.00000000000E+00 0.  1.
         11    1    3    3    0    0  0.79425733861E+01 -0.14332307327E+01  0.34145854208E+01  0.87634477338E+01  0.51100000000E-03 0. -1.
        -11    1    3    3    0    0 -0.81286126925E+00  0.61289585235E+01 -0.64891640167E+01  0.89629306548E+01  0.51100000000E-03 0.  1.
        -12    1    3    3    0    0  0.28052387930E+02 -0.10166980743E+01 -0.16971573283E+02  0.32802506661E+02  0.00000000000E+00 0.  1.
</event>
<event>
 7    1  0.2835316E-011  0.5052887E+02  0.7816164E-02  0.1300439E+00
        -11   -1    0    0    0    0  0.00000000000E+00  0.00000000000E+00  0.45593999997E+02  0.45594000000E+02  0.51100000000E-03 0.  1.
         11   -1    0    0    0    0 -0.00000000000E+00 -0.00000000000E+00 -0.45593999997E+02  0.45594000000E+02  0.51100000000E-03 0. -1.
    9900012    2    1    2    0    0  0.15895684572E+02  0.65252341098E+01 -0.36849880866E+02  0.50528865872E+02  0.30000018304E+02 0.  0.
        -12    1    1    2    0    0 -0.15895684572E+02 -0.65252341098E+01  0.36849880866E+02  0.40659134128E+02  0.00000000000E+00 0.  1.
         11    1    3    3    0    0  0.47300813514E+01  0.15378239758E+02 -0.19697468718E+02  0.25433328563E+02  0.51100000000E-03 0. -1.
        -11    1    3    3    0    0  0.11022920356E+02 -0.17368841597E+01 -0.96317464401E+01  0.14740830353E+02  0.51100000000E-03 0.  1.
        -12    1    3    3    0    0  0.14268286442E+00 -0.71161214884E+01 -0.75206657084E+01  0.10354706956E+02  0.00000000000E+00 0.  1.
</event>
<event>
 7    1  0.2835316E-011  0.5052884E+02  0.7816164E-02  0.1300439E+00
        -11   -1    0    0    0    0  0.00000000000E+00  0.00000000000E+00  0.45593999997E+02  0.45594000000E+02  0.51100000000E-03 0.  1.
         11   -1    0    0    0    0 -0.00000000000E+00 -0.00000000000E+00 -0.45593999997E+02  0.45594000000E+02  0.51100000000E-03 0. -1.
    9900012    2    1    2    0    0  0.39796616333E+02 -0.64494181400E+01  0.52726984768E+01  0.50528843404E+02  0.29999950011E+02 0.  0.
        -12    1    1    2    0    0 -0.39796616333E+02  0.64494181400E+01 -0.52726984768E+01  0.40659156596E+02  0.00000000000E+00 0.  1.
         11    1    3    3    0    0  0.26937055003E+02  0.12492658760E+00  0.93515865626E+00  0.26953572321E+02  0.51100000000E-03 0. -1.
        -11    1    3    3    0    0  0.16080273808E+02 -0.57359688196E+01  0.78023078317E+01  0.18771056225E+02  0.51100000000E-03 0.  1.
        -12    1    3    3    0    0 -0.32207124784E+01 -0.83837590800E+00 -0.34647680111E+01  0.48042148581E+01  0.00000000000E+00 0.  1.
</event>
<event>
 7    1  0.2835316E-011  0.5052885E+02  0.7816164E-02  0.1300439E+00
        -11   -1    0    0    0    0  0.00000000000E+00  0.00000000000E+00  0.45593999997E+02  0.45594000000E+02  0.51100000000E-03 0.  1.
         11   -1    0    0    0    0 -0.00000000000E+00 -0.00000000000E+00 -0.45593999997E+02  0.45594000000E+02  0.51100000000E-03 0. -1.
    9900012    2    1    2    0    0  0.15105262097E+02 -0.36735328836E+02  0.86898121829E+01  0.50528853877E+02  0.29999981845E+02 0.  0.
        -12    1    1    2    0    0 -0.15105262097E+02  0.36735328836E+02 -0.86898121829E+01  0.40659146123E+02  0.00000000000E+00 0.  1.
         11    1    3    3    0    0  0.67867663534E+01 -0.26760644502E+02  0.12642196870E+02  0.30364739973E+02  0.51100000000E-03 0. -1.
        -11    1    3    3    0    0 -0.27142975288E+01 -0.79028273208E+01 -0.30766044527E+01  0.89043576948E+01  0.51100000000E-03 0.  1.
         12    1    3    3    0    0  0.11032793272E+02 -0.20718570132E+01 -0.87578023424E+00  0.11259756209E+02  0.00000000000E+00 0. -1.
</event>
<event>
 7    1  0.2835316E-011  0.5052884E+02  0.7816164E-02  0.1300439E+00
        -11   -1    0    0    0    0  0.00000000000E+00  0.00000000000E+00  0.45593999997E+02  0.45594000000E+02  0.51100000000E-03 0. -1.
         11   -1    0    0    0    0 -0.00000000000E+00 -0.00000000000E+00 -0.45593999997E+02  0.45594000000E+02  0.51100000000E-03 0.  1.
    9900012    2    1    2    0    0  0.19773432921E+02 -0.35509281192E+02  0.11267416118E+01  0.50528840554E+02  0.29999941347E+02 0.  0.
        -12    1    1    2    0    0 -0.19773432921E+02  0.35509281192E+02 -0.11267416118E+01  0.40659159446E+02  0.00000000000E+00 0.  1.
         11    1    3    3    0    0  0.19653925573E+02 -0.23785589254E+02 -0.33576870982E+01  0.31037156917E+02  0.51100000000E-03 0.  1.
        -11    1    3    3    0    0 -0.14160284411E+00 -0.14128369460E+02 -0.29815927793E+00  0.14132224672E+02  0.51100000000E-03 0. -1.
        -12    1    3    3    0    0  0.26111019168E+00  0.24046775232E+01  0.47825879879E+01  0.53594589638E+01  0.00000000000E+00 0.  1.
</event>
<event>
 7    1  0.2835316E-011  0.5052892E+02  0.7816164E-02  0.1300439E+00
        -11   -1    0    0    0    0  0.00000000000E+00  0.00000000000E+00  0.45593999997E+02  0.45594000000E+02  0.51100000000E-03 0.  1.
         11   -1    0    0    0    0 -0.00000000000E+00 -0.00000000000E+00 -0.45593999997E+02  0.45594000000E+02  0.51100000000E-03 0. -1.
    9900012    2    1    2    0    0  0.14529797934E+02  0.22052505761E+02 -0.30914927707E+02  0.50528919914E+02  0.30000182570E+02 0.  0.
        -12    1    1    2    0    0 -0.14529797934E+02 -0.22052505761E+02  0.30914927707E+02  0.40659080086E+02  0.00000000000E+00 0.  1.
         11    1    3    3    0    0  0.88535427974E+01  0.13013334412E+02 -0.97012539592E+01  0.18489089248E+02  0.51100000000E-03 0. -1.
        -11    1    3    3    0    0  0.12803554054E+02  0.61839963092E+00 -0.95469029374E+01  0.15983015062E+02  0.51100000000E-03 0.  1.
        -12    1    3    3    0    0 -0.71272989174E+01  0.84207717173E+01 -0.11666770810E+02  0.16056815603E+02  0.00000000000E+00 0.  1.
</event>
<event>
 7    1  0.2835316E-011  0.5052884E+02  0.7816164E-02  0.1300439E+00
        -11   -1    0    0    0    0  0.00000000000E+00  0.00000000000E+00  0.45593999997E+02  0.45594000000E+02  0.51100000000E-03 0.  1.
         11   -1    0    0    0    0 -0.00000000000E+00 -0.00000000000E+00 -0.45593999997E+02  0.45594000000E+02  0.51100000000E-03 0. -1.
    9900012    2    1    2    0    0 -0.55884786792E+01  0.10580512530E+00 -0.40273126716E+02  0.50528843293E+02  0.29999949672E+02 0.  0.
        -12    1    1    2    0    0  0.55884786792E+01 -0.10580512530E+00  0.40273126716E+02  0.40659156707E+02  0.00000000000E+00 0.  1.
         11    1    3    3    0    0 -0.11514516373E+02  0.51095443560E+01 -0.12821626241E+02  0.17974582903E+02  0.51100000000E-03 0. -1.
        -11    1    3    3    0    0  0.28906102698E+01 -0.15495127067E+01  0.12327527179E+01  0.35037546839E+01  0.51100000000E-03 0.  1.
         12    1    3    3    0    0  0.30354274236E+01 -0.34542265239E+01 -0.28684253193E+02  0.29050505706E+02  0.00000000000E+00 0. -1.
</event>
<event>
 7    1  0.2835316E-011  0.5052888E+02  0.7816164E-02  0.1300439E+00
        -11   -1    0    0    0    0  0.00000000000E+00  0.00000000000E+00  0.45593999997E+02  0.45594000000E+02  0.51100000000E-03 0.  1.
         11   -1    0    0    0    0 -0.00000000000E+00 -0.00000000000E+00 -0.45593999997E+02  0.45594000000E+02  0.51100000000E-03 0. -1.
    9900012    2    1    2    0    0  0.22692221007E+01  0.16375760298E+02 -0.37146325957E+02  0.50528875238E+02  0.30000046774E+02 0.  0.
        -12    1    1    2    0    0 -0.22692221007E+01 -0.16375760298E+02  0.37146325957E+02  0.40659124762E+02  0.00000000000E+00 0.  1.
         11    1    3    3    0    0 -0.42981071627E+01 -0.84645918554E+00 -0.41990788315E+01  0.60681530658E+01  0.51100000000E-03 0. -1.
        -11    1    3    3    0    0 -0.18620321137E+01  0.83772427698E+01  0.75226368728E+00  0.86145958079E+01  0.51100000000E-03 0.  1.
         12    1    3    3    0    0  0.84293613771E+01  0.88449767133E+01 -0.33699510813E+02  0.35846126364E+02  0.00000000000E+00 0. -1.
</event>
<event>
 7    1  0.2835316E-011  0.5052886E+02  0.7816164E-02  0.1300439E+00
        -11   -1    0    0    0    0  0.00000000000E+00  0.00000000000E+00  0.45593999997E+02  0.45594000000E+02  0.51100000000E-03 0. -1.
         11   -1    0    0    0    0 -0.00000000000E+00 -0.00000000000E+00 -0.45593999997E+02  0.45594000000E+02  0.51100000000E-03 0.  1.
    9900012    2    1    2    0    0  0.16962428487E+02 -0.32972489524E+02  0.16681034770E+02  0.50528856297E+02  0.29999989202E+02 0.  0.
        -12    1    1    2    0    0 -0.16962428487E+02  0.32972489524E+02 -0.16681034770E+02  0.40659143703E+02  0.00000000000E+00 0.  1.
         11    1    3    3    0    0  0.92119732768E+01 -0.72771834254E+01  0.17798074606E+02  0.21321100117E+02  0.51100000000E-03 0. -1.
        -11    1    3    3    0    0  0.36559253398E+01 -0.54669273664E+00  0.11333887637E+00  0.36983116418E+01  0.51100000000E-03 0.  1.
        -12    1    3    3    0    0  0.40945298704E+01 -0.25148613362E+02 -0.12303787117E+01  0.25509444539E+02  0.00000000000E+00 0.  1.
</event>
<event>
 7    1  0.2835316E-011  0.5052886E+02  0.7816164E-02  0.1300439E+00
        -11   -1    0    0    0    0  0.00000000000E+00  0.00000000000E+00  0.45593999997E+02  0.45594000000E+02  0.51100000000E-03 0.  1.
         11   -1    0    0    0    0 -0.00000000000E+00 -0.00000000000E+00 -0.45593999997E+02  0.45594000000E+02  0.51100000000E-03 0. -1.
    9900012    2    1    2    0    0 -0.62432340283E+01  0.12752230685E+02 -0.38099449753E+02  0.50528862896E+02  0.30000009257E+02 0.  0.
        -12    1    1    2    0    0  0.62432340283E+01 -0.12752230685E+02  0.38099449753E+02  0.40659137104E+02  0.00000000000E+00 0.  1.
         11    1    3    3    0    0 -0.79261159424E-01  0.78468749106E+01 -0.29139323892E+02  0.30177473806E+02  0.51100000000E-03 0. -1.
        -11    1    3    3    0    0 -0.92986273693E+01  0.27772464502E+01 -0.12043254164E+02  0.15466658978E+02  0.51100000000E-03 0.  1.
        -12    1    3    3    0    0  0.31346545004E+01  0.21281093239E+01  0.30831283029E+01  0.48847301116E+01  0.00000000000E+00 0.  1.
</event>
<event>
 7    1  0.2835316E-011  0.5052886E+02  0.7816164E-02  0.1300439E+00
        -11   -1    0    0    0    0  0.00000000000E+00  0.00000000000E+00  0.45593999997E+02  0.45594000000E+02  0.51100000000E-03 0. -1.
         11   -1    0    0    0    0 -0.00000000000E+00 -0.00000000000E+00 -0.45593999997E+02  0.45594000000E+02  0.51100000000E-03 0.  1.
    9900012    2    1    2    0    0  0.24638332468E+02  0.19840045508E+02 -0.25543907306E+02  0.50528855481E+02  0.29999986721E+02 0.  0.
        -12    1    1    2    0    0 -0.24638332468E+02 -0.19840045508E+02  0.25543907306E+02  0.40659144519E+02  0.00000000000E+00 0.  1.
         11    1    3    3    0    0  0.90810743529E+01  0.89767635679E+00 -0.10580500712E+01  0.91864685521E+01  0.51100000000E-03 0. -1.
        -11    1    3    3    0    0  0.82186915726E+01  0.62952308570E+01  0.24995466538E+01  0.10650096546E+02  0.51100000000E-03 0.  1.
        -12    1    3    3    0    0  0.73385665427E+01  0.12647138294E+02 -0.26985403888E+02  0.30692290383E+02  0.00000000000E+00 0.  1.
</event>
<event>
 7    1  0.2835316E-011  0.5052887E+02  0.7816164E-02  0.1300439E+00
        -11   -1    0    0    0    0  0.00000000000E+00  0.00000000000E+00  0.45593999997E+02  0.45594000000E+02  0.51100000000E-03 0.  1.
         11   -1    0    0    0    0 -0.00000000000E+00 -0.00000000000E+00 -0.45593999997E+02  0.45594000000E+02  0.51100000000E-03 0. -1.
    9900012    2    1    2    0    0 -0.75685562951E+01  0.32777472948E+02 -0.22836800290E+02  0.50528865421E+02  0.30000016933E+02 0.  0.
        -12    1    1    2    0    0  0.75685562951E+01 -0.32777472948E+02  0.22836800290E+02  0.40659134579E+02  0.00000000000E+00 0.  1.
         11    1    3    3    0    0 -0.18845334580E+01 -0.24120433597E+00 -0.99656773236E+01  0.10145164891E+02  0.51100000000E-03 0. -1.
        -11    1    3    3    0    0  0.54417531427E+01  0.99326294374E+01  0.77077504195E+00  0.11351823608E+02  0.51100000000E-03 0.  1.
         12    1    3    3    0    0 -0.11125775980E+02  0.23086047846E+02 -0.13641898009E+02  0.29031876922E+02  0.00000000000E+00 0. -1.
</event>
<event>
 7    1  0.2835316E-011  0.5052886E+02  0.7816164E-02  0.1300439E+00
        -11   -1    0    0    0    0  0.00000000000E+00  0.00000000000E+00  0.45593999997E+02  0.45594000000E+02  0.51100000000E-03 0. -1.
         11   -1    0    0    0    0 -0.00000000000E+00 -0.00000000000E+00 -0.45593999997E+02  0.45594000000E+02  0.51100000000E-03 0.  1.
    9900012    2    1    2    0    0  0.37808423128E+02  0.13651219925E+02 -0.61100883107E+01  0.50528857805E+02  0.29999993785E+02 0.  0.
        -12    1    1    2    0    0 -0.37808423128E+02 -0.13651219925E+02  0.61100883107E+01  0.40659142195E+02  0.00000000000E+00 0.  1.
         11    1    3    3    0    0  0.60542530269E+01  0.72414763663E+01  0.90259490605E+01  0.13059889601E+02  0.51100000000E-03 0. -1.
        -11    1    3    3    0    0  0.46310655449E+01 -0.10240010939E+01 -0.65059496970E+01  0.80512563021E+01  0.51100000000E-03 0.  1.
        -12    1    3    3    0    0  0.27123104556E+02  0.74337446529E+01 -0.86300876742E+01  0.29417711902E+02  0.00000000000E+00 0.  1.
</event>
<event>
 7    1  0.2835316E-011  0.5052891E+02  0.7816164E-02  0.1300439E+00
        -11   -1    0    0    0    0  0.00000000000E+00  0.00000000000E+00  0.45593999997E+02  0.45594000000E+02  0.51100000000E-03 0. -1.
         11   -1    0    0    0    0 -0.00000000000E+00 -0.00000000000E+00 -0.45593999997E+02  0.45594000000E+02  0.51100000000E-03 0.  1.
    9900012    2    1    2    0    0  0.12940683371E+02  0.24181812121E+01  0.38468849787E+02  0.50528913802E+02  0.30000163993E+02 0.  0.
        -12    1    1    2    0    0 -0.12940683371E+02 -0.24181812121E+01 -0.38468849787E+02  0.40659086198E+02  0.00000000000E+00 0.  1.
         11    1    3    3    0    0  0.52464824097E+01  0.88821194797E+01  0.88922491233E+01  0.13619461034E+02  0.51100000000E-03 0. -1.
        -11    1    3    3    0    0  0.43717231817E+01 -0.31693110906E+01 -0.14026148727E+01  0.55788731038E+01  0.51100000000E-03 0.  1.
         12    1    3    3    0    0  0.33224777796E+01 -0.32946271770E+01  0.30979215537E+02  0.31330579664E+02  0.00000000000E+00 0. -1.
</event>
<event>
 7    1  0.2835316E-011  0.5052887E+02  0.7816164E-02  0.1300439E+00
        -11   -1    0    0    0    0  0.00000000000E+00  0.00000000000E+00  0.45593999997E+02  0.45594000000E+02  0.51100000000E-03 0.  1.
         11   -1    0    0    0    0 -0.00000000000E+00 -0.00000000000E+00 -0.45593999997E+02  0.45594000000E+02  0.51100000000E-03 0. -1.
    9900012    2    1    2    0    0 -0.39203200414E+02 -0.10107719095E+02  0.37560281392E+01  0.50528872422E+02  0.30000038213E+02 0.  0.
        -12    1    1    2    0    0  0.39203200414E+02  0.10107719095E+02 -0.37560281392E+01  0.40659127578E+02  0.00000000000E+00 0.  1.
         11    1    3    3    0    0 -0.11471731764E+02 -0.10078399165E+02 -0.69155941987E+00  0.15285712744E+02  0.51100000000E-03 0.  1.
        -11    1    3    3    0    0 -0.25124491450E+02 -0.68520299929E+01  0.78305966576E+01  0.27193907956E+02  0.51100000000E-03 0. -1.
        -12    1    3    3    0    0 -0.26069772012E+01  0.68227100627E+01 -0.33830090986E+01  0.80492517223E+01  0.00000000000E+00 0.  1.
</event>
<event>
 7    1  0.2835316E-011  0.5052888E+02  0.7816164E-02  0.1300439E+00
        -11   -1    0    0    0    0  0.00000000000E+00  0.00000000000E+00  0.45593999997E+02  0.45594000000E+02  0.51100000000E-03 0.  1.
         11   -1    0    0    0    0 -0.00000000000E+00 -0.00000000000E+00 -0.45593999997E+02  0.45594000000E+02  0.51100000000E-03 0. -1.
    9900012    2    1    2    0    0  0.79149388293E+01  0.13545997197E+02 -0.37510313936E+02  0.50528881118E+02  0.30000064645E+02 0.  0.
        -12    1    1    2    0    0 -0.79149388293E+01 -0.13545997197E+02  0.37510313936E+02  0.40659118882E+02  0.00000000000E+00 0.  1.
         11    1    3    3    0    0  0.48298210863E+00  0.86500847211E+00 -0.63740255089E+01  0.64505591093E+01  0.51100000000E-03 0. -1.
        -11    1    3    3    0    0 -0.57242161741E+01  0.16407383755E+01 -0.25219488429E+02  0.25912955642E+02  0.51100000000E-03 0.  1.
        -12    1    3    3    0    0  0.13156172895E+02  0.11040250349E+02 -0.59167999984E+01  0.18165366366E+02  0.00000000000E+00 0.  1.
</event>
<event>
 7    1  0.2835316E-011  0.5052887E+02  0.7816164E-02  0.1300439E+00
        -11   -1    0    0    0    0  0.00000000000E+00  0.00000000000E+00  0.45593999997E+02  0.45594000000E+02  0.51100000000E-03 0.  1.
         11   -1    0    0    0    0 -0.00000000000E+00 -0.00000000000E+00 -0.45593999997E+02  0.45594000000E+02  0.51100000000E-03 0. -1.
    9900012    2    1    2    0    0  0.40623248621E+01  0.36821030767E+02 -0.16759305827E+02  0.50528866686E+02  0.30000020779E+02 0.  0.
        -12    1    1    2    0    0 -0.40623248621E+01 -0.36821030767E+02  0.16759305827E+02  0.40659133314E+02  0.00000000000E+00 0.  1.
         11    1    3    3    0    0 -0.87642290224E+00  0.20573270778E+02 -0.14112208799E+01  0.20640230916E+02  0.51100000000E-03 0. -1.
        -11    1    3    3    0    0  0.43884769682E+01  0.20509288359E+02 -0.10652440806E+02  0.23523693045E+02  0.51100000000E-03 0.  1.
        -12    1    3    3    0    0  0.55027079618E+00 -0.42615283703E+01 -0.46956441411E+01  0.63649427255E+01  0.00000000000E+00 0.  1.
</event>
<event>
 7    1  0.2835316E-011  0.5052886E+02  0.7816164E-02  0.1300439E+00
        -11   -1    0    0    0    0  0.00000000000E+00  0.00000000000E+00  0.45593999997E+02  0.45594000000E+02  0.51100000000E-03 0.  1.
         11   -1    0    0    0    0 -0.00000000000E+00 -0.00000000000E+00 -0.45593999997E+02  0.45594000000E+02  0.51100000000E-03 0. -1.
    9900012    2    1    2    0    0 -0.12009038281E+02 -0.28026910481E+02 -0.26896863033E+02  0.50528856471E+02  0.29999989728E+02 0.  0.
        -12    1    1    2    0    0  0.12009038281E+02  0.28026910481E+02  0.26896863033E+02  0.40659143529E+02  0.00000000000E+00 0.  1.
         11    1    3    3    0    0 -0.77180520518E+01 -0.17022942538E+02 -0.23088232118E+02  0.29705476982E+02  0.51100000000E-03 0. -1.
        -11    1    3    3    0    0 -0.81919344785E+01 -0.13152135771E+02 -0.48762093812E+01  0.16243887590E+02  0.51100000000E-03 0.  1.
         12    1    3    3    0    0  0.39009482494E+01  0.21481678288E+01  0.10675784666E+01  0.45794918984E+01  0.00000000000E+00 0. -1.
</event>
<event>
 7    1  0.2835316E-011  0.5052884E+02  0.7816164E-02  0.1300439E+00
        -11   -1    0    0    0    0  0.00000000000E+00  0.00000000000E+00  0.45593999997E+02  0.45594000000E+02  0.51100000000E-03 0.  1.
         11   -1    0    0    0    0 -0.00000000000E+00 -0.00000000000E+00 -0.45593999997E+02  0.45594000000E+02  0.51100000000E-03 0. -1.
    9900012    2    1    2    0    0  0.22916650833E+02 -0.33100546524E+02  0.56875372125E+01  0.50528841805E+02  0.29999945151E+02 0.  0.
        -12    1    1    2    0    0 -0.22916650833E+02  0.33100546524E+02 -0.56875372125E+01  0.40659158195E+02  0.00000000000E+00 0.  1.
         11    1    3    3    0    0  0.12622584878E+02 -0.16976493712E+02  0.14672466328E+02  0.25745140438E+02  0.51100000000E-03 0. -1.
        -11    1    3    3    0    0  0.27604325495E+01  0.13535996700E+01  0.10742447624E+01  0.32567195148E+01  0.51100000000E-03 0.  1.
         12    1    3    3    0    0  0.75336334049E+01 -0.17477652482E+02 -0.10059173878E+02  0.21526981853E+02  0.00000000000E+00 0. -1.
</event>
<event>
 7    1  0.2835316E-011  0.5052886E+02  0.7816164E-02  0.1300439E+00
        -11   -1    0    0    0    0  0.00000000000E+00  0.00000000000E+00  0.45593999997E+02  0.45594000000E+02  0.51100000000E-03 0.  1.
         11   -1    0    0    0    0 -0.00000000000E+00 -0.00000000000E+00 -0.45593999997E+02  0.45594000000E+02  0.51100000000E-03 0. -1.
    9900012    2    1    2    0    0 -0.25802544086E+02 -0.94101008953E+01 -0.29980736812E+02  0.50528857609E+02  0.29999993189E+02 0.  0.
        -12    1    1    2    0    0  0.25802544086E+02  0.94101008953E+01  0.29980736812E+02  0.40659142391E+02  0.00000000000E+00 0.  1.
         11    1    3    3    0    0 -0.44012767316E+01 -0.54108134761E+01 -0.28398578528E+01  0.75307989102E+01  0.51100000000E-03 0. -1.
        -11    1    3    3    0    0 -0.21669345554E+02 -0.12384138631E+02 -0.20521638550E+02  0.32311995843E+02  0.51100000000E-03 0.  1.
        -12    1    3    3    0    0  0.26807819904E+00  0.83848512116E+01 -0.66192404090E+01  0.10686062856E+02  0.00000000000E+00 0.  1.
</event>
<event>
 7    1  0.2835316E-011  0.5052886E+02  0.7816164E-02  0.1300439E+00
        -11   -1    0    0    0    0  0.00000000000E+00  0.00000000000E+00  0.45593999997E+02  0.45594000000E+02  0.51100000000E-03 0. -1.
         11   -1    0    0    0    0 -0.00000000000E+00 -0.00000000000E+00 -0.45593999997E+02  0.45594000000E+02  0.51100000000E-03 0.  1.
    9900012    2    1    2    0    0  0.71022076359E+00 -0.35437798640E+02  0.19920435772E+02  0.50528858994E+02  0.29999997400E+02 0.  0.
        -12    1    1    2    0    0 -0.71022076359E+00  0.35437798640E+02 -0.19920435772E+02  0.40659141006E+02  0.00000000000E+00 0.  1.
         11    1    3    3    0    0 -0.10754965279E+02 -0.18545266133E+02  0.13847388242E+02  0.25521487721E+02  0.51100000000E-03 0. -1.
        -11    1    3    3    0    0  0.60226454570E+01 -0.14418367485E+02  0.93300641878E+01  0.18199221885E+02  0.51100000000E-03 0.  1.
        -12    1    3    3    0    0  0.54425405859E+01 -0.24741650228E+01 -0.32570166579E+01  0.68081493887E+01  0.00000000000E+00 0.  1.
</event>
<event>
 7    1  0.2835316E-011  0.5052882E+02  0.7816164E-02  0.1300439E+00
        -11   -1    0    0    0    0  0.00000000000E+00  0.00000000000E+00  0.45593999997E+02  0.45594000000E+02  0.51100000000E-03 0.  1.
         11   -1    0    0    0    0 -0.00000000000E+00 -0.00000000000E+00 -0.45593999997E+02  0.45594000000E+02  0.51100000000E-03 0. -1.
    9900012    2    1    2    0    0  0.13709512860E+02  0.34434852689E+02 -0.16717022348E+02  0.50528823191E+02  0.29999888572E+02 0.  0.
        -12    1    1    2    0    0 -0.13709512860E+02 -0.34434852689E+02  0.16717022348E+02  0.40659176809E+02  0.00000000000E+00 0.  1.
         11    1    3    3    0    0  0.10567588101E+02  0.22420788682E+02 -0.55209660533E+00  0.24792549170E+02  0.51100000000E-03 0. -1.
        -11    1    3    3    0    0 -0.23276864403E+01 -0.22335497331E+01  0.35548556844E+00  0.32454951587E+01  0.51100000000E-03 0.  1.
        -12    1    3    3    0    0  0.54696111995E+01  0.14247613740E+02 -0.16520411312E+02  0.22490778863E+02  0.00000000000E+00 0.  1.
</event>
<event>
 7    1  0.2835316E-011  0.5052886E+02  0.7816164E-02  0.1300439E+00
        -11   -1    0    0    0    0  0.00000000000E+00  0.00000000000E+00  0.45593999997E+02  0.45594000000E+02  0.51100000000E-03 0.  1.
         11   -1    0    0    0    0 -0.00000000000E+00 -0.00000000000E+00 -0.45593999997E+02  0.45594000000E+02  0.51100000000E-03 0. -1.
    9900012    2    1    2    0    0  0.20278697369E+02 -0.33034291773E+02 -0.12275000775E+02  0.50528860265E+02  0.30000001263E+02 0.  0.
        -12    1    1    2    0    0 -0.20278697369E+02  0.33034291773E+02  0.12275000775E+02  0.40659139735E+02  0.00000000000E+00 0.  1.
         11    1    3    3    0    0  0.48360442524E+01 -0.10899790639E+02 -0.15685045203E+02  0.19703131814E+02  0.51100000000E-03 0. -1.
        -11    1    3    3    0    0  0.80209439579E+01 -0.90826688191E+00 -0.65028247695E-01  0.80724667629E+01  0.51100000000E-03 0.  1.
        -12    1    3    3    0    0  0.74217091583E+01 -0.21226234252E+02  0.34750726760E+01  0.22753261688E+02  0.00000000000E+00 0.  1.
</event>
<event>
 7    1  0.2835316E-011  0.5052880E+02  0.7816164E-02  0.1300439E+00
        -11   -1    0    0    0    0  0.00000000000E+00  0.00000000000E+00  0.45593999997E+02  0.45594000000E+02  0.51100000000E-03 0. -1.
         11   -1    0    0    0    0 -0.00000000000E+00 -0.00000000000E+00 -0.45593999997E+02  0.45594000000E+02  0.51100000000E-03 0.  1.
    9900012    2    1    2    0    0 -0.12783713581E+02 -0.36971955451E+02  0.11082513720E+02  0.50528795223E+02  0.29999803559E+02 0.  0.
        -12    1    1    2    0    0  0.12783713581E+02  0.36971955451E+02 -0.11082513720E+02  0.40659204777E+02  0.00000000000E+00 0.  1.
         11    1    3    3    0    0 -0.15843639806E+02 -0.13585786124E+02  0.58230307510E+00  0.20879022584E+02  0.51100000000E-03 0. -1.
        -11    1    3    3    0    0 -0.55133736581E+01 -0.13781999264E+02  0.60255928528E+01  0.16020254751E+02  0.51100000000E-03 0.  1.
        -12    1    3    3    0    0  0.85732998836E+01 -0.96041700631E+01  0.44746177917E+01  0.13629517889E+02  0.00000000000E+00 0.  1.
</event>
<event>
 7    1  0.2835316E-011  0.5052886E+02  0.7816164E-02  0.1300439E+00
        -11   -1    0    0    0    0  0.00000000000E+00  0.00000000000E+00  0.45593999997E+02  0.45594000000E+02  0.51100000000E-03 0.  1.
         11   -1    0    0    0    0 -0.00000000000E+00 -0.00000000000E+00 -0.45593999997E+02  0.45594000000E+02  0.51100000000E-03 0. -1.
    9900012    2    1    2    0    0 -0.24172853629E+02 -0.11759838167E+02 -0.30504838919E+02  0.50528857809E+02  0.29999993795E+02 0.  0.
        -12    1    1    2    0    0  0.24172853629E+02  0.11759838167E+02  0.30504838919E+02  0.40659142191E+02  0.00000000000E+00 0.  1.
         11    1    3    3    0    0 -0.10660748052E+02 -0.12530781610E+02 -0.91067916857E+01  0.18804406182E+02  0.51100000000E-03 0. -1.
        -11    1    3    3    0    0 -0.61236255056E+00 -0.78585491847E+01 -0.66083632497E+01  0.10286021985E+02  0.51100000000E-03 0.  1.
        -12    1    3    3    0    0 -0.12899743026E+02  0.86294926275E+01 -0.14789683983E+02  0.21438429641E+02  0.00000000000E+00 0.  1.
</event>
<event>
 7    1  0.2835316E-011  0.5052886E+02  0.7816164E-02  0.1300439E+00
        -11   -1    0    0    0    0  0.00000000000E+00  0.00000000000E+00  0.45593999997E+02  0.45594000000E+02  0.51100000000E-03 0.  1.
         11   -1    0    0    0    0 -0.00000000000E+00 -0.00000000000E+00 -0.45593999997E+02  0.45594000000E+02  0.51100000000E-03 0. -1.
    9900012    2    1    2    0    0 -0.50981352858E+01 -0.40337100874E+02 -0.30505204233E+00  0.50528858997E+02  0.29999997408E+02 0.  0.
        -12    1    1    2    0    0  0.50981352858E+01  0.40337100874E+02  0.30505204233E+00  0.40659141003E+02  0.00000000000E+00 0.  1.
         11    1    3    3    0    0  0.18970110470E+00  0.74951732664E-01  0.64912406693E+01  0.64944445458E+01  0.51100000000E-03 0.  1.
        -11    1    3    3    0    0 -0.27059410453E+01 -0.16433499458E+01 -0.39691809514E+01  0.50771166690E+01  0.51100000000E-03 0. -1.
         12    1    3    3    0    0 -0.25818953452E+01 -0.38768702661E+02 -0.28271117602E+01  0.38957297782E+02  0.00000000000E+00 0. -1.
</event>
<event>
 7    1  0.2835316E-011  0.5052885E+02  0.7816164E-02  0.1300439E+00
        -11   -1    0    0    0    0  0.00000000000E+00  0.00000000000E+00  0.45593999997E+02  0.45594000000E+02  0.51100000000E-03 0.  1.
         11   -1    0    0    0    0 -0.00000000000E+00 -0.00000000000E+00 -0.45593999997E+02  0.45594000000E+02  0.51100000000E-03 0. -1.
    9900012    2    1    2    0    0  0.68758464642E+01  0.23116088189E+02 -0.32734315628E+02  0.50528853214E+02  0.29999979829E+02 0.  0.
        -12    1    1    2    0    0 -0.68758464642E+01 -0.23116088189E+02  0.32734315628E+02  0.40659146786E+02  0.00000000000E+00 0.  1.
         11    1    3    3    0    0  0.74138042712E+01 -0.44644711141E+00 -0.53589300324E+01  0.91587084323E+01  0.51100000000E-03 0. -1.
        -11    1    3    3    0    0 -0.41688560088E+01  0.17512273678E+02 -0.28996677960E+02  0.34130139506E+02  0.51100000000E-03 0.  1.
         12    1    3    3    0    0  0.36308982018E+01  0.60502616227E+01  0.16212923643E+01  0.72400052753E+01  0.00000000000E+00 0. -1.
</event>
<event>
 7    1  0.2835316E-011  0.5052886E+02  0.7816164E-02  0.1300439E+00
        -11   -1    0    0    0    0  0.00000000000E+00  0.00000000000E+00  0.45593999997E+02  0.45594000000E+02  0.51100000000E-03 0.  1.
         11   -1    0    0    0    0 -0.00000000000E+00 -0.00000000000E+00 -0.45593999997E+02  0.45594000000E+02  0.51100000000E-03 0. -1.
    9900012    2    1    2    0    0  0.10878769544E+02 -0.85836225930E+01 -0.38224855631E+02  0.50528858449E+02  0.29999995743E+02 0.  0.
        -12    1    1    2    0    0 -0.10878769544E+02  0.85836225930E+01  0.38224855631E+02  0.40659141551E+02  0.00000000000E+00 0.  1.
         11    1    3    3    0    0  0.34670638922E+01  0.43318081198E+01 -0.80619406812E+01  0.97867247549E+01  0.51100000000E-03 0. -1.
        -11    1    3    3    0    0  0.12031988803E+02 -0.59815296102E+01 -0.29460849743E+02  0.32380381698E+02  0.51100000000E-03 0.  1.
         12    1    3    3    0    0 -0.46202831514E+01 -0.69339011026E+01 -0.70206520640E+00  0.83617519966E+01  0.00000000000E+00 0. -1.
</event>
<event>
 7    1  0.2835316E-011  0.5052886E+02  0.7816164E-02  0.1300439E+00
        -11   -1    0    0    0    0  0.00000000000E+00  0.00000000000E+00  0.45593999997E+02  0.45594000000E+02  0.51100000000E-03 0. -1.
         11   -1    0    0    0    0 -0.00000000000E+00 -0.00000000000E+00 -0.45593999997E+02  0.45594000000E+02  0.51100000000E-03 0.  1.
    9900012    2    1    2    0    0 -0.40148526409E+01  0.35960279778E+01  0.40300313776E+02  0.50528858969E+02  0.29999997321E+02 0.  0.
        -12    1    1    2    0    0  0.40148526409E+01 -0.35960279778E+01 -0.40300313776E+02  0.40659141031E+02  0.00000000000E+00 0.  1.
         11    1    3    3    0    0 -0.93529157695E+01  0.20842053632E+01  0.34259434085E+02  0.35574285228E+02  0.51100000000E-03 0. -1.
        -11    1    3    3    0    0  0.44416819263E+01  0.79247863330E+00  0.99258463074E+01  0.10903164032E+02  0.51100000000E-03 0.  1.
        -12    1    3    3    0    0  0.89638120231E+00  0.71934398133E+00 -0.38849666162E+01  0.40514097093E+01  0.00000000000E+00 0.  1.
</event>
<event>
 7    1  0.2835316E-011  0.5052886E+02  0.7816164E-02  0.1300439E+00
        -11   -1    0    0    0    0  0.00000000000E+00  0.00000000000E+00  0.45593999997E+02  0.45594000000E+02  0.51100000000E-03 0.  1.
         11   -1    0    0    0    0 -0.00000000000E+00 -0.00000000000E+00 -0.45593999997E+02  0.45594000000E+02  0.51100000000E-03 0. -1.
    9900012    2    1    2    0    0 -0.51975960425E+01 -0.22269698743E+02 -0.33618608584E+02  0.50528864128E+02  0.30000013004E+02 0.  0.
        -12    1    1    2    0    0  0.51975960425E+01  0.22269698743E+02  0.33618608584E+02  0.40659135872E+02  0.00000000000E+00 0.  1.
         11    1    3    3    0    0 -0.85844544360E+01 -0.18663054422E+01  0.70487322142E+00  0.88132173744E+01  0.51100000000E-03 0. -1.
        -11    1    3    3    0    0  0.29521465593E+01 -0.37800117816E+00 -0.16824275267E+01  0.34188619220E+01  0.51100000000E-03 0.  1.
         12    1    3    3    0    0  0.43471183422E+00 -0.20025392123E+02 -0.32641054278E+02  0.38296784832E+02  0.00000000000E+00 0. -1.
</event>
<event>
 7    1  0.2835316E-011  0.5052886E+02  0.7816164E-02  0.1300439E+00
        -11   -1    0    0    0    0  0.00000000000E+00  0.00000000000E+00  0.45593999997E+02  0.45594000000E+02  0.51100000000E-03 0.  1.
         11   -1    0    0    0    0 -0.00000000000E+00 -0.00000000000E+00 -0.45593999997E+02  0.45594000000E+02  0.51100000000E-03 0. -1.
    9900012    2    1    2    0    0 -0.39965941251E+01 -0.24496258641E+02 -0.32204439439E+02  0.50528863615E+02  0.30000011443E+02 0.  0.
        -12    1    1    2    0    0  0.39965941251E+01  0.24496258641E+02  0.32204439439E+02  0.40659136385E+02  0.00000000000E+00 0.  1.
         11    1    3    3    0    0 -0.50241033556E+01 -0.11675287206E+02 -0.92481857026E+01  0.15718870345E+02  0.51100000000E-03 0. -1.
        -11    1    3    3    0    0  0.46330485705E+00 -0.72408972244E+01  0.32931806618E+01  0.79680790118E+01  0.51100000000E-03 0.  1.
         12    1    3    3    0    0  0.56420437354E+00 -0.55800742098E+01 -0.26249434399E+02  0.26841914258E+02  0.00000000000E+00 0. -1.
</event>
<event>
 7    1  0.2835316E-011  0.5052886E+02  0.7816164E-02  0.1300439E+00
        -11   -1    0    0    0    0  0.00000000000E+00  0.00000000000E+00  0.45593999997E+02  0.45594000000E+02  0.51100000000E-03 0.  1.
         11   -1    0    0    0    0 -0.00000000000E+00 -0.00000000000E+00 -0.45593999997E+02  0.45594000000E+02  0.51100000000E-03 0. -1.
    9900012    2    1    2    0    0 -0.23001725403E+02  0.32013066244E+02 -0.99624113831E+01  0.50528862990E+02  0.30000009543E+02 0.  0.
        -12    1    1    2    0    0  0.23001725403E+02 -0.32013066244E+02  0.99624113831E+01  0.40659137010E+02  0.00000000000E+00 0.  1.
         11    1    3    3    0    0 -0.69311807597E+01  0.41134419982E+01  0.69428092261E+01  0.10637869712E+02  0.51100000000E-03 0. -1.
        -11    1    3    3    0    0 -0.13040409186E+02  0.65977588554E+01 -0.66922760041E+01  0.16073868608E+02  0.51100000000E-03 0.  1.
         12    1    3    3    0    0 -0.30301354568E+01  0.21301865391E+02 -0.10212944605E+02  0.23817124670E+02  0.00000000000E+00 0. -1.
</event>
<event>
 7    1  0.2835316E-011  0.5052884E+02  0.7816164E-02  0.1300439E+00
        -11   -1    0    0    0    0  0.00000000000E+00  0.00000000000E+00  0.45593999997E+02  0.45594000000E+02  0.51100000000E-03 0.  1.
         11   -1    0    0    0    0 -0.00000000000E+00 -0.00000000000E+00 -0.45593999997E+02  0.45594000000E+02  0.51100000000E-03 0. -1.
    9900012    2    1    2    0    0  0.19399519104E+01  0.32196922719E+02 -0.24754027751E+02  0.50528841919E+02  0.29999945496E+02 0.  0.
        -12    1    1    2    0    0 -0.19399519104E+01 -0.32196922719E+02  0.24754027751E+02  0.40659158081E+02  0.00000000000E+00 0.  1.
         11    1    3    3    0    0  0.43865854114E+01  0.17146371233E+02 -0.18058808014E+02  0.25285583346E+02  0.51100000000E-03 0. -1.
        -11    1    3    3    0    0  0.62908835075E+01  0.64442161699E+01  0.31242540967E+01  0.95322663240E+01  0.51100000000E-03 0.  1.
         12    1    3    3    0    0 -0.87375170086E+01  0.86063353169E+01 -0.98194738338E+01  0.15710992249E+02  0.00000000000E+00 0. -1.
</event>
<event>
 7    1  0.2835316E-011  0.5052886E+02  0.7816164E-02  0.1300439E+00
        -11   -1    0    0    0    0  0.00000000000E+00  0.00000000000E+00  0.45593999997E+02  0.45594000000E+02  0.51100000000E-03 0. -1.
         11   -1    0    0    0    0 -0.00000000000E+00 -0.00000000000E+00 -0.45593999997E+02  0.45594000000E+02  0.51100000000E-03 0.  1.
    9900012    2    1    2    0    0  0.12194883854E+01  0.11579808343E+02  0.38956211588E+02  0.50528861612E+02  0.30000005356E+02 0.  0.
        -12    1    1    2    0    0 -0.12194883854E+01 -0.11579808343E+02 -0.38956211588E+02  0.40659138388E+02  0.00000000000E+00 0.  1.
         11    1    3    3    0    0  0.28560209988E+01  0.63826922112E+01  0.17038072627E+02  0.18417153280E+02  0.51100000000E-03 0. -1.
        -11    1    3    3    0    0 -0.75662100719E+01  0.11780759086E+02  0.16836694857E+02  0.21897673700E+02  0.51100000000E-03 0.  1.
         12    1    3    3    0    0  0.59296774584E+01 -0.65836429540E+01  0.50814441031E+01  0.10214034633E+02  0.00000000000E+00 0. -1.
</event>
<event>
 7    1  0.2835316E-011  0.5052886E+02  0.7816164E-02  0.1300439E+00
        -11   -1    0    0    0    0  0.00000000000E+00  0.00000000000E+00  0.45593999997E+02  0.45594000000E+02  0.51100000000E-03 0.  1.
         11   -1    0    0    0    0 -0.00000000000E+00 -0.00000000000E+00 -0.45593999997E+02  0.45594000000E+02  0.51100000000E-03 0. -1.
    9900012    2    1    2    0    0 -0.32709285956E+02  0.11124930858E+02 -0.21436040163E+02  0.50528864591E+02  0.30000014411E+02 0.  0.
        -12    1    1    2    0    0  0.32709285956E+02 -0.11124930858E+02  0.21436040163E+02  0.40659135409E+02  0.00000000000E+00 0.  1.
         11    1    3    3    0    0 -0.11606349853E+02  0.90996708918E+01 -0.90299560085E+01  0.17293104783E+02  0.51100000000E-03 0. -1.
        -11    1    3    3    0    0  0.41626711882E+01 -0.26610235279E+01 -0.66906871296E+00  0.49856324414E+01  0.51100000000E-03 0.  1.
         12    1    3    3    0    0 -0.25265607291E+02  0.46862834943E+01 -0.11737015441E+02  0.28250127367E+02  0.00000000000E+00 0. -1.
</event>
<event>
 7    1  0.2835316E-011  0.5052885E+02  0.7816164E-02  0.1300439E+00
        -11   -1    0    0    0    0  0.00000000000E+00  0.00000000000E+00  0.45593999997E+02  0.45594000000E+02  0.51100000000E-03 0.  1.
         11   -1    0    0    0    0 -0.00000000000E+00 -0.00000000000E+00 -0.45593999997E+02  0.45594000000E+02  0.51100000000E-03 0. -1.
    9900012    2    1    2    0    0  0.34207587319E+02  0.14739679777E+02 -0.16301827433E+02  0.50528846445E+02  0.29999959255E+02 0.  0.
        -12    1    1    2    0    0 -0.34207587319E+02 -0.14739679777E+02  0.16301827433E+02  0.40659153555E+02  0.00000000000E+00 0.  1.
         11    1    3    3    0    0  0.91138516369E+01 -0.14633048914E+01 -0.32849957749E+01  0.97976910733E+01  0.51100000000E-03 0. -1.
        -11    1    3    3    0    0  0.21781370641E+02  0.15802518672E+02 -0.19640160079E+02  0.33314915452E+02  0.51100000000E-03 0.  1.
        -12    1    3    3    0    0  0.33123650415E+01  0.40046599641E+00  0.66233284211E+01  0.74162399203E+01  0.00000000000E+00 0.  1.
</event>
<event>
 7    1  0.2835316E-011  0.5052887E+02  0.7816164E-02  0.1300439E+00
        -11   -1    0    0    0    0  0.00000000000E+00  0.00000000000E+00  0.45593999997E+02  0.45594000000E+02  0.51100000000E-03 0. -1.
         11   -1    0    0    0    0 -0.00000000000E+00 -0.00000000000E+00 -0.45593999997E+02  0.45594000000E+02  0.51100000000E-03 0.  1.
    9900012    2    1    2    0    0  0.30771144114E+02 -0.20347415845E+02  0.17096318943E+02  0.50528871098E+02  0.30000034190E+02 0.  0.
        -12    1    1    2    0    0 -0.30771144114E+02  0.20347415845E+02 -0.17096318943E+02  0.40659128902E+02  0.00000000000E+00 0.  1.
         11    1    3    3    0    0  0.70808712547E+01 -0.35862999748E+01  0.73188672889E+01  0.10796578342E+02  0.51100000000E-03 0. -1.
        -11    1    3    3    0    0 -0.10214933077E+01 -0.13035019253E+02  0.62550895945E+01  0.14494182336E+02  0.51100000000E-03 0.  1.
         12    1    3    3    0    0  0.24711766167E+02 -0.37260966176E+01  0.35223620592E+01  0.25238110420E+02  0.00000000000E+00 0. -1.
</event>
<event>
 7    1  0.2835316E-011  0.5052878E+02  0.7816164E-02  0.1300439E+00
        -11   -1    0    0    0    0  0.00000000000E+00  0.00000000000E+00  0.45593999997E+02  0.45594000000E+02  0.51100000000E-03 0.  1.
         11   -1    0    0    0    0 -0.00000000000E+00 -0.00000000000E+00 -0.45593999997E+02  0.45594000000E+02  0.51100000000E-03 0. -1.
    9900012    2    1    2    0    0 -0.14790795266E+02  0.13954387292E+02 -0.35209088875E+02  0.50528776093E+02  0.29999745412E+02 0.  0.
        -12    1    1    2    0    0  0.14790795266E+02 -0.13954387292E+02  0.35209088875E+02  0.40659223907E+02  0.00000000000E+00 0.  1.
         11    1    3    3    0    0 -0.87761449381E+01 -0.21537863957E+01 -0.17622349065E+02  0.19804209216E+02  0.51100000000E-03 0. -1.
        -11    1    3    3    0    0 -0.11624139012E+02  0.49150083349E+01 -0.78351097748E+01  0.14854859816E+02  0.51100000000E-03 0.  1.
        -12    1    3    3    0    0  0.56094886833E+01  0.11193165353E+02 -0.97516300348E+01  0.15869707062E+02  0.00000000000E+00 0.  1.
</event>
<event>
 7    1  0.2835316E-011  0.5052886E+02  0.7816164E-02  0.1300439E+00
        -11   -1    0    0    0    0  0.00000000000E+00  0.00000000000E+00  0.45593999997E+02  0.45594000000E+02  0.51100000000E-03 0. -1.
         11   -1    0    0    0    0 -0.00000000000E+00 -0.00000000000E+00 -0.45593999997E+02  0.45594000000E+02  0.51100000000E-03 0.  1.
    9900012    2    1    2    0    0 -0.33240277088E+02 -0.23045189231E+02  0.41435597851E+01  0.50528857667E+02  0.29999993364E+02 0.  0.
        -12    1    1    2    0    0  0.33240277088E+02  0.23045189231E+02 -0.41435597851E+01  0.40659142333E+02  0.00000000000E+00 0.  1.
         11    1    3    3    0    0 -0.49104847939E+01 -0.17476182587E+02  0.11546933051E+01  0.18189643637E+02  0.51100000000E-03 0. -1.
        -11    1    3    3    0    0 -0.23368357817E+02 -0.93943830921E+01  0.51592354572E+01  0.25708992425E+02  0.51100000000E-03 0.  1.
         12    1    3    3    0    0 -0.49614344772E+01  0.38253764482E+01 -0.21703689771E+01  0.66302216056E+01  0.00000000000E+00 0. -1.
</event>
<event>
 7    1  0.2835316E-011  0.5052886E+02  0.7816164E-02  0.1300439E+00
        -11   -1    0    0    0    0  0.00000000000E+00  0.00000000000E+00  0.45593999997E+02  0.45594000000E+02  0.51100000000E-03 0. -1.
         11   -1    0    0    0    0 -0.00000000000E+00 -0.00000000000E+00 -0.45593999997E+02  0.45594000000E+02  0.51100000000E-03 0.  1.
    9900012    2    1    2    0    0  0.40169259819E+02  0.43092437666E+01  0.45855192498E+01  0.50528855850E+02  0.29999987841E+02 0.  0.
        -12    1    1    2    0    0 -0.40169259819E+02 -0.43092437666E+01 -0.45855192498E+01  0.40659144150E+02  0.00000000000E+00 0.  1.
         11    1    3    3    0    0  0.72960646614E+01  0.47926506977E+01  0.98109411293E+01  0.13132274226E+02  0.51100000000E-03 0.  1.
        -11    1    3    3    0    0  0.10098761870E+02 -0.81310425262E+01 -0.26649334511E+01  0.13236340674E+02  0.51100000000E-03 0. -1.
         12    1    3    3    0    0  0.22774433287E+02  0.76476355951E+01 -0.25604884284E+01  0.24160240950E+02  0.00000000000E+00 0. -1.
</event>
<event>
 7    1  0.2835316E-011  0.5052886E+02  0.7816164E-02  0.1300439E+00
        -11   -1    0    0    0    0  0.00000000000E+00  0.00000000000E+00  0.45593999997E+02  0.45594000000E+02  0.51100000000E-03 0. -1.
         11   -1    0    0    0    0 -0.00000000000E+00 -0.00000000000E+00 -0.45593999997E+02  0.45594000000E+02  0.51100000000E-03 0.  1.
    9900012    2    1    2    0    0  0.69476306397E+01 -0.39911184101E+02  0.34631164546E+01  0.50528863715E+02  0.30000011749E+02 0.  0.
        -12    1    1    2    0    0 -0.69476306397E+01  0.39911184101E+02 -0.34631164546E+01  0.40659136285E+02  0.00000000000E+00 0.  1.
         11    1    3    3    0    0  0.44250036895E+01 -0.22274856341E+02 -0.56993808798E+01  0.23414372196E+02  0.51100000000E-03 0. -1.
        -11    1    3    3    0    0  0.65741232951E+01 -0.19542433716E+02  0.55258582035E+01  0.21346215631E+02  0.51100000000E-03 0.  1.
        -12    1    3    3    0    0 -0.40514963449E+01  0.19061059562E+01  0.36366391309E+01  0.57682758878E+01  0.00000000000E+00 0.  1.
</event>
<event>
 7    1  0.2835316E-011  0.5052888E+02  0.7816164E-02  0.1300439E+00
        -11   -1    0    0    0    0  0.00000000000E+00  0.00000000000E+00  0.45593999997E+02  0.45594000000E+02  0.51100000000E-03 0.  1.
         11   -1    0    0    0    0 -0.00000000000E+00 -0.00000000000E+00 -0.45593999997E+02  0.45594000000E+02  0.51100000000E-03 0. -1.
    9900012    2    1    2    0    0 -0.19571773297E+02  0.35524010691E+02  0.28556150475E+01  0.50528878233E+02  0.30000055878E+02 0.  0.
        -12    1    1    2    0    0  0.19571773297E+02 -0.35524010691E+02 -0.28556150475E+01  0.40659121767E+02  0.00000000000E+00 0.  1.
         11    1    3    3    0    0 -0.71815005452E+01 -0.32932617805E+00 -0.55011545316E+01  0.90523536858E+01  0.51100000000E-03 0. -1.
        -11    1    3    3    0    0  0.12583333825E+01  0.14038232639E+02 -0.91506981301E+00  0.14124189589E+02  0.51100000000E-03 0.  1.
        -12    1    3    3    0    0 -0.13648606134E+02  0.21815104230E+02  0.92718393921E+01  0.27352334958E+02  0.00000000000E+00 0.  1.
</event>
<event>
 7    1  0.2835316E-011  0.5052886E+02  0.7816164E-02  0.1300439E+00
        -11   -1    0    0    0    0  0.00000000000E+00  0.00000000000E+00  0.45593999997E+02  0.45594000000E+02  0.51100000000E-03 0. -1.
         11   -1    0    0    0    0 -0.00000000000E+00 -0.00000000000E+00 -0.45593999997E+02  0.45594000000E+02  0.51100000000E-03 0.  1.
    9900012    2    1    2    0    0 -0.38805241189E+02 -0.12123309441E+02 -0.58693341046E+00  0.50528857531E+02  0.29999992951E+02 0.  0.
        -12    1    1    2    0    0  0.38805241189E+02  0.12123309441E+02  0.58693341046E+00  0.40659142469E+02  0.00000000000E+00 0.  1.
         11    1    3    3    0    0  0.41254598593E+00  0.19329605025E+01  0.35938962068E+01  0.41015388211E+01  0.51100000000E-03 0. -1.
        -11    1    3    3    0    0 -0.15837914729E+02 -0.61506217861E+00  0.68803880505E+01  0.17278818953E+02  0.51100000000E-03 0.  1.
        -12    1    3    3    0    0 -0.23379872446E+02 -0.13441207765E+02 -0.11061217668E+02  0.29148499757E+02  0.00000000000E+00 0.  1.
</event>
<event>
 7    1  0.2835316E-011  0.5052885E+02  0.7816164E-02  0.1300439E+00
        -11   -1    0    0    0    0  0.00000000000E+00  0.00000000000E+00  0.45593999997E+02  0.45594000000E+02  0.51100000000E-03 0.  1.
         11   -1    0    0    0    0 -0.00000000000E+00 -0.00000000000E+00 -0.45593999997E+02  0.45594000000E+02  0.51100000000E-03 0. -1.
    9900012    2    1    2    0    0 -0.11476861472E+02 -0.38958710708E+02  0.19149912364E+01  0.50528847516E+02  0.29999962511E+02 0.  0.
        -12    1    1    2    0    0  0.11476861472E+02  0.38958710708E+02 -0.19149912364E+01  0.40659152484E+02  0.00000000000E+00 0.  1.
         11    1    3    3    0    0 -0.30333602992E+00 -0.16711335165E+01  0.27956322098E+01  0.32711251414E+01  0.51100000000E-03 0.  1.
        -11    1    3    3    0    0 -0.31542009010E+01 -0.17298609359E+02 -0.13613573087E+02  0.22237811078E+02  0.51100000000E-03 0. -1.
         12    1    3    3    0    0 -0.80193245406E+01 -0.19988967832E+02  0.12732932114E+02  0.25019911297E+02  0.00000000000E+00 0. -1.
</event>
<event>
 7    1  0.2835316E-011  0.5052885E+02  0.7816164E-02  0.1300439E+00
        -11   -1    0    0    0    0  0.00000000000E+00  0.00000000000E+00  0.45593999997E+02  0.45594000000E+02  0.51100000000E-03 0.  1.
         11   -1    0    0    0    0 -0.00000000000E+00 -0.00000000000E+00 -0.45593999997E+02  0.45594000000E+02  0.51100000000E-03 0. -1.
    9900012    2    1    2    0    0  0.25165228954E+02 -0.24562940209E+02 -0.20409303615E+02  0.50528850303E+02  0.29999970981E+02 0.  0.
        -12    1    1    2    0    0 -0.25165228954E+02  0.24562940209E+02  0.20409303615E+02  0.40659149697E+02  0.00000000000E+00 0.  1.
         11    1    3    3    0    0  0.12288043112E+02 -0.12346502911E+02 -0.17546102708E+01  0.17507449703E+02  0.51100000000E-03 0. -1.
        -11    1    3    3    0    0 -0.15063997376E+01  0.38640466116E+01  0.49132961880E+00  0.41763023647E+01  0.51100000000E-03 0.  1.
         12    1    3    3    0    0  0.14383585580E+02 -0.16080483910E+02 -0.19146022963E+02  0.28845098235E+02  0.00000000000E+00 0. -1.
</event>
<event>
 7    1  0.2835316E-011  0.5052886E+02  0.7816164E-02  0.1300439E+00
        -11   -1    0    0    0    0  0.00000000000E+00  0.00000000000E+00  0.45593999997E+02  0.45594000000E+02  0.51100000000E-03 0. -1.
         11   -1    0    0    0    0 -0.00000000000E+00 -0.00000000000E+00 -0.45593999997E+02  0.45594000000E+02  0.51100000000E-03 0.  1.
    9900012    2    1    2    0    0 -0.29310396212E+02  0.27530341773E+02 -0.60121975134E+01  0.50528861259E+02  0.30000004282E+02 0.  0.
        -12    1    1    2    0    0  0.29310396212E+02 -0.27530341773E+02  0.60121975134E+01  0.40659138741E+02  0.00000000000E+00 0.  1.
         11    1    3    3    0    0 -0.11228661157E+01  0.15605309971E+02  0.28745658992E+01  0.15907534597E+02  0.51100000000E-03 0. -1.
        -11    1    3    3    0    0 -0.15107170133E+02  0.13442269364E+02 -0.42725457045E+01  0.20668232681E+02  0.51100000000E-03 0.  1.
        -12    1    3    3    0    0 -0.13080359963E+02 -0.15172375616E+01 -0.46142177081E+01  0.13953093981E+02  0.00000000000E+00 0.  1.
</event>
<event>
 7    1  0.2835316E-011  0.5052885E+02  0.7816164E-02  0.1300439E+00
        -11   -1    0    0    0    0  0.00000000000E+00  0.00000000000E+00  0.45593999997E+02  0.45594000000E+02  0.51100000000E-03 0. -1.
         11   -1    0    0    0    0 -0.00000000000E+00 -0.00000000000E+00 -0.45593999997E+02  0.45594000000E+02  0.51100000000E-03 0.  1.
    9900012    2    1    2    0    0 -0.64752418685E+01 -0.14463447914E+02  0.37443912901E+02  0.50528847326E+02  0.29999961933E+02 0.  0.
        -12    1    1    2    0    0  0.64752418685E+01  0.14463447914E+02 -0.37443912901E+02  0.40659152674E+02  0.00000000000E+00 0.  1.
         11    1    3    3    0    0  0.73692719586E+01 -0.11097785097E+02  0.16914518016E+02  0.21530627563E+02  0.51100000000E-03 0. -1.
        -11    1    3    3    0    0 -0.78328232147E+01 -0.61495647975E+01  0.20012235324E+02  0.22353072040E+02  0.51100000000E-03 0.  1.
        -12    1    3    3    0    0 -0.60116906124E+01  0.27839019805E+01  0.51715956105E+00  0.66451477235E+01  0.00000000000E+00 0.  1.
</event>
<event>
 7    1  0.2835316E-011  0.5052886E+02  0.7816164E-02  0.1300439E+00
        -11   -1    0    0    0    0  0.00000000000E+00  0.00000000000E+00  0.45593999997E+02  0.45594000000E+02  0.51100000000E-03 0. -1.
         11   -1    0    0    0    0 -0.00000000000E+00 -0.00000000000E+00 -0.45593999997E+02  0.45594000000E+02  0.51100000000E-03 0.  1.
    9900012    2    1    2    0    0  0.17654182393E+02 -0.83427604314E+01  0.35663624658E+02  0.50528856731E+02  0.29999990520E+02 0.  0.
        -12    1    1    2    0    0 -0.17654182393E+02  0.83427604314E+01 -0.35663624658E+02  0.40659143269E+02  0.00000000000E+00 0.  1.
         11    1    3    3    0    0  0.11838435088E+01  0.15343929426E+01  0.91718612904E+01  0.93743739496E+01  0.51100000000E-03 0. -1.
        -11    1    3    3    0    0  0.18698155526E+01 -0.15585585572E+02  0.11460170930E+02  0.19435591214E+02  0.51100000000E-03 0.  1.
         12    1    3    3    0    0  0.14600523332E+02  0.57084321982E+01  0.15031592438E+02  0.21718891568E+02  0.00000000000E+00 0. -1.
</event>
<event>
 7    1  0.2835316E-011  0.5052885E+02  0.7816164E-02  0.1300439E+00
        -11   -1    0    0    0    0  0.00000000000E+00  0.00000000000E+00  0.45593999997E+02  0.45594000000E+02  0.51100000000E-03 0. -1.
         11   -1    0    0    0    0 -0.00000000000E+00 -0.00000000000E+00 -0.45593999997E+02  0.45594000000E+02  0.51100000000E-03 0.  1.
    9900012    2    1    2    0    0 -0.15800391479E+02 -0.33885204719E+02  0.15978317626E+02  0.50528854609E+02  0.29999984070E+02 0.  0.
        -12    1    1    2    0    0  0.15800391479E+02  0.33885204719E+02 -0.15978317626E+02  0.40659145391E+02  0.00000000000E+00 0.  1.
         11    1    3    3    0    0 -0.36420269698E+01 -0.80395585664E+01  0.18878968041E+02  0.20840208659E+02  0.51100000000E-03 0. -1.
        -11    1    3    3    0    0 -0.84664455338E+00 -0.88808411683E+01 -0.26149622595E+01  0.92964603337E+01  0.51100000000E-03 0.  1.
        -12    1    3    3    0    0 -0.11311719956E+02 -0.16964804984E+02 -0.28568815504E+00  0.20392185617E+02  0.00000000000E+00 0.  1.
</event>
<event>
 7    1  0.2835316E-011  0.5052885E+02  0.7816164E-02  0.1300439E+00
        -11   -1    0    0    0    0  0.00000000000E+00  0.00000000000E+00  0.45593999997E+02  0.45594000000E+02  0.51100000000E-03 0. -1.
         11   -1    0    0    0    0 -0.00000000000E+00 -0.00000000000E+00 -0.45593999997E+02  0.45594000000E+02  0.51100000000E-03 0.  1.
    9900012    2    1    2    0    0 -0.11220784073E+02  0.15641859121E+02  0.35813304842E+02  0.50528849054E+02  0.29999967184E+02 0.  0.
        -12    1    1    2    0    0  0.11220784073E+02 -0.15641859121E+02 -0.35813304842E+02  0.40659150946E+02  0.00000000000E+00 0.  1.
         11    1    3    3    0    0 -0.25471745485E+01 -0.43966718069E+01  0.58852696758E+01  0.77752955299E+01  0.51100000000E-03 0.  1.
        -11    1    3    3    0    0 -0.13180635527E+01  0.40206662190E+01  0.23676711452E+02  0.24051813109E+02  0.51100000000E-03 0. -1.
        -12    1    3    3    0    0 -0.73555459720E+01  0.16017864709E+02  0.62513237138E+01  0.18701740415E+02  0.00000000000E+00 0.  1.
</event>
<event>
 7    1  0.2835316E-011  0.5052886E+02  0.7816164E-02  0.1300439E+00
        -11   -1    0    0    0    0  0.00000000000E+00  0.00000000000E+00  0.45593999997E+02  0.45594000000E+02  0.51100000000E-03 0.  1.
         11   -1    0    0    0    0 -0.00000000000E+00 -0.00000000000E+00 -0.45593999997E+02  0.45594000000E+02  0.51100000000E-03 0. -1.
    9900012    2    1    2    0    0  0.13830837545E+02 -0.38833880750E+00 -0.38232482822E+02  0.50528860598E+02  0.30000002273E+02 0.  0.
        -12    1    1    2    0    0 -0.13830837545E+02  0.38833880750E+00  0.38232482822E+02  0.40659139402E+02  0.00000000000E+00 0.  1.
         11    1    3    3    0    0 -0.52200857417E+00 -0.31208617714E+01 -0.56743937902E+01  0.64970005614E+01  0.51100000000E-03 0. -1.
        -11    1    3    3    0    0  0.19294321608E+02 -0.54311151537E+01 -0.23314208852E+02  0.30746059793E+02  0.51100000000E-03 0.  1.
        -12    1    3    3    0    0 -0.49414754895E+01  0.81636381176E+01 -0.92438801797E+01  0.13285800243E+02  0.00000000000E+00 0.  1.
</event>
<event>
 7    1  0.2835316E-011  0.5052887E+02  0.7816164E-02  0.1300439E+00
        -11   -1    0    0    0    0  0.00000000000E+00  0.00000000000E+00  0.45593999997E+02  0.45594000000E+02  0.51100000000E-03 0.  1.
         11   -1    0    0    0    0 -0.00000000000E+00 -0.00000000000E+00 -0.45593999997E+02  0.45594000000E+02  0.51100000000E-03 0. -1.
    9900012    2    1    2    0    0 -0.19895999906E+02 -0.11725624720E+02 -0.33463764736E+02  0.50528872640E+02  0.30000038876E+02 0.  0.
        -12    1    1    2    0    0  0.19895999906E+02  0.11725624720E+02  0.33463764736E+02  0.40659127360E+02  0.00000000000E+00 0.  1.
         11    1    3    3    0    0  0.21273193708E+01 -0.55148546604E+01 -0.29473024804E+01  0.66049755339E+01  0.51100000000E-03 0. -1.
        -11    1    3    3    0    0 -0.14275768891E+02 -0.13328168329E+02 -0.25891628294E+02  0.32431683034E+02  0.51100000000E-03 0.  1.
        -12    1    3    3    0    0 -0.77475503856E+01  0.71173982692E+01 -0.46248339618E+01  0.11492214072E+02  0.00000000000E+00 0.  1.
</event>
<event>
 7    1  0.2835316E-011  0.5052886E+02  0.7816164E-02  0.1300439E+00
        -11   -1    0    0    0    0  0.00000000000E+00  0.00000000000E+00  0.45593999997E+02  0.45594000000E+02  0.51100000000E-03 0.  1.
         11   -1    0    0    0    0 -0.00000000000E+00 -0.00000000000E+00 -0.45593999997E+02  0.45594000000E+02  0.51100000000E-03 0. -1.
    9900012    2    1    2    0    0  0.25052427657E+02 -0.13696737962E+02 -0.28947208997E+02  0.50528859933E+02  0.30000000252E+02 0.  0.
        -12    1    1    2    0    0 -0.25052427657E+02  0.13696737962E+02  0.28947208997E+02  0.40659140067E+02  0.00000000000E+00 0.  1.
         11    1    3    3    0    0  0.37124983629E+01 -0.12737799910E+01  0.19469391788E+01  0.43812934149E+01  0.51100000000E-03 0. -1.
        -11    1    3    3    0    0  0.87975415002E+01 -0.86988560977E+01  0.24180590019E+00  0.12374380963E+02  0.51100000000E-03 0.  1.
         12    1    3    3    0    0  0.12542387793E+02 -0.37241018738E+01 -0.31135954076E+02  0.33773185555E+02  0.00000000000E+00 0. -1.
</event>
<event>
 7    1  0.2835316E-011  0.5052884E+02  0.7816164E-02  0.1300439E+00
        -11   -1    0    0    0    0  0.00000000000E+00  0.00000000000E+00  0.45593999997E+02  0.45594000000E+02  0.51100000000E-03 0.  1.
         11   -1    0    0    0    0 -0.00000000000E+00 -0.00000000000E+00 -0.45593999997E+02  0.45594000000E+02  0.51100000000E-03 0. -1.
    9900012    2    1    2    0    0  0.22273873614E+01  0.17268517962E+02 -0.36742402034E+02  0.50528842676E+02  0.29999947798E+02 0.  0.
        -12    1    1    2    0    0 -0.22273873614E+01 -0.17268517962E+02  0.36742402034E+02  0.40659157324E+02  0.00000000000E+00 0.  1.
         11    1    3    3    0    0 -0.16088326164E+01  0.21284606468E+01 -0.19490368773E+02  0.19672141782E+02  0.51100000000E-03 0. -1.
        -11    1    3    3    0    0  0.94434519109E+01  0.10018656095E+02 -0.18602854297E+02  0.23143431945E+02  0.51100000000E-03 0.  1.
        -12    1    3    3    0    0 -0.56072319332E+01  0.51214012205E+01  0.13508210358E+01  0.77132689494E+01  0.00000000000E+00 0.  1.
</event>
<event>
 7    1  0.2835316E-011  0.5052886E+02  0.7816164E-02  0.1300439E+00
        -11   -1    0    0    0    0  0.00000000000E+00  0.00000000000E+00  0.45593999997E+02  0.45594000000E+02  0.51100000000E-03 0. -1.
         11   -1    0    0    0    0 -0.00000000000E+00 -0.00000000000E+00 -0.45593999997E+02  0.45594000000E+02  0.51100000000E-03 0.  1.
    9900012    2    1    2    0    0  0.20872369307E+02 -0.27040705840E+02  0.22052432564E+02  0.50528863821E+02  0.30000012071E+02 0.  0.
        -12    1    1    2    0    0 -0.20872369307E+02  0.27040705840E+02 -0.22052432564E+02  0.40659136179E+02  0.00000000000E+00 0.  1.
         11    1    3    3    0    0  0.16147751816E+02 -0.31589254409E+02  0.18216433122E+02  0.39880688544E+02  0.51100000000E-03 0. -1.
        -11    1    3    3    0    0 -0.13162560507E+01 -0.85709173103E+00 -0.21603641400E+00  0.15854993597E+01  0.51100000000E-03 0.  1.
         12    1    3    3    0    0  0.60408735418E+01  0.54056403000E+01  0.40520358562E+01  0.90626759172E+01  0.00000000000E+00 0. -1.
</event>
<event>
 7    1  0.2835316E-011  0.5052888E+02  0.7816164E-02  0.1300439E+00
        -11   -1    0    0    0    0  0.00000000000E+00  0.00000000000E+00  0.45593999997E+02  0.45594000000E+02  0.51100000000E-03 0.  1.
         11   -1    0    0    0    0 -0.00000000000E+00 -0.00000000000E+00 -0.45593999997E+02  0.45594000000E+02  0.51100000000E-03 0. -1.
    9900012    2    1    2    0    0 -0.24492928755E+02 -0.28467963775E+02  0.15583179249E+02  0.50528880531E+02  0.30000062862E+02 0.  0.
        -12    1    1    2    0    0  0.24492928755E+02  0.28467963775E+02 -0.15583179249E+02  0.40659119469E+02  0.00000000000E+00 0.  1.
         11    1    3    3    0    0 -0.24352088647E+02 -0.17019933258E+02  0.15267433190E+01  0.29749509156E+02  0.51100000000E-03 0. -1.
        -11    1    3    3    0    0 -0.26173653146E+01 -0.10797426758E+02  0.66626596013E+01  0.12954769740E+02  0.51100000000E-03 0.  1.
        -12    1    3    3    0    0  0.24765252066E+01 -0.65060375828E+00  0.73937763287E+01  0.78246016351E+01  0.00000000000E+00 0.  1.
</event>
<event>
 7    1  0.2835316E-011  0.5052888E+02  0.7816164E-02  0.1300439E+00
        -11   -1    0    0    0    0  0.00000000000E+00  0.00000000000E+00  0.45593999997E+02  0.45594000000E+02  0.51100000000E-03 0.  1.
         11   -1    0    0    0    0 -0.00000000000E+00 -0.00000000000E+00 -0.45593999997E+02  0.45594000000E+02  0.51100000000E-03 0. -1.
    9900012    2    1    2    0    0 -0.17589987235E+02  0.24256796340E+02 -0.27483892883E+02  0.50528878174E+02  0.30000055699E+02 0.  0.
        -12    1    1    2    0    0  0.17589987235E+02 -0.24256796340E+02  0.27483892883E+02  0.40659121826E+02  0.00000000000E+00 0.  1.
         11    1    3    3    0    0 -0.16891970597E+01  0.98258888813E+01 -0.43844952329E+01  0.10891523205E+02  0.51100000000E-03 0. -1.
        -11    1    3    3    0    0 -0.57244933165E+01  0.42063814496E+01  0.45605390457E+01  0.84416814248E+01  0.51100000000E-03 0.  1.
         12    1    3    3    0    0 -0.10176296859E+02  0.10224526009E+02 -0.27659936696E+02  0.31195673545E+02  0.00000000000E+00 0. -1.
</event>
<event>
 7    1  0.2835316E-011  0.5052894E+02  0.7816164E-02  0.1300439E+00
        -11   -1    0    0    0    0  0.00000000000E+00  0.00000000000E+00  0.45593999997E+02  0.45594000000E+02  0.51100000000E-03 0. -1.
         11   -1    0    0    0    0 -0.00000000000E+00 -0.00000000000E+00 -0.45593999997E+02  0.45594000000E+02  0.51100000000E-03 0.  1.
    9900012    2    1    2    0    0 -0.14081950036E+02 -0.34439147970E+02  0.16395204661E+02  0.50528942391E+02  0.30000250892E+02 0.  0.
        -12    1    1    2    0    0  0.14081950036E+02  0.34439147970E+02 -0.16395204661E+02  0.40659057609E+02  0.00000000000E+00 0.  1.
         11    1    3    3    0    0 -0.77433176349E+01 -0.31622848491E+02  0.19085001603E+02  0.37738585044E+02  0.51100000000E-03 0. -1.
        -11    1    3    3    0    0  0.87809690931E+00  0.12526729165E+01  0.25600288509E+01  0.29822795973E+01  0.51100000000E-03 0.  1.
        -12    1    3    3    0    0 -0.72167293105E+01 -0.40689723959E+01 -0.52498257928E+01  0.98080777502E+01  0.00000000000E+00 0.  1.
</event>
<event>
 7    1  0.2835316E-011  0.5052887E+02  0.7816164E-02  0.1300439E+00
        -11   -1    0    0    0    0  0.00000000000E+00  0.00000000000E+00  0.45593999997E+02  0.45594000000E+02  0.51100000000E-03 0.  1.
         11   -1    0    0    0    0 -0.00000000000E+00 -0.00000000000E+00 -0.45593999997E+02  0.45594000000E+02  0.51100000000E-03 0. -1.
    9900012    2    1    2    0    0 -0.93242321710E+01  0.28351638954E+02 -0.27611738106E+02  0.50528870420E+02  0.30000032129E+02 0.  0.
        -12    1    1    2    0    0  0.93242321710E+01 -0.28351638954E+02  0.27611738106E+02  0.40659129580E+02  0.00000000000E+00 0.  1.
         11    1    3    3    0    0 -0.11942869846E+02  0.11330128438E+02 -0.73097823862E+01  0.18012131173E+02  0.51100000000E-03 0. -1.
        -11    1    3    3    0    0  0.45031540900E+01  0.22601556422E+01  0.22334117160E+01  0.55113363569E+01  0.51100000000E-03 0.  1.
         12    1    3    3    0    0 -0.18845164148E+01  0.14761354874E+02 -0.22535367436E+02  0.27005402891E+02  0.00000000000E+00 0. -1.
</event>
<event>
 7    1  0.2835316E-011  0.5052886E+02  0.7816164E-02  0.1300439E+00
        -11   -1    0    0    0    0  0.00000000000E+00  0.00000000000E+00  0.45593999997E+02  0.45594000000E+02  0.51100000000E-03 0. -1.
         11   -1    0    0    0    0 -0.00000000000E+00 -0.00000000000E+00 -0.45593999997E+02  0.45594000000E+02  0.51100000000E-03 0.  1.
    9900012    2    1    2    0    0 -0.39667286854E+02  0.45219033290E+01  0.76957202743E+01  0.50528863676E+02  0.30000011629E+02 0.  0.
        -12    1    1    2    0    0  0.39667286854E+02 -0.45219033290E+01 -0.76957202743E+01  0.40659136324E+02  0.00000000000E+00 0.  1.
         11    1    3    3    0    0 -0.20811743499E+02  0.11286461026E+02 -0.18889706821E+01  0.23750391165E+02  0.51100000000E-03 0. -1.
        -11    1    3    3    0    0 -0.71009086966E+00 -0.54835284995E+00  0.74222487851E+01  0.74762756223E+01  0.51100000000E-03 0.  1.
         12    1    3    3    0    0 -0.18145452485E+02 -0.62162048474E+01  0.21624421713E+01  0.19302196889E+02  0.00000000000E+00 0. -1.
</event>
<event>
 7    1  0.2835316E-011  0.5052887E+02  0.7816164E-02  0.1300439E+00
        -11   -1    0    0    0    0  0.00000000000E+00  0.00000000000E+00  0.45593999997E+02  0.45594000000E+02  0.51100000000E-03 0. -1.
         11   -1    0    0    0    0 -0.00000000000E+00 -0.00000000000E+00 -0.45593999997E+02  0.45594000000E+02  0.51100000000E-03 0.  1.
    9900012    2    1    2    0    0  0.47182819047E+01  0.39772294375E+02  0.70048126481E+01  0.50528868378E+02  0.30000025922E+02 0.  0.
        -12    1    1    2    0    0 -0.47182819047E+01 -0.39772294375E+02 -0.70048126481E+01  0.40659131622E+02  0.00000000000E+00 0.  1.
         11    1    3    3    0    0 -0.97017067526E+01  0.22620874600E+02  0.45391685054E+01  0.25028606285E+02  0.51100000000E-03 0. -1.
        -11    1    3    3    0    0  0.77989332315E+01  0.16917618138E+02  0.29348475395E+01  0.18858485977E+02  0.51100000000E-03 0.  1.
        -12    1    3    3    0    0  0.66210554259E+01  0.23380163806E+00 -0.46920339676E+00  0.66417761168E+01  0.00000000000E+00 0.  1.
</event>
<event>
 7    1  0.2835316E-011  0.5052885E+02  0.7816164E-02  0.1300439E+00
        -11   -1    0    0    0    0  0.00000000000E+00  0.00000000000E+00  0.45593999997E+02  0.45594000000E+02  0.51100000000E-03 0.  1.
         11   -1    0    0    0    0 -0.00000000000E+00 -0.00000000000E+00 -0.45593999997E+02  0.45594000000E+02  0.51100000000E-03 0. -1.
    9900012    2    1    2    0    0  0.39051829785E+02 -0.14823177509E+01 -0.11221584608E+02  0.50528848059E+02  0.29999964159E+02 0.  0.
        -12    1    1    2    0    0 -0.39051829785E+02  0.14823177509E+01  0.11221584608E+02  0.40659151941E+02  0.00000000000E+00 0.  1.
         11    1    3    3    0    0  0.23536231968E+02  0.14468947574E+01 -0.10234792306E+02  0.25706005008E+02  0.51100000000E-03 0. -1.
        -11    1    3    3    0    0  0.13594595398E+02  0.37402921354E+01  0.56782695445E+01  0.15200182716E+02  0.51100000000E-03 0.  1.
         12    1    3    3    0    0  0.19210024187E+01 -0.66695046438E+01 -0.66650618473E+01  0.96226603346E+01  0.00000000000E+00 0. -1.
</event>
<event>
 7    1  0.2835316E-011  0.5052882E+02  0.7816164E-02  0.1300439E+00
        -11   -1    0    0    0    0  0.00000000000E+00  0.00000000000E+00  0.45593999997E+02  0.45594000000E+02  0.51100000000E-03 0. -1.
         11   -1    0    0    0    0 -0.00000000000E+00 -0.00000000000E+00 -0.45593999997E+02  0.45594000000E+02  0.51100000000E-03 0.  1.
    9900012    2    1    2    0    0 -0.34044681561E+02 -0.15716162256E+02  0.15720387764E+02  0.50528822806E+02  0.29999887400E+02 0.  0.
        -12    1    1    2    0    0  0.34044681561E+02  0.15716162256E+02 -0.15720387764E+02  0.40659177194E+02  0.00000000000E+00 0.  1.
         11    1    3    3    0    0 -0.20908374883E+02  0.21529657812E+01  0.79811297139E+01  0.22483190024E+02  0.51100000000E-03 0.  1.
        -11    1    3    3    0    0 -0.16513372503E+02 -0.16394533375E+02  0.65595650573E+01  0.24176436669E+02  0.51100000000E-03 0. -1.
        -12    1    3    3    0    0  0.33770658244E+01 -0.14745946619E+01  0.11796929926E+01  0.38691961124E+01  0.00000000000E+00 0.  1.
</event>
<event>
 7    1  0.2835316E-011  0.5052886E+02  0.7816164E-02  0.1300439E+00
        -11   -1    0    0    0    0  0.00000000000E+00  0.00000000000E+00  0.45593999997E+02  0.45594000000E+02  0.51100000000E-03 0.  1.
         11   -1    0    0    0    0 -0.00000000000E+00 -0.00000000000E+00 -0.45593999997E+02  0.45594000000E+02  0.51100000000E-03 0. -1.
    9900012    2    1    2    0    0 -0.16580977759E+02 -0.32669700365E+02 -0.17633132126E+02  0.50528862110E+02  0.30000006871E+02 0.  0.
        -12    1    1    2    0    0  0.16580977759E+02  0.32669700365E+02  0.17633132126E+02  0.40659137890E+02  0.00000000000E+00 0.  1.
         11    1    3    3    0    0 -0.14557544868E+02 -0.18722880802E+02 -0.56627504517E+01  0.24383090884E+02  0.51100000000E-03 0. -1.
        -11    1    3    3    0    0 -0.59933862893E+01  0.85140733278E-02  0.16804271501E+01  0.62245150309E+01  0.51100000000E-03 0.  1.
        -12    1    3    3    0    0  0.39699533979E+01 -0.13955333636E+02 -0.13650808824E+02  0.19921256196E+02  0.00000000000E+00 0.  1.
</event>
<event>
 7    1  0.2835316E-011  0.5052886E+02  0.7816164E-02  0.1300439E+00
        -11   -1    0    0    0    0  0.00000000000E+00  0.00000000000E+00  0.45593999997E+02  0.45594000000E+02  0.51100000000E-03 0. -1.
         11   -1    0    0    0    0 -0.00000000000E+00 -0.00000000000E+00 -0.45593999997E+02  0.45594000000E+02  0.51100000000E-03 0.  1.
    9900012    2    1    2    0    0 -0.12186807075E+02  0.38180797754E+02 -0.68464851106E+01  0.50528856598E+02  0.29999990117E+02 0.  0.
        -12    1    1    2    0    0  0.12186807075E+02 -0.38180797754E+02  0.68464851106E+01  0.40659143402E+02  0.00000000000E+00 0.  1.
         11    1    3    3    0    0 -0.40322965712E+01  0.21283757872E+01 -0.67410121126E+01  0.81382211627E+01  0.51100000000E-03 0. -1.
        -11    1    3    3    0    0  0.68398922283E+01  0.87907929533E+01 -0.15408104766E+01  0.11244388095E+02  0.51100000000E-03 0.  1.
         12    1    3    3    0    0 -0.14994402732E+02  0.27261629013E+02  0.14353374786E+01  0.31146247341E+02  0.00000000000E+00 0. -1.
</event>
<event>
 7    1  0.2835316E-011  0.5052890E+02  0.7816164E-02  0.1300439E+00
        -11   -1    0    0    0    0  0.00000000000E+00  0.00000000000E+00  0.45593999997E+02  0.45594000000E+02  0.51100000000E-03 0.  1.
         11   -1    0    0    0    0 -0.00000000000E+00 -0.00000000000E+00 -0.45593999997E+02  0.45594000000E+02  0.51100000000E-03 0. -1.
    9900012    2    1    2    0    0  0.70729960573E+01 -0.24632775352E+02 -0.31565196099E+02  0.50528898934E+02  0.30000118800E+02 0.  0.
        -12    1    1    2    0    0 -0.70729960573E+01  0.24632775352E+02  0.31565196099E+02  0.40659101066E+02  0.00000000000E+00 0.  1.
         11    1    3    3    0    0 -0.28981457053E+01 -0.17036735513E+02 -0.22999265177E+02  0.28768312506E+02  0.51100000000E-03 0. -1.
        -11    1    3    3    0    0  0.41027011029E+01 -0.21924279902E+01 -0.12153773323E+02  0.13013573802E+02  0.51100000000E-03 0.  1.
         12    1    3    3    0    0  0.58684406597E+01 -0.54036118482E+01  0.35878424023E+01  0.87470126264E+01  0.00000000000E+00 0. -1.
</event>
<event>
 7    1  0.2835316E-011  0.5052886E+02  0.7816164E-02  0.1300439E+00
        -11   -1    0    0    0    0  0.00000000000E+00  0.00000000000E+00  0.45593999997E+02  0.45594000000E+02  0.51100000000E-03 0. -1.
         11   -1    0    0    0    0 -0.00000000000E+00 -0.00000000000E+00 -0.45593999997E+02  0.45594000000E+02  0.51100000000E-03 0.  1.
    9900012    2    1    2    0    0  0.33859567592E+02 -0.16807399370E+02  0.14973526409E+02  0.50528862230E+02  0.30000007234E+02 0.  0.
        -12    1    1    2    0    0 -0.33859567592E+02  0.16807399370E+02 -0.14973526409E+02  0.40659137770E+02  0.00000000000E+00 0.  1.
         11    1    3    3    0    0  0.76025064516E+01  0.36878249035E+01 -0.13360295772E+01  0.85547140313E+01  0.51100000000E-03 0. -1.
        -11    1    3    3    0    0 -0.26648073600E+01 -0.49022262909E+01  0.40892807716E+01  0.69177480702E+01  0.51100000000E-03 0.  1.
         12    1    3    3    0    0  0.28921868501E+02 -0.15592997982E+02  0.12220275214E+02  0.35056400128E+02  0.00000000000E+00 0. -1.
</event>
<event>
 7    1  0.2835316E-011  0.5052883E+02  0.7816164E-02  0.1300439E+00
        -11   -1    0    0    0    0  0.00000000000E+00  0.00000000000E+00  0.45593999997E+02  0.45594000000E+02  0.51100000000E-03 0.  1.
         11   -1    0    0    0    0 -0.00000000000E+00 -0.00000000000E+00 -0.45593999997E+02  0.45594000000E+02  0.51100000000E-03 0. -1.
    9900012    2    1    2    0    0 -0.23546614535E+02  0.10430638209E+02 -0.31463097627E+02  0.50528833976E+02  0.29999921353E+02 0.  0.
        -12    1    1    2    0    0  0.23546614535E+02 -0.10430638209E+02  0.31463097627E+02  0.40659166024E+02  0.00000000000E+00 0.  1.
         11    1    3    3    0    0 -0.60286469241E+01 -0.20812169933E+01 -0.89537683443E+00  0.64403220297E+01  0.51100000000E-03 0. -1.
        -11    1    3    3    0    0  0.57825546463E+01  0.14067715966E+01 -0.53355873201E+01  0.79928365974E+01  0.51100000000E-03 0.  1.
         12    1    3    3    0    0 -0.23300522257E+02  0.11105083605E+02 -0.25232133472E+02  0.36095675349E+02  0.00000000000E+00 0. -1.
</event>
<event>
 7    1  0.2835316E-011  0.5052886E+02  0.7816164E-02  0.1300439E+00
        -11   -1    0    0    0    0  0.00000000000E+00  0.00000000000E+00  0.45593999997E+02  0.45594000000E+02  0.51100000000E-03 0.  1.
         11   -1    0    0    0    0 -0.00000000000E+00 -0.00000000000E+00 -0.45593999997E+02  0.45594000000E+02  0.51100000000E-03 0. -1.
    9900012    2    1    2    0    0 -0.25623584571E+02 -0.23029828661E+02 -0.21592225117E+02  0.50528864742E+02  0.30000014871E+02 0.  0.
        -12    1    1    2    0    0  0.25623584571E+02  0.23029828661E+02  0.21592225117E+02  0.40659135258E+02  0.00000000000E+00 0.  1.
         11    1    3    3    0    0 -0.12060839699E+02 -0.18924968747E+01 -0.42423117371E+01  0.12924496424E+02  0.51100000000E-03 0. -1.
        -11    1    3    3    0    0  0.42045327929E+01  0.15795876239E+01 -0.29076246774E+01  0.53504648951E+01  0.51100000000E-03 0.  1.
        -12    1    3    3    0    0 -0.17767277664E+02 -0.22716919410E+02 -0.14442288703E+02  0.32253903424E+02  0.00000000000E+00 0.  1.
</event>
<event>
 7    1  0.2835316E-011  0.5052885E+02  0.7816164E-02  0.1300439E+00
        -11   -1    0    0    0    0  0.00000000000E+00  0.00000000000E+00  0.45593999997E+02  0.45594000000E+02  0.51100000000E-03 0.  1.
         11   -1    0    0    0    0 -0.00000000000E+00 -0.00000000000E+00 -0.45593999997E+02  0.45594000000E+02  0.51100000000E-03 0. -1.
    9900012    2    1    2    0    0 -0.55038070123E+01 -0.34529254243E+02  0.20751027887E+02  0.50528850371E+02  0.29999971187E+02 0.  0.
        -12    1    1    2    0    0  0.55038070123E+01  0.34529254243E+02 -0.20751027887E+02  0.40659149629E+02  0.00000000000E+00 0.  1.
         11    1    3    3    0    0 -0.30821167650E+01 -0.26617115039E+02  0.17582713666E+02  0.32048745325E+02  0.51100000000E-03 0. -1.
        -11    1    3    3    0    0  0.31986201218E+01  0.34586104264E+01  0.33739127693E+01  0.57945184789E+01  0.51100000000E-03 0.  1.
        -12    1    3    3    0    0 -0.56203103691E+01 -0.11370749630E+02 -0.20559854783E+00  0.12685586567E+02  0.00000000000E+00 0.  1.
</event>
<event>
 7    1  0.2835316E-011  0.5052886E+02  0.7816164E-02  0.1300439E+00
        -11   -1    0    0    0    0  0.00000000000E+00  0.00000000000E+00  0.45593999997E+02  0.45594000000E+02  0.51100000000E-03 0. -1.
         11   -1    0    0    0    0 -0.00000000000E+00 -0.00000000000E+00 -0.45593999997E+02  0.45594000000E+02  0.51100000000E-03 0.  1.
    9900012    2    1    2    0    0  0.23848350392E+02 -0.32897828325E+02 -0.14678647303E+01  0.50528861399E+02  0.30000004708E+02 0.  0.
        -12    1    1    2    0    0 -0.23848350392E+02  0.32897828325E+02  0.14678647303E+01  0.40659138601E+02  0.00000000000E+00 0.  1.
         11    1    3    3    0    0  0.12123887828E+01 -0.12138606883E+02  0.11318037661E+00  0.12199527601E+02  0.51100000000E-03 0. -1.
        -11    1    3    3    0    0  0.67650381140E+01  0.35148005535E+01 -0.50143169308E+01  0.91248527746E+01  0.51100000000E-03 0.  1.
         12    1    3    3    0    0  0.15870923495E+02 -0.24274021995E+02  0.34332718239E+01  0.29204481023E+02  0.00000000000E+00 0. -1.
</event>
<event>
 7    1  0.2835316E-011  0.5052886E+02  0.7816164E-02  0.1300439E+00
        -11   -1    0    0    0    0  0.00000000000E+00  0.00000000000E+00  0.45593999997E+02  0.45594000000E+02  0.51100000000E-03 0.  1.
         11   -1    0    0    0    0 -0.00000000000E+00 -0.00000000000E+00 -0.45593999997E+02  0.45594000000E+02  0.51100000000E-03 0. -1.
    9900012    2    1    2    0    0 -0.90735468974E+01  0.21323471001E+02 -0.33408774764E+02  0.50528857117E+02  0.29999991692E+02 0.  0.
        -12    1    1    2    0    0  0.90735468974E+01 -0.21323471001E+02  0.33408774764E+02  0.40659142883E+02  0.00000000000E+00 0.  1.
         11    1    3    3    0    0 -0.10046259887E+02  0.92393247319E+01 -0.25489254285E+01  0.13884865153E+02  0.51100000000E-03 0. -1.
        -11    1    3    3    0    0 -0.71961422203E+01  0.44134499343E+01 -0.15215419202E+02  0.17400344391E+02  0.51100000000E-03 0.  1.
         12    1    3    3    0    0  0.81688552101E+01  0.76706963344E+01 -0.15644430133E+02  0.19243647572E+02  0.00000000000E+00 0. -1.
</event>
<event>
 7    1  0.2835316E-011  0.5052886E+02  0.7816164E-02  0.1300439E+00
        -11   -1    0    0    0    0  0.00000000000E+00  0.00000000000E+00  0.45593999997E+02  0.45594000000E+02  0.51100000000E-03 0.  1.
         11   -1    0    0    0    0 -0.00000000000E+00 -0.00000000000E+00 -0.45593999997E+02  0.45594000000E+02  0.51100000000E-03 0. -1.
    9900012    2    1    2    0    0 -0.17361903275E+02 -0.32356559652E+02 -0.17458044864E+02  0.50528856277E+02  0.29999989139E+02 0.  0.
        -12    1    1    2    0    0  0.17361903275E+02  0.32356559652E+02  0.17458044864E+02  0.40659143723E+02  0.00000000000E+00 0.  1.
         11    1    3    3    0    0 -0.33538214237E+01 -0.23214394175E+02 -0.64716672436E+01  0.24331845229E+02  0.51100000000E-03 0. -1.
        -11    1    3    3    0    0  0.21998060038E+01  0.26072185521E+01 -0.10654673791E+00  0.34129294604E+01  0.51100000000E-03 0.  1.
         12    1    3    3    0    0 -0.16207887855E+02 -0.11749384029E+02 -0.10879830882E+02  0.22784081588E+02  0.00000000000E+00 0. -1.
</event>
<event>
 7    1  0.2835316E-011  0.5052889E+02  0.7816164E-02  0.1300439E+00
        -11   -1    0    0    0    0  0.00000000000E+00  0.00000000000E+00  0.45593999997E+02  0.45594000000E+02  0.51100000000E-03 0. -1.
         11   -1    0    0    0    0 -0.00000000000E+00 -0.00000000000E+00 -0.45593999997E+02  0.45594000000E+02  0.51100000000E-03 0.  1.
    9900012    2    1    2    0    0 -0.32503199668E+02  0.24396088530E+02 -0.12394126755E+01  0.50528889484E+02  0.30000090075E+02 0.  0.
        -12    1    1    2    0    0  0.32503199668E+02 -0.24396088530E+02  0.12394126755E+01  0.40659110516E+02  0.00000000000E+00 0.  1.
         11    1    3    3    0    0 -0.96053238485E+01  0.17348118379E+02  0.21132160742E+01  0.19942044528E+02  0.51100000000E-03 0. -1.
        -11    1    3    3    0    0 -0.53814724785E+01  0.61334685428E+01 -0.90110990410E+01  0.12156462832E+02  0.51100000000E-03 0.  1.
         12    1    3    3    0    0 -0.17516403341E+02  0.91450160787E+00  0.56584702913E+01  0.18430382124E+02  0.00000000000E+00 0. -1.
</event>
<event>
 7    1  0.2835316E-011  0.5052886E+02  0.7816164E-02  0.1300439E+00
        -11   -1    0    0    0    0  0.00000000000E+00  0.00000000000E+00  0.45593999997E+02  0.45594000000E+02  0.51100000000E-03 0.  1.
         11   -1    0    0    0    0 -0.00000000000E+00 -0.00000000000E+00 -0.45593999997E+02  0.45594000000E+02  0.51100000000E-03 0. -1.
    9900012    2    1    2    0    0  0.12209381701E+02 -0.26994965190E+02 -0.27845436091E+02  0.50528862549E+02  0.30000008204E+02 0.  0.
        -12    1    1    2    0    0 -0.12209381701E+02  0.26994965190E+02  0.27845436091E+02  0.40659137451E+02  0.00000000000E+00 0.  1.
         11    1    3    3    0    0 -0.21185609736E+00 -0.71259750457E+01 -0.20750972997E+02  0.21941451272E+02  0.51100000000E-03 0. -1.
        -11    1    3    3    0    0  0.12068107295E+02 -0.16805617045E+02 -0.11141879184E+02  0.23499137218E+02  0.51100000000E-03 0.  1.
        -12    1    3    3    0    0  0.35313050285E+00 -0.30633730994E+01  0.40474160897E+01  0.50882740591E+01  0.00000000000E+00 0.  1.
</event>
<event>
 7    1  0.2835316E-011  0.5052877E+02  0.7816164E-02  0.1300439E+00
        -11   -1    0    0    0    0  0.00000000000E+00  0.00000000000E+00  0.45593999997E+02  0.45594000000E+02  0.51100000000E-03 0.  1.
         11   -1    0    0    0    0 -0.00000000000E+00 -0.00000000000E+00 -0.45593999997E+02  0.45594000000E+02  0.51100000000E-03 0. -1.
    9900012    2    1    2    0    0 -0.12760276216E+02  0.14763595030E+02 -0.35670499024E+02  0.50528771184E+02  0.29999730490E+02 0.  0.
        -12    1    1    2    0    0  0.12760276216E+02 -0.14763595030E+02  0.35670499024E+02  0.40659228816E+02  0.00000000000E+00 0.  1.
         11    1    3    3    0    0 -0.74422551082E+01  0.77476837592E+01 -0.51297100364E+01  0.11904943933E+02  0.51100000000E-03 0. -1.
        -11    1    3    3    0    0 -0.41487340207E+01  0.86331453696E+01 -0.17168908439E+01  0.97309253094E+01  0.51100000000E-03 0.  1.
         12    1    3    3    0    0 -0.11692870869E+01 -0.16172340990E+01 -0.28823898144E+02  0.28892901942E+02  0.00000000000E+00 0. -1.
</event>
<event>
 7    1  0.2835316E-011  0.5052888E+02  0.7816164E-02  0.1300439E+00
        -11   -1    0    0    0    0  0.00000000000E+00  0.00000000000E+00  0.45593999997E+02  0.45594000000E+02  0.51100000000E-03 0. -1.
         11   -1    0    0    0    0 -0.00000000000E+00 -0.00000000000E+00 -0.45593999997E+02  0.45594000000E+02  0.51100000000E-03 0.  1.
    9900012    2    1    2    0    0 -0.50649628779E+01  0.39198140004E+02  0.95402100094E+01  0.50528884961E+02  0.30000076328E+02 0.  0.
        -12    1    1    2    0    0  0.50649628779E+01 -0.39198140004E+02 -0.95402100094E+01  0.40659115039E+02  0.00000000000E+00 0.  1.
         11    1    3    3    0    0 -0.18262511594E+01  0.26126562999E+02 -0.17843567814E+01  0.26251026967E+02  0.51100000000E-03 0. -1.
        -11    1    3    3    0    0  0.57288704064E+01  0.74848549819E+01  0.95500746883E+00  0.94739141731E+01  0.51100000000E-03 0.  1.
         12    1    3    3    0    0 -0.89675821248E+01  0.55867220229E+01  0.10369559322E+02  0.14803943821E+02  0.00000000000E+00 0. -1.
</event>
<event>
 7    1  0.2835316E-011  0.5052886E+02  0.7816164E-02  0.1300439E+00
        -11   -1    0    0    0    0  0.00000000000E+00  0.00000000000E+00  0.45593999997E+02  0.45594000000E+02  0.51100000000E-03 0.  1.
         11   -1    0    0    0    0 -0.00000000000E+00 -0.00000000000E+00 -0.45593999997E+02  0.45594000000E+02  0.51100000000E-03 0. -1.
    9900012    2    1    2    0    0 -0.11575583798E+02  0.16841760085E+02 -0.35150060828E+02  0.50528858356E+02  0.29999995458E+02 0.  0.
        -12    1    1    2    0    0  0.11575583798E+02 -0.16841760085E+02  0.35150060828E+02  0.40659141644E+02  0.00000000000E+00 0.  1.
         11    1    3    3    0    0 -0.81313885804E+01  0.20390740525E+01 -0.44705381848E+01  0.95006849837E+01  0.51100000000E-03 0.  1.
        -11    1    3    3    0    0 -0.64944899758E+01  0.15526222905E+02 -0.33056406759E+02  0.37094042996E+02  0.51100000000E-03 0. -1.
        -12    1    3    3    0    0  0.30502947578E+01 -0.72353687260E+00  0.23768841154E+01  0.39341303758E+01  0.00000000000E+00 0.  1.
</event>
<event>
 7    1  0.2835316E-011  0.5052887E+02  0.7816164E-02  0.1300439E+00
        -11   -1    0    0    0    0  0.00000000000E+00  0.00000000000E+00  0.45593999997E+02  0.45594000000E+02  0.51100000000E-03 0.  1.
         11   -1    0    0    0    0 -0.00000000000E+00 -0.00000000000E+00 -0.45593999997E+02  0.45594000000E+02  0.51100000000E-03 0. -1.
    9900012    2    1    2    0    0 -0.13831211364E+02  0.35210658713E+02  0.14902088509E+02  0.50528866503E+02  0.30000020222E+02 0.  0.
        -12    1    1    2    0    0  0.13831211364E+02 -0.35210658713E+02 -0.14902088509E+02  0.40659133497E+02  0.00000000000E+00 0.  1.
         11    1    3    3    0    0 -0.60155266287E+01  0.87732373463E+00 -0.20267812588E+01  0.64081276585E+01  0.51100000000E-03 0. -1.
        -11    1    3    3    0    0 -0.12369020320E+02  0.15115051669E+02  0.14277889331E+02  0.24193296069E+02  0.51100000000E-03 0.  1.
         12    1    3    3    0    0  0.45533355848E+01  0.19218283309E+02  0.26509804366E+01  0.19927442776E+02  0.00000000000E+00 0. -1.
</event>
<event>
 7    1  0.2835316E-011  0.5052887E+02  0.7816164E-02  0.1300439E+00
        -11   -1    0    0    0    0  0.00000000000E+00  0.00000000000E+00  0.45593999997E+02  0.45594000000E+02  0.51100000000E-03 0.  1.
         11   -1    0    0    0    0 -0.00000000000E+00 -0.00000000000E+00 -0.45593999997E+02  0.45594000000E+02  0.51100000000E-03 0. -1.
    9900012    2    1    2    0    0  0.39993982410E+00  0.37806098273E+02  0.14956738463E+02  0.50528867644E+02  0.30000023691E+02 0.  0.
        -12    1    1    2    0    0 -0.39993982410E+00 -0.37806098273E+02 -0.14956738463E+02  0.40659132356E+02  0.00000000000E+00 0.  1.
         11    1    3    3    0    0 -0.27833282253E+01  0.61981117116E+01 -0.53294630838E+00  0.68152429765E+01  0.51100000000E-03 0. -1.
        -11    1    3    3    0    0  0.28146434372E+01 -0.33351232802E+01 -0.18055321714E+01  0.47228393638E+01  0.51100000000E-03 0.  1.
         12    1    3    3    0    0  0.36862461216E+00  0.34943109841E+02  0.17295216943E+02  0.38990785304E+02  0.00000000000E+00 0. -1.
</event>
<event>
 7    1  0.2835316E-011  0.5052885E+02  0.7816164E-02  0.1300439E+00
        -11   -1    0    0    0    0  0.00000000000E+00  0.00000000000E+00  0.45593999997E+02  0.45594000000E+02  0.51100000000E-03 0. -1.
         11   -1    0    0    0    0 -0.00000000000E+00 -0.00000000000E+00 -0.45593999997E+02  0.45594000000E+02  0.51100000000E-03 0.  1.
    9900012    2    1    2    0    0  0.33537546009E+02 -0.22453707913E+02 -0.49224065361E+01  0.50528854935E+02  0.29999985059E+02 0.  0.
        -12    1    1    2    0    0 -0.33537546009E+02  0.22453707913E+02  0.49224065361E+01  0.40659145065E+02  0.00000000000E+00 0.  1.
         11    1    3    3    0    0  0.21493805749E+02 -0.73204383917E+01  0.24075992349E+01  0.22833506918E+02  0.51100000000E-03 0. -1.
        -11    1    3    3    0    0  0.12089525663E+02 -0.18044685290E+02 -0.22453127668E+01  0.21835950349E+02  0.51100000000E-03 0.  1.
        -12    1    3    3    0    0 -0.45785402900E-01  0.29114157687E+01 -0.50846930042E+01  0.58593976677E+01  0.00000000000E+00 0.  1.
</event>
<event>
 7    1  0.2835316E-011  0.5052885E+02  0.7816164E-02  0.1300439E+00
        -11   -1    0    0    0    0  0.00000000000E+00  0.00000000000E+00  0.45593999997E+02  0.45594000000E+02  0.51100000000E-03 0.  1.
         11   -1    0    0    0    0 -0.00000000000E+00 -0.00000000000E+00 -0.45593999997E+02  0.45594000000E+02  0.51100000000E-03 0. -1.
    9900012    2    1    2    0    0 -0.21800461087E+02 -0.33194779433E+02  0.87185274956E+01  0.50528853343E+02  0.29999980222E+02 0.  0.
        -12    1    1    2    0    0  0.21800461087E+02  0.33194779433E+02 -0.87185274956E+01  0.40659146657E+02  0.00000000000E+00 0.  1.
         11    1    3    3    0    0 -0.10320959308E+02 -0.54254763639E+01 -0.34448297811E+01  0.12158324198E+02  0.51100000000E-03 0. -1.
        -11    1    3    3    0    0  0.40656416419E+01 -0.82506235890E+01 -0.23643034435E+01  0.94969554386E+01  0.51100000000E-03 0.  1.
         12    1    3    3    0    0 -0.15545143420E+02 -0.19518679480E+02  0.14527660720E+02  0.28873573707E+02  0.00000000000E+00 0. -1.
</event>
<event>
 7    1  0.2835316E-011  0.5052886E+02  0.7816164E-02  0.1300439E+00
        -11   -1    0    0    0    0  0.00000000000E+00  0.00000000000E+00  0.45593999997E+02  0.45594000000E+02  0.51100000000E-03 0.  1.
         11   -1    0    0    0    0 -0.00000000000E+00 -0.00000000000E+00 -0.45593999997E+02  0.45594000000E+02  0.51100000000E-03 0. -1.
    9900012    2    1    2    0    0  0.12499057318E+02  0.18318001971E+02 -0.34079175297E+02  0.50528858113E+02  0.29999994721E+02 0.  0.
        -12    1    1    2    0    0 -0.12499057318E+02 -0.18318001971E+02  0.34079175297E+02  0.40659141887E+02  0.00000000000E+00 0.  1.
         11    1    3    3    0    0  0.64111466995E+01  0.10115197293E+02 -0.31094657559E+02  0.33321130642E+02  0.51100000000E-03 0. -1.
        -11    1    3    3    0    0  0.97898556821E+01  0.87389313309E+01 -0.30246428299E+01  0.13466946929E+02  0.51100000000E-03 0.  1.
        -12    1    3    3    0    0 -0.37019450640E+01 -0.53612665262E+00  0.40125091706E-01  0.37407805426E+01  0.00000000000E+00 0.  1.
</event>
<event>
 7    1  0.2835316E-011  0.5052888E+02  0.7816164E-02  0.1300439E+00
        -11   -1    0    0    0    0  0.00000000000E+00  0.00000000000E+00  0.45593999997E+02  0.45594000000E+02  0.51100000000E-03 0.  1.
         11   -1    0    0    0    0 -0.00000000000E+00 -0.00000000000E+00 -0.45593999997E+02  0.45594000000E+02  0.51100000000E-03 0. -1.
    9900012    2    1    2    0    0 -0.21473363265E+01 -0.29227173559E+02 -0.28183783392E+02  0.50528875885E+02  0.30000048740E+02 0.  0.
        -12    1    1    2    0    0  0.21473363265E+01  0.29227173559E+02  0.28183783392E+02  0.40659124115E+02  0.00000000000E+00 0.  1.
         11    1    3    3    0    0 -0.61592551152E+01 -0.20040131192E+02 -0.25484199260E+02  0.32999813544E+02  0.51100000000E-03 0. -1.
        -11    1    3    3    0    0  0.28935681176E+01 -0.12676847197E+02 -0.40570246340E+01  0.13621110103E+02  0.51100000000E-03 0.  1.
        -12    1    3    3    0    0  0.11183506712E+01  0.34898048298E+01  0.13574405025E+01  0.39079522376E+01  0.00000000000E+00 0.  1.
</event>
<event>
 7    1  0.2835316E-011  0.5052886E+02  0.7816164E-02  0.1300439E+00
        -11   -1    0    0    0    0  0.00000000000E+00  0.00000000000E+00  0.45593999997E+02  0.45594000000E+02  0.51100000000E-03 0.  1.
         11   -1    0    0    0    0 -0.00000000000E+00 -0.00000000000E+00 -0.45593999997E+02  0.45594000000E+02  0.51100000000E-03 0. -1.
    9900012    2    1    2    0    0 -0.29423913605E+02 -0.15132308134E+02  0.23630747336E+02  0.50528860057E+02  0.30000000628E+02 0.  0.
        -12    1    1    2    0    0  0.29423913605E+02  0.15132308134E+02 -0.23630747336E+02  0.40659139943E+02  0.00000000000E+00 0.  1.
         11    1    3    3    0    0 -0.16294238288E+02 -0.18128360905E+02  0.13314608040E+02  0.27774420930E+02  0.51100000000E-03 0. -1.
        -11    1    3    3    0    0 -0.16006799442E+02  0.10877295730E+01  0.57783021413E+01  0.17052552885E+02  0.51100000000E-03 0.  1.
        -12    1    3    3    0    0  0.28771241259E+01  0.19083231976E+01  0.45378371551E+01  0.57018862413E+01  0.00000000000E+00 0.  1.
</event>
<event>
 7    1  0.2835316E-011  0.5052887E+02  0.7816164E-02  0.1300439E+00
        -11   -1    0    0    0    0  0.00000000000E+00  0.00000000000E+00  0.45593999997E+02  0.45594000000E+02  0.51100000000E-03 0. -1.
         11   -1    0    0    0    0 -0.00000000000E+00 -0.00000000000E+00 -0.45593999997E+02  0.45594000000E+02  0.51100000000E-03 0.  1.
    9900012    2    1    2    0    0 -0.12784353605E+02 -0.36335664213E+02  0.13017084960E+02  0.50528871975E+02  0.30000036855E+02 0.  0.
        -12    1    1    2    0    0  0.12784353605E+02  0.36335664213E+02 -0.13017084960E+02  0.40659128025E+02  0.00000000000E+00 0.  1.
         11    1    3    3    0    0 -0.15785824516E+02 -0.34429637313E+02  0.76744021782E+01  0.38645680616E+02  0.51100000000E-03 0.  1.
        -11    1    3    3    0    0 -0.99624558873E+00 -0.27546600179E+01  0.69107130682E+01  0.75059051726E+01  0.51100000000E-03 0. -1.
        -12    1    3    3    0    0  0.39977164997E+01  0.84863311814E+00 -0.15680302867E+01  0.43772861868E+01  0.00000000000E+00 0.  1.
</event>
<event>
 7    1  0.2835316E-011  0.5052886E+02  0.7816164E-02  0.1300439E+00
        -11   -1    0    0    0    0  0.00000000000E+00  0.00000000000E+00  0.45593999997E+02  0.45594000000E+02  0.51100000000E-03 0.  1.
         11   -1    0    0    0    0 -0.00000000000E+00 -0.00000000000E+00 -0.45593999997E+02  0.45594000000E+02  0.51100000000E-03 0. -1.
    9900012    2    1    2    0    0  0.19879817492E+02 -0.95868119229E+00 -0.35454752484E+02  0.50528859738E+02  0.29999999659E+02 0.  0.
        -12    1    1    2    0    0 -0.19879817492E+02  0.95868119229E+00  0.35454752484E+02  0.40659140262E+02  0.00000000000E+00 0.  1.
         11    1    3    3    0    0  0.62436990055E+01  0.41097276810E+01 -0.11606521682E+02  0.13805252070E+02  0.51100000000E-03 0. -1.
        -11    1    3    3    0    0  0.81547073960E+01  0.24541899632E+01  0.24215598676E+01  0.88536011625E+01  0.51100000000E-03 0.  1.
        -12    1    3    3    0    0  0.54814110906E+01 -0.75225988365E+01 -0.26269790670E+02  0.27870006506E+02  0.00000000000E+00 0.  1.
</event>
<event>
 7    1  0.2835316E-011  0.5052887E+02  0.7816164E-02  0.1300439E+00
        -11   -1    0    0    0    0  0.00000000000E+00  0.00000000000E+00  0.45593999997E+02  0.45594000000E+02  0.51100000000E-03 0.  1.
         11   -1    0    0    0    0 -0.00000000000E+00 -0.00000000000E+00 -0.45593999997E+02  0.45594000000E+02  0.51100000000E-03 0. -1.
    9900012    2    1    2    0    0  0.18243354758E+01 -0.20562578118E+02 -0.35028801373E+02  0.50528871327E+02  0.30000034887E+02 0.  0.
        -12    1    1    2    0    0 -0.18243354758E+01  0.20562578118E+02  0.35028801373E+02  0.40659128673E+02  0.00000000000E+00 0.  1.
         11    1    3    3    0    0  0.40127740417E+01 -0.11531080167E+01 -0.48696365507E+01  0.64144659953E+01  0.51100000000E-03 0.  1.
        -11    1    3    3    0    0  0.80656581894E+01 -0.94484889489E+01 -0.26636567809E+02  0.29391079094E+02  0.51100000000E-03 0. -1.
        -12    1    3    3    0    0 -0.10254096755E+02 -0.99609811520E+01 -0.35225970140E+01  0.14723326238E+02  0.00000000000E+00 0.  1.
</event>
<event>
 7    1  0.2835316E-011  0.5052887E+02  0.7816164E-02  0.1300439E+00
        -11   -1    0    0    0    0  0.00000000000E+00  0.00000000000E+00  0.45593999997E+02  0.45594000000E+02  0.51100000000E-03 0. -1.
         11   -1    0    0    0    0 -0.00000000000E+00 -0.00000000000E+00 -0.45593999997E+02  0.45594000000E+02  0.51100000000E-03 0.  1.
    9900012    2    1    2    0    0  0.28503996384E+02  0.88084880989E+01 -0.27624224068E+02  0.50528867843E+02  0.30000024294E+02 0.  0.
        -12    1    1    2    0    0 -0.28503996384E+02 -0.88084880989E+01  0.27624224068E+02  0.40659132157E+02  0.00000000000E+00 0.  1.
         11    1    3    3    0    0  0.76849834323E+01  0.98616294684E+00 -0.74784731346E+01  0.10768428316E+02  0.51100000000E-03 0. -1.
        -11    1    3    3    0    0 -0.83731368242E+00 -0.46746464497E+01 -0.12872577214E+02  0.13720665364E+02  0.51100000000E-03 0.  1.
        -12    1    3    3    0    0  0.21656326634E+02  0.12496971602E+02 -0.72731737193E+01  0.26039774163E+02  0.00000000000E+00 0.  1.
</event>
<event>
 7    1  0.2835316E-011  0.5052888E+02  0.7816164E-02  0.1300439E+00
        -11   -1    0    0    0    0  0.00000000000E+00  0.00000000000E+00  0.45593999997E+02  0.45594000000E+02  0.51100000000E-03 0. -1.
         11   -1    0    0    0    0 -0.00000000000E+00 -0.00000000000E+00 -0.45593999997E+02  0.45594000000E+02  0.51100000000E-03 0.  1.
    9900012    2    1    2    0    0 -0.37330054492E+02 -0.42504380061E+01  0.15542358950E+02  0.50528879088E+02  0.30000058477E+02 0.  0.
        -12    1    1    2    0    0  0.37330054492E+02  0.42504380061E+01 -0.15542358950E+02  0.40659120912E+02  0.00000000000E+00 0.  1.
         11    1    3    3    0    0 -0.15085485591E+02 -0.25505927435E+01  0.55780635709E+01  0.16284722666E+02  0.51100000000E-03 0. -1.
        -11    1    3    3    0    0 -0.82761254352E+01 -0.64176312982E+01  0.15320304450E+02  0.18557800851E+02  0.51100000000E-03 0.  1.
        -12    1    3    3    0    0 -0.13968443466E+02  0.47177860356E+01 -0.53560090718E+01  0.15686355572E+02  0.00000000000E+00 0.  1.
</event>
<event>
 7    1  0.2835316E-011  0.5052886E+02  0.7816164E-02  0.1300439E+00
        -11   -1    0    0    0    0  0.00000000000E+00  0.00000000000E+00  0.45593999997E+02  0.45594000000E+02  0.51100000000E-03 0.  1.
         11   -1    0    0    0    0 -0.00000000000E+00 -0.00000000000E+00 -0.45593999997E+02  0.45594000000E+02  0.51100000000E-03 0. -1.
    9900012    2    1    2    0    0  0.90662812432E+00  0.20859653643E+02 -0.34888657875E+02  0.50528861138E+02  0.30000003914E+02 0.  0.
        -12    1    1    2    0    0 -0.90662812432E+00 -0.20859653643E+02  0.34888657875E+02  0.40659138862E+02  0.00000000000E+00 0.  1.
         11    1    3    3    0    0 -0.54993767076E+01  0.16608645388E+02 -0.38369536000E+01  0.17911238343E+02  0.51100000000E-03 0. -1.
        -11    1    3    3    0    0  0.37267794493E+00 -0.15352899983E+01 -0.38892022679E+01  0.41978445387E+01  0.51100000000E-03 0.  1.
        -12    1    3    3    0    0  0.60333268870E+01  0.57862982533E+01 -0.27162502008E+02  0.28419778256E+02  0.00000000000E+00 0.  1.
</event>
<event>
 7    1  0.2835316E-011  0.5052886E+02  0.7816164E-02  0.1300439E+00
        -11   -1    0    0    0    0  0.00000000000E+00  0.00000000000E+00  0.45593999997E+02  0.45594000000E+02  0.51100000000E-03 0.  1.
         11   -1    0    0    0    0 -0.00000000000E+00 -0.00000000000E+00 -0.45593999997E+02  0.45594000000E+02  0.51100000000E-03 0. -1.
    9900012    2    1    2    0    0 -0.21701448050E+02  0.19798192679E+02 -0.28111290722E+02  0.50528856540E+02  0.29999989939E+02 0.  0.
        -12    1    1    2    0    0  0.21701448050E+02 -0.19798192679E+02  0.28111290722E+02  0.40659143460E+02  0.00000000000E+00 0.  1.
         11    1    3    3    0    0 -0.53647472924E+01  0.14450979838E+02  0.91878803653E+00  0.15442004518E+02  0.51100000000E-03 0.  1.
        -11    1    3    3    0    0 -0.21514825395E+01  0.44987556251E+01 -0.11397608222E+02  0.12440785857E+02  0.51100000000E-03 0. -1.
        -12    1    3    3    0    0 -0.14185218218E+02  0.84845721549E+00 -0.17632470537E+02  0.22646066166E+02  0.00000000000E+00 0.  1.
</event>
<event>
 7    1  0.2835316E-011  0.5052884E+02  0.7816164E-02  0.1300439E+00
        -11   -1    0    0    0    0  0.00000000000E+00  0.00000000000E+00  0.45593999997E+02  0.45594000000E+02  0.51100000000E-03 0. -1.
         11   -1    0    0    0    0 -0.00000000000E+00 -0.00000000000E+00 -0.45593999997E+02  0.45594000000E+02  0.51100000000E-03 0.  1.
    9900012    2    1    2    0    0  0.20982864944E+02  0.25236214217E+02  0.24000424457E+02  0.50528837399E+02  0.29999931759E+02 0.  0.
        -12    1    1    2    0    0 -0.20982864944E+02 -0.25236214217E+02 -0.24000424457E+02  0.40659162601E+02  0.00000000000E+00 0.  1.
         11    1    3    3    0    0  0.69960170042E+00  0.10320467396E+01 -0.47988826346E+01  0.49582091337E+01  0.51100000000E-03 0. -1.
        -11    1    3    3    0    0  0.43941057584E+01 -0.84871801174E+00  0.85548847942E+01  0.96547678265E+01  0.51100000000E-03 0.  1.
         12    1    3    3    0    0  0.15889157485E+02  0.25052885490E+02  0.20244422297E+02  0.35915860439E+02  0.00000000000E+00 0. -1.
</event>
<event>
 7    1  0.2835316E-011  0.5052886E+02  0.7816164E-02  0.1300439E+00
        -11   -1    0    0    0    0  0.00000000000E+00  0.00000000000E+00  0.45593999997E+02  0.45594000000E+02  0.51100000000E-03 0.  1.
         11   -1    0    0    0    0 -0.00000000000E+00 -0.00000000000E+00 -0.45593999997E+02  0.45594000000E+02  0.51100000000E-03 0. -1.
    9900012    2    1    2    0    0  0.22916050505E+02 -0.11165373358E+02 -0.31675777874E+02  0.50528857893E+02  0.29999994050E+02 0.  0.
        -12    1    1    2    0    0 -0.22916050505E+02  0.11165373358E+02  0.31675777874E+02  0.40659142107E+02  0.00000000000E+00 0.  1.
         11    1    3    3    0    0  0.21453795217E+01 -0.22323618535E+01  0.10183907092E+01  0.32593270218E+01  0.51100000000E-03 0.  1.
        -11    1    3    3    0    0  0.24874722629E+02 -0.13240065088E+02 -0.26527944224E+02  0.38701201201E+02  0.51100000000E-03 0. -1.
         12    1    3    3    0    0 -0.41040516455E+01  0.43070535832E+01 -0.61662243596E+01  0.85683296698E+01  0.00000000000E+00 0. -1.
</event>
<event>
 7    1  0.2835316E-011  0.5052886E+02  0.7816164E-02  0.1300439E+00
        -11   -1    0    0    0    0  0.00000000000E+00  0.00000000000E+00  0.45593999997E+02  0.45594000000E+02  0.51100000000E-03 0.  1.
         11   -1    0    0    0    0 -0.00000000000E+00 -0.00000000000E+00 -0.45593999997E+02  0.45594000000E+02  0.51100000000E-03 0. -1.
    9900012    2    1    2    0    0  0.16405042493E+02  0.37020650701E+02 -0.36758254327E+01  0.50528859697E+02  0.29999999536E+02 0.  0.
        -12    1    1    2    0    0 -0.16405042493E+02 -0.37020650701E+02  0.36758254327E+01  0.40659140303E+02  0.00000000000E+00 0.  1.
         11    1    3    3    0    0 -0.35026174891E+01  0.62161324904E+01  0.11392961473E+01  0.72254154473E+01  0.51100000000E-03 0.  1.
        -11    1    3    3    0    0  0.83324610211E+01  0.29489550247E+02  0.13822593659E+00  0.30644454426E+02  0.51100000000E-03 0. -1.
         12    1    3    3    0    0  0.11575198961E+02  0.13149679641E+01 -0.49533475166E+01  0.12658989824E+02  0.00000000000E+00 0. -1.
</event>
<event>
 7    1  0.2835316E-011  0.5052888E+02  0.7816164E-02  0.1300439E+00
        -11   -1    0    0    0    0  0.00000000000E+00  0.00000000000E+00  0.45593999997E+02  0.45594000000E+02  0.51100000000E-03 0.  1.
         11   -1    0    0    0    0 -0.00000000000E+00 -0.00000000000E+00 -0.45593999997E+02  0.45594000000E+02  0.51100000000E-03 0. -1.
    9900012    2    1    2    0    0 -0.50057910047E+01 -0.38666768884E+02  0.11531998568E+02  0.50528881091E+02  0.30000064563E+02 0.  0.
        -12    1    1    2    0    0  0.50057910047E+01  0.38666768884E+02 -0.11531998568E+02  0.40659118909E+02  0.00000000000E+00 0.  1.
         11    1    3    3    0    0 -0.13145383507E+02 -0.31280035232E+02  0.60970024755E+01  0.34473397731E+02  0.51100000000E-03 0. -1.
        -11    1    3    3    0    0 -0.18317423119E+01  0.70744070370E+00 -0.30671920076E+00  0.19874177154E+01  0.51100000000E-03 0.  1.
        -12    1    3    3    0    0  0.99713348141E+01 -0.80941743557E+01  0.57417152928E+01  0.14068065645E+02  0.00000000000E+00 0.  1.
</event>
<event>
 7    1  0.2835316E-011  0.5052886E+02  0.7816164E-02  0.1300439E+00
        -11   -1    0    0    0    0  0.00000000000E+00  0.00000000000E+00  0.45593999997E+02  0.45594000000E+02  0.51100000000E-03 0.  1.
         11   -1    0    0    0    0 -0.00000000000E+00 -0.00000000000E+00 -0.45593999997E+02  0.45594000000E+02  0.51100000000E-03 0. -1.
    9900012    2    1    2    0    0 -0.21117830846E+02 -0.31295004767E+02 -0.15093882064E+02  0.50528863527E+02  0.30000011175E+02 0.  0.
        -12    1    1    2    0    0  0.21117830846E+02  0.31295004767E+02  0.15093882064E+02  0.40659136473E+02  0.00000000000E+00 0.  1.
         11    1    3    3    0    0 -0.11231339948E+02 -0.10515105033E+02 -0.61785320454E+01  0.16579646841E+02  0.51100000000E-03 0. -1.
        -11    1    3    3    0    0 -0.52837110644E+01 -0.12063834635E+02 -0.16785762654E+02  0.21335780671E+02  0.51100000000E-03 0.  1.
        -12    1    3    3    0    0 -0.46027798334E+01 -0.87160650992E+01  0.78704126360E+01  0.12613436014E+02  0.00000000000E+00 0.  1.
</event>
<event>
 7    1  0.2835316E-011  0.5052886E+02  0.7816164E-02  0.1300439E+00
        -11   -1    0    0    0    0  0.00000000000E+00  0.00000000000E+00  0.45593999997E+02  0.45594000000E+02  0.51100000000E-03 0. -1.
         11   -1    0    0    0    0 -0.00000000000E+00 -0.00000000000E+00 -0.45593999997E+02  0.45594000000E+02  0.51100000000E-03 0.  1.
    9900012    2    1    2    0    0  0.86582490145E+01  0.25147736503E+02  0.30753732985E+02  0.50528855644E+02  0.29999987215E+02 0.  0.
        -12    1    1    2    0    0 -0.86582490145E+01 -0.25147736503E+02 -0.30753732985E+02  0.40659144356E+02  0.00000000000E+00 0.  1.
         11    1    3    3    0    0  0.10804531577E+02  0.59618213651E+01  0.15461748518E+02  0.19782489330E+02  0.51100000000E-03 0. -1.
        -11    1    3    3    0    0  0.53151549308E+01  0.51328843442E+01 -0.15792299195E+01  0.75558812213E+01  0.51100000000E-03 0.  1.
         12    1    3    3    0    0 -0.74614374932E+01  0.14053030794E+02  0.16871214386E+02  0.23190485093E+02  0.00000000000E+00 0. -1.
</event>
<event>
 7    1  0.2835316E-011  0.5052886E+02  0.7816164E-02  0.1300439E+00
        -11   -1    0    0    0    0  0.00000000000E+00  0.00000000000E+00  0.45593999997E+02  0.45594000000E+02  0.51100000000E-03 0. -1.
         11   -1    0    0    0    0 -0.00000000000E+00 -0.00000000000E+00 -0.45593999997E+02  0.45594000000E+02  0.51100000000E-03 0.  1.
    9900012    2    1    2    0    0  0.38339439339E+02  0.24482344048E+01  0.13313865830E+02  0.50528862233E+02  0.30000007245E+02 0.  0.
        -12    1    1    2    0    0 -0.38339439339E+02 -0.24482344048E+01 -0.13313865830E+02  0.40659137767E+02  0.00000000000E+00 0.  1.
         11    1    3    3    0    0  0.21957866551E+02  0.33242566626E+01  0.14123635269E+01  0.22252940409E+02  0.51100000000E-03 0. -1.
        -11    1    3    3    0    0  0.13650243040E+02  0.80841039157E+01  0.98913960668E+01  0.18695496452E+02  0.51100000000E-03 0.  1.
         12    1    3    3    0    0  0.27313297479E+01 -0.89601261735E+01  0.20101062368E+01  0.95804253726E+01  0.00000000000E+00 0. -1.
</event>
<event>
 7    1  0.2835316E-011  0.5052886E+02  0.7816164E-02  0.1300439E+00
        -11   -1    0    0    0    0  0.00000000000E+00  0.00000000000E+00  0.45593999997E+02  0.45594000000E+02  0.51100000000E-03 0.  1.
         11   -1    0    0    0    0 -0.00000000000E+00 -0.00000000000E+00 -0.45593999997E+02  0.45594000000E+02  0.51100000000E-03 0. -1.
    9900012    2    1    2    0    0 -0.26194787784E+02  0.83230875444E+01 -0.29962055167E+02  0.50528862734E+02  0.30000008768E+02 0.  0.
        -12    1    1    2    0    0  0.26194787784E+02 -0.83230875444E+01  0.29962055167E+02  0.40659137266E+02  0.00000000000E+00 0.  1.
         11    1    3    3    0    0 -0.13846709478E+02  0.13888729198E+00 -0.22819106079E+02  0.26691988602E+02  0.51100000000E-03 0. -1.
        -11    1    3    3    0    0  0.42007462737E+01  0.86372154464E+00 -0.31090975931E+01  0.52970531683E+01  0.51100000000E-03 0.  1.
        -12    1    3    3    0    0 -0.16548824580E+02  0.73204787078E+01 -0.40338514952E+01  0.18539820964E+02  0.00000000000E+00 0.  1.
</event>
<event>
 7    1  0.2835316E-011  0.5052886E+02  0.7816164E-02  0.1300439E+00
        -11   -1    0    0    0    0  0.00000000000E+00  0.00000000000E+00  0.45593999997E+02  0.45594000000E+02  0.51100000000E-03 0. -1.
         11   -1    0    0    0    0 -0.00000000000E+00 -0.00000000000E+00 -0.45593999997E+02  0.45594000000E+02  0.51100000000E-03 0.  1.
    9900012    2    1    2    0    0 -0.17161619137E+02  0.36580182718E+02 -0.45315266425E+01  0.50528859910E+02  0.30000000184E+02 0.  0.
        -12    1    1    2    0    0  0.17161619137E+02 -0.36580182718E+02  0.45315266425E+01  0.40659140090E+02  0.00000000000E+00 0.  1.
         11    1    3    3    0    0  0.21833305158E+01  0.10903250454E+02  0.46451392959E+01  0.12050938634E+02  0.51100000000E-03 0. -1.
        -11    1    3    3    0    0 -0.26921707992E+01  0.18101128340E+02 -0.84803445536E+01  0.20169652322E+02  0.51100000000E-03 0.  1.
         12    1    3    3    0    0 -0.16652778853E+02  0.75758039240E+01 -0.69632138476E+00  0.18308268954E+02  0.00000000000E+00 0. -1.
</event>
<event>
 7    1  0.2835316E-011  0.5052887E+02  0.7816164E-02  0.1300439E+00
        -11   -1    0    0    0    0  0.00000000000E+00  0.00000000000E+00  0.45593999997E+02  0.45594000000E+02  0.51100000000E-03 0.  1.
         11   -1    0    0    0    0 -0.00000000000E+00 -0.00000000000E+00 -0.45593999997E+02  0.45594000000E+02  0.51100000000E-03 0. -1.
    9900012    2    1    2    0    0  0.40087137902E+02  0.67208301286E+01 -0.10082764114E+01  0.50528870594E+02  0.30000032656E+02 0.  0.
        -12    1    1    2    0    0 -0.40087137902E+02 -0.67208301286E+01  0.10082764114E+01  0.40659129406E+02  0.00000000000E+00 0.  1.
         11    1    3    3    0    0 -0.30991922783E+01  0.14254028906E+01 -0.12559757459E+00  0.34135818710E+01  0.51100000000E-03 0. -1.
        -11    1    3    3    0    0  0.10782619357E+02  0.66545910799E+01 -0.64351022208E+01  0.14211228078E+02  0.51100000000E-03 0.  1.
         12    1    3    3    0    0  0.32403710823E+02 -0.13591638419E+01  0.55524233840E+01  0.32904060644E+02  0.00000000000E+00 0. -1.
</event>
<event>
 7    1  0.2835316E-011  0.5052885E+02  0.7816164E-02  0.1300439E+00
        -11   -1    0    0    0    0  0.00000000000E+00  0.00000000000E+00  0.45593999997E+02  0.45594000000E+02  0.51100000000E-03 0.  1.
         11   -1    0    0    0    0 -0.00000000000E+00 -0.00000000000E+00 -0.45593999997E+02  0.45594000000E+02  0.51100000000E-03 0. -1.
    9900012    2    1    2    0    0 -0.24590355848E+02 -0.20444384155E+01 -0.32315643576E+02  0.50528854056E+02  0.29999982389E+02 0.  0.
        -12    1    1    2    0    0  0.24590355848E+02  0.20444384155E+01  0.32315643576E+02  0.40659145944E+02  0.00000000000E+00 0.  1.
         11    1    3    3    0    0 -0.10907170003E+02  0.19505715053E+01 -0.14205317034E+02  0.18015607649E+02  0.51100000000E-03 0. -1.
        -11    1    3    3    0    0 -0.13550820963E+02 -0.16997809475E+01 -0.23204036023E+02  0.26924733834E+02  0.51100000000E-03 0.  1.
        -12    1    3    3    0    0 -0.13236488192E+00 -0.22952289733E+01  0.50937094808E+01  0.55885125728E+01  0.00000000000E+00 0.  1.
</event>
<event>
 7    1  0.2835316E-011  0.5052886E+02  0.7816164E-02  0.1300439E+00
        -11   -1    0    0    0    0  0.00000000000E+00  0.00000000000E+00  0.45593999997E+02  0.45594000000E+02  0.51100000000E-03 0.  1.
         11   -1    0    0    0    0 -0.00000000000E+00 -0.00000000000E+00 -0.45593999997E+02  0.45594000000E+02  0.51100000000E-03 0. -1.
    9900012    2    1    2    0    0  0.11896761365E+01  0.16162379943E+02 -0.37289782518E+02  0.50528859147E+02  0.29999997862E+02 0.  0.
        -12    1    1    2    0    0 -0.11896761365E+01 -0.16162379943E+02  0.37289782518E+02  0.40659140853E+02  0.00000000000E+00 0.  1.
         11    1    3    3    0    0  0.61024045329E+01  0.88599007187E+01 -0.25246143896E+02  0.27442757947E+02  0.51100000000E-03 0. -1.
        -11    1    3    3    0    0 -0.10127610157E+02  0.72933837114E+01 -0.12728668352E+02  0.17826411073E+02  0.51100000000E-03 0.  1.
        -12    1    3    3    0    0  0.52148817603E+01  0.90955129182E-02  0.68502973092E+00  0.52596901273E+01  0.00000000000E+00 0.  1.
</event>
<event>
 7    1  0.2835316E-011  0.5052886E+02  0.7816164E-02  0.1300439E+00
        -11   -1    0    0    0    0  0.00000000000E+00  0.00000000000E+00  0.45593999997E+02  0.45594000000E+02  0.51100000000E-03 0. -1.
         11   -1    0    0    0    0 -0.00000000000E+00 -0.00000000000E+00 -0.45593999997E+02  0.45594000000E+02  0.51100000000E-03 0.  1.
    9900012    2    1    2    0    0  0.15632495293E+02  0.29258049931E+02  0.23510796928E+02  0.50528856293E+02  0.29999989188E+02 0.  0.
        -12    1    1    2    0    0 -0.15632495293E+02 -0.29258049931E+02 -0.23510796928E+02  0.40659143707E+02  0.00000000000E+00 0.  1.
         11    1    3    3    0    0  0.92991755924E+01  0.12024874358E+02  0.18306572871E+02  0.23795017978E+02  0.51100000000E-03 0. -1.
        -11    1    3    3    0    0  0.56175990468E+01  0.20247104214E+02  0.80752166032E+01  0.22510259251E+02  0.51100000000E-03 0.  1.
        -12    1    3    3    0    0  0.71572065337E+00 -0.30139286413E+01 -0.28709925465E+01  0.42235790641E+01  0.00000000000E+00 0.  1.
</event>
<event>
 7    1  0.2835316E-011  0.5052887E+02  0.7816164E-02  0.1300439E+00
        -11   -1    0    0    0    0  0.00000000000E+00  0.00000000000E+00  0.45593999997E+02  0.45594000000E+02  0.51100000000E-03 0.  1.
         11   -1    0    0    0    0 -0.00000000000E+00 -0.00000000000E+00 -0.45593999997E+02  0.45594000000E+02  0.51100000000E-03 0. -1.
    9900012    2    1    2    0    0  0.30745956123E+02  0.41800621241E+01 -0.26275053626E+02  0.50528865967E+02  0.30000018593E+02 0.  0.
        -12    1    1    2    0    0 -0.30745956123E+02 -0.41800621241E+01  0.26275053626E+02  0.40659134033E+02  0.00000000000E+00 0.  1.
         11    1    3    3    0    0  0.73542285322E+01  0.31328401737E+01 -0.33260673239E+01  0.86580649664E+01  0.51100000000E-03 0. -1.
        -11    1    3    3    0    0  0.13592978081E+02 -0.10715903623E+02 -0.44759418872E+01  0.17878302481E+02  0.51100000000E-03 0.  1.
         12    1    3    3    0    0  0.97987495097E+01  0.11763125574E+02 -0.18473044415E+02  0.23992498519E+02  0.00000000000E+00 0. -1.
</event>
<event>
 7    1  0.2835316E-011  0.5052886E+02  0.7816164E-02  0.1300439E+00
        -11   -1    0    0    0    0  0.00000000000E+00  0.00000000000E+00  0.45593999997E+02  0.45594000000E+02  0.51100000000E-03 0. -1.
         11   -1    0    0    0    0 -0.00000000000E+00 -0.00000000000E+00 -0.45593999997E+02  0.45594000000E+02  0.51100000000E-03 0.  1.
    9900012    2    1    2    0    0 -0.38410249632E+02  0.69827280189E+01  0.11360444818E+02  0.50528862357E+02  0.30000007621E+02 0.  0.
        -12    1    1    2    0    0  0.38410249632E+02 -0.69827280189E+01 -0.11360444818E+02  0.40659137643E+02  0.00000000000E+00 0.  1.
         11    1    3    3    0    0 -0.65650178428E+01  0.61896403912E+01  0.97143599643E+01  0.13258201131E+02  0.51100000000E-03 0. -1.
        -11    1    3    3    0    0 -0.36438468891E+00 -0.50002408291E+01 -0.11357468355E+01  0.51405355447E+01  0.51100000000E-03 0.  1.
         12    1    3    3    0    0 -0.31480847101E+02  0.57933284568E+01  0.27818316892E+01  0.32130125682E+02  0.00000000000E+00 0. -1.
</event>
<event>
 7    1  0.2835316E-011  0.5052886E+02  0.7816164E-02  0.1300439E+00
        -11   -1    0    0    0    0  0.00000000000E+00  0.00000000000E+00  0.45593999997E+02  0.45594000000E+02  0.51100000000E-03 0.  1.
         11   -1    0    0    0    0 -0.00000000000E+00 -0.00000000000E+00 -0.45593999997E+02  0.45594000000E+02  0.51100000000E-03 0. -1.
    9900012    2    1    2    0    0  0.31056873831E+02  0.20441971052E+02 -0.16454855826E+02  0.50528857450E+02  0.29999992704E+02 0.  0.
        -12    1    1    2    0    0 -0.31056873831E+02 -0.20441971052E+02  0.16454855826E+02  0.40659142550E+02  0.00000000000E+00 0.  1.
         11    1    3    3    0    0  0.10603812657E+02  0.67410682148E+01 -0.19763039339E+02  0.23419234995E+02  0.51100000000E-03 0. -1.
        -11    1    3    3    0    0  0.31258891810E+01  0.57808666482E+01  0.45884465975E+01  0.80152008594E+01  0.51100000000E-03 0.  1.
        -12    1    3    3    0    0  0.17327171993E+02  0.79200361890E+01 -0.12802630839E+01  0.19094421596E+02  0.00000000000E+00 0.  1.
</event>
<event>
 7    1  0.2835316E-011  0.5052886E+02  0.7816164E-02  0.1300439E+00
        -11   -1    0    0    0    0  0.00000000000E+00  0.00000000000E+00  0.45593999997E+02  0.45594000000E+02  0.51100000000E-03 0.  1.
         11   -1    0    0    0    0 -0.00000000000E+00 -0.00000000000E+00 -0.45593999997E+02  0.45594000000E+02  0.51100000000E-03 0. -1.
    9900012    2    1    2    0    0  0.57592970057E+01  0.25826735872E+02 -0.30870303953E+02  0.50528862602E+02  0.30000008366E+02 0.  0.
        -12    1    1    2    0    0 -0.57592970057E+01 -0.25826735872E+02  0.30870303953E+02  0.40659137398E+02  0.00000000000E+00 0.  1.
         11    1    3    3    0    0  0.52365939562E+00  0.19782972133E+02 -0.31986865126E+02  0.37613823874E+02  0.51100000000E-03 0. -1.
        -11    1    3    3    0    0  0.55200198687E+01  0.59444561781E+01 -0.31025287957E+01  0.86852094847E+01  0.51100000000E-03 0.  1.
        -12    1    3    3    0    0 -0.28438225862E+00  0.99307560611E-01  0.42190899690E+01  0.42298292433E+01  0.00000000000E+00 0.  1.
</event>
<event>
 7    1  0.2835316E-011  0.5052887E+02  0.7816164E-02  0.1300439E+00
        -11   -1    0    0    0    0  0.00000000000E+00  0.00000000000E+00  0.45593999997E+02  0.45594000000E+02  0.51100000000E-03 0.  1.
         11   -1    0    0    0    0 -0.00000000000E+00 -0.00000000000E+00 -0.45593999997E+02  0.45594000000E+02  0.51100000000E-03 0. -1.
    9900012    2    1    2    0    0 -0.95799901407E+01  0.37825924930E+02 -0.11427530146E+02  0.50528865071E+02  0.30000015870E+02 0.  0.
        -12    1    1    2    0    0  0.95799901407E+01 -0.37825924930E+02  0.11427530146E+02  0.40659134929E+02  0.00000000000E+00 0.  1.
         11    1    3    3    0    0  0.13271011596E+01  0.13613044173E+02  0.18033640210E+01  0.13795951985E+02  0.51100000000E-03 0. -1.
        -11    1    3    3    0    0 -0.86313102278E+01  0.74570748830E+00  0.16957430090E+01  0.88278616052E+01  0.51100000000E-03 0.  1.
        -12    1    3    3    0    0 -0.22757810725E+01  0.23467173270E+02 -0.14926637176E+02  0.27905051480E+02  0.00000000000E+00 0.  1.
</event>
<event>
 7    1  0.2835316E-011  0.5052887E+02  0.7816164E-02  0.1300439E+00
        -11   -1    0    0    0    0  0.00000000000E+00  0.00000000000E+00  0.45593999997E+02  0.45594000000E+02  0.51100000000E-03 0.  1.
         11   -1    0    0    0    0 -0.00000000000E+00 -0.00000000000E+00 -0.45593999997E+02  0.45594000000E+02  0.51100000000E-03 0. -1.
    9900012    2    1    2    0    0  0.33615441685E+02 -0.12435387779E+02 -0.19197094876E+02  0.50528865226E+02  0.30000016341E+02 0.  0.
        -12    1    1    2    0    0 -0.33615441685E+02  0.12435387779E+02  0.19197094876E+02  0.40659134774E+02  0.00000000000E+00 0.  1.
         11    1    3    3    0    0  0.61200185166E+01 -0.62160008162E+00 -0.97933229126E+01  0.11565041601E+02  0.51100000000E-03 0. -1.
        -11    1    3    3    0    0 -0.40965988895E+01 -0.43116862447E+00 -0.10704420778E+00  0.41206173771E+01  0.51100000000E-03 0.  1.
        -12    1    3    3    0    0  0.31592022058E+02 -0.11382619073E+02 -0.92967277556E+01  0.34843206248E+02  0.00000000000E+00 0.  1.
</event>
<event>
 7    1  0.2835316E-011  0.5052887E+02  0.7816164E-02  0.1300439E+00
        -11   -1    0    0    0    0  0.00000000000E+00  0.00000000000E+00  0.45593999997E+02  0.45594000000E+02  0.51100000000E-03 0.  1.
         11   -1    0    0    0    0 -0.00000000000E+00 -0.00000000000E+00 -0.45593999997E+02  0.45594000000E+02  0.51100000000E-03 0. -1.
    9900012    2    1    2    0    0 -0.53640499454E+01 -0.23362953175E+02 -0.32841507130E+02  0.50528865683E+02  0.30000017730E+02 0.  0.
        -12    1    1    2    0    0  0.53640499454E+01  0.23362953175E+02  0.32841507130E+02  0.40659134317E+02  0.00000000000E+00 0.  1.
         11    1    3    3    0    0  0.22119099079E+00  0.12681428250E+01 -0.12358983260E+01  0.17845326033E+01  0.51100000000E-03 0. -1.
        -11    1    3    3    0    0 -0.21815066457E+01 -0.26341981120E+02 -0.12457021847E+02  0.29220477993E+02  0.51100000000E-03 0.  1.
        -12    1    3    3    0    0 -0.34037342905E+01  0.17108851205E+01 -0.19148586957E+02  0.19523855087E+02  0.00000000000E+00 0.  1.
</event>
<event>
 7    1  0.2835316E-011  0.5052887E+02  0.7816164E-02  0.1300439E+00
        -11   -1    0    0    0    0  0.00000000000E+00  0.00000000000E+00  0.45593999997E+02  0.45594000000E+02  0.51100000000E-03 0.  1.
         11   -1    0    0    0    0 -0.00000000000E+00 -0.00000000000E+00 -0.45593999997E+02  0.45594000000E+02  0.51100000000E-03 0. -1.
    9900012    2    1    2    0    0 -0.13644954771E+02  0.35161078261E+02  0.15188117433E+02  0.50528866631E+02  0.30000020611E+02 0.  0.
        -12    1    1    2    0    0  0.13644954771E+02 -0.35161078261E+02 -0.15188117433E+02  0.40659133369E+02  0.00000000000E+00 0.  1.
         11    1    3    3    0    0 -0.18577556691E+01 -0.23894916128E+01  0.56212370737E+00  0.30784589679E+01  0.51100000000E-03 0. -1.
        -11    1    3    3    0    0 -0.77620801125E+01  0.20032810668E+02  0.19298269804E+02  0.28878826302E+02  0.51100000000E-03 0.  1.
         12    1    3    3    0    0 -0.40251189896E+01  0.17517759206E+02 -0.46722760779E+01  0.18571581360E+02  0.00000000000E+00 0. -1.
</event>
<event>
 7    1  0.2835316E-011  0.5052885E+02  0.7816164E-02  0.1300439E+00
        -11   -1    0    0    0    0  0.00000000000E+00  0.00000000000E+00  0.45593999997E+02  0.45594000000E+02  0.51100000000E-03 0. -1.
         11   -1    0    0    0    0 -0.00000000000E+00 -0.00000000000E+00 -0.45593999997E+02  0.45594000000E+02  0.51100000000E-03 0.  1.
    9900012    2    1    2    0    0  0.24212777280E+02  0.26823466843E+01  0.32553236487E+02  0.50528846379E+02  0.29999959055E+02 0.  0.
        -12    1    1    2    0    0 -0.24212777280E+02 -0.26823466843E+01 -0.32553236487E+02  0.40659153621E+02  0.00000000000E+00 0.  1.
         11    1    3    3    0    0  0.92395121854E+01 -0.11370086679E+01  0.56540550638E+01  0.10891726817E+02  0.51100000000E-03 0. -1.
        -11    1    3    3    0    0  0.15086900222E+02  0.23945201196E+01  0.31397943461E+02  0.34916745821E+02  0.51100000000E-03 0.  1.
        -12    1    3    3    0    0 -0.11363512743E+00  0.14248352326E+01 -0.44987620375E+01  0.47203737407E+01  0.00000000000E+00 0.  1.
</event>
<event>
 7    1  0.2835316E-011  0.5052886E+02  0.7816164E-02  0.1300439E+00
        -11   -1    0    0    0    0  0.00000000000E+00  0.00000000000E+00  0.45593999997E+02  0.45594000000E+02  0.51100000000E-03 0.  1.
         11   -1    0    0    0    0 -0.00000000000E+00 -0.00000000000E+00 -0.45593999997E+02  0.45594000000E+02  0.51100000000E-03 0. -1.
    9900012    2    1    2    0    0  0.15322338806E+02  0.15403183825E+02 -0.34367623810E+02  0.50528859518E+02  0.29999998990E+02 0.  0.
        -12    1    1    2    0    0 -0.15322338806E+02 -0.15403183825E+02  0.34367623810E+02  0.40659140482E+02  0.00000000000E+00 0.  1.
         11    1    3    3    0    0  0.14520653622E+02  0.66456107633E+00 -0.86770437128E+01  0.16928736246E+02  0.51100000000E-03 0. -1.
        -11    1    3    3    0    0 -0.26627610384E+01  0.98202213442E+00 -0.16397102285E+02  0.16640902241E+02  0.51100000000E-03 0.  1.
         12    1    3    3    0    0  0.34644462225E+01  0.13756600614E+02 -0.92934778124E+01  0.16959221030E+02  0.00000000000E+00 0. -1.
</event>
<event>
 7    1  0.2835316E-011  0.5052888E+02  0.7816164E-02  0.1300439E+00
        -11   -1    0    0    0    0  0.00000000000E+00  0.00000000000E+00  0.45593999997E+02  0.45594000000E+02  0.51100000000E-03 0.  1.
         11   -1    0    0    0    0 -0.00000000000E+00 -0.00000000000E+00 -0.45593999997E+02  0.45594000000E+02  0.51100000000E-03 0. -1.
    9900012    2    1    2    0    0  0.25777794726E+02  0.31312810488E+02  0.28596472144E+01  0.50528875762E+02  0.30000048365E+02 0.  0.
        -12    1    1    2    0    0 -0.25777794726E+02 -0.31312810488E+02 -0.28596472144E+01  0.40659124238E+02  0.00000000000E+00 0.  1.
         11    1    3    3    0    0  0.16244510126E+02  0.17786021762E+02 -0.12457121531E+02  0.27118380417E+02  0.51100000000E-03 0. -1.
        -11    1    3    3    0    0  0.92785341348E+01  0.12026066839E+02  0.10782101602E+02  0.18627162814E+02  0.51100000000E-03 0.  1.
        -12    1    3    3    0    0  0.25475046591E+00  0.15007218875E+01  0.45346671443E+01  0.47833325301E+01  0.00000000000E+00 0.  1.
</event>
<event>
 7    1  0.2835316E-011  0.5052886E+02  0.7816164E-02  0.1300439E+00
        -11   -1    0    0    0    0  0.00000000000E+00  0.00000000000E+00  0.45593999997E+02  0.45594000000E+02  0.51100000000E-03 0.  1.
         11   -1    0    0    0    0 -0.00000000000E+00 -0.00000000000E+00 -0.45593999997E+02  0.45594000000E+02  0.51100000000E-03 0. -1.
    9900012    2    1    2    0    0  0.20893594570E+02  0.22544360303E+02 -0.26615321513E+02  0.50528858165E+02  0.29999994879E+02 0.  0.
        -12    1    1    2    0    0 -0.20893594570E+02 -0.22544360303E+02  0.26615321513E+02  0.40659141835E+02  0.00000000000E+00 0.  1.
         11    1    3    3    0    0  0.54561201221E+00  0.15928457000E+02 -0.59820488682E+01  0.17023464506E+02  0.51100000000E-03 0. -1.
        -11    1    3    3    0    0 -0.54452426846E+00 -0.14429004680E+01 -0.72623843772E+01  0.74243313195E+01  0.51100000000E-03 0.  1.
        -12    1    3    3    0    0  0.20892506826E+02  0.80588037704E+01 -0.13370888268E+02  0.26081062339E+02  0.00000000000E+00 0.  1.
</event>
<event>
 7    1  0.2835316E-011  0.5052886E+02  0.7816164E-02  0.1300439E+00
        -11   -1    0    0    0    0  0.00000000000E+00  0.00000000000E+00  0.45593999997E+02  0.45594000000E+02  0.51100000000E-03 0. -1.
         11   -1    0    0    0    0 -0.00000000000E+00 -0.00000000000E+00 -0.45593999997E+02  0.45594000000E+02  0.51100000000E-03 0.  1.
    9900012    2    1    2    0    0  0.21197087835E+02 -0.22928325875E+02  0.26041140723E+02  0.50528859941E+02  0.30000000278E+02 0.  0.
        -12    1    1    2    0    0 -0.21197087835E+02  0.22928325875E+02 -0.26041140723E+02  0.40659140059E+02  0.00000000000E+00 0.  1.
         11    1    3    3    0    0  0.10867356570E+02 -0.74608252808E+01  0.20772162711E+02  0.24601749869E+02  0.51100000000E-03 0. -1.
        -11    1    3    3    0    0  0.11232133658E+02 -0.17318862261E+01  0.55980552667E+00  0.11378648378E+02  0.51100000000E-03 0.  1.
         12    1    3    3    0    0 -0.90240239353E+00 -0.13735614368E+02  0.47091724860E+01  0.14548461694E+02  0.00000000000E+00 0. -1.
</event>
<event>
 7    1  0.2835316E-011  0.5052886E+02  0.7816164E-02  0.1300439E+00
        -11   -1    0    0    0    0  0.00000000000E+00  0.00000000000E+00  0.45593999997E+02  0.45594000000E+02  0.51100000000E-03 0. -1.
         11   -1    0    0    0    0 -0.00000000000E+00 -0.00000000000E+00 -0.45593999997E+02  0.45594000000E+02  0.51100000000E-03 0.  1.
    9900012    2    1    2    0    0 -0.32866203483E+02 -0.10281546270E+02  0.21616378814E+02  0.50528863780E+02  0.30000011947E+02 0.  0.
        -12    1    1    2    0    0  0.32866203483E+02  0.10281546270E+02 -0.21616378814E+02  0.40659136220E+02  0.00000000000E+00 0.  1.
         11    1    3    3    0    0 -0.37792845010E+01 -0.55433133545E+01  0.34302640529E+01  0.75351195093E+01  0.51100000000E-03 0.  1.
        -11    1    3    3    0    0 -0.14116099468E+02 -0.88595989272E+00 -0.51071385617E+01  0.15037687776E+02  0.51100000000E-03 0. -1.
         12    1    3    3    0    0 -0.14970819515E+02 -0.38522730227E+01  0.23293253323E+02  0.27956056495E+02  0.00000000000E+00 0. -1.
</event>
<event>
 7    1  0.2835316E-011  0.5052888E+02  0.7816164E-02  0.1300439E+00
        -11   -1    0    0    0    0  0.00000000000E+00  0.00000000000E+00  0.45593999997E+02  0.45594000000E+02  0.51100000000E-03 0. -1.
         11   -1    0    0    0    0 -0.00000000000E+00 -0.00000000000E+00 -0.45593999997E+02  0.45594000000E+02  0.51100000000E-03 0.  1.
    9900012    2    1    2    0    0  0.81823052597E+01  0.16614263202E+02  0.36196410406E+02  0.50528880637E+02  0.30000063184E+02 0.  0.
        -12    1    1    2    0    0 -0.81823052597E+01 -0.16614263202E+02 -0.36196410406E+02  0.40659119363E+02  0.00000000000E+00 0.  1.
         11    1    3    3    0    0 -0.38056665645E+01  0.10127554696E+02  0.99388980897E+01  0.14691227233E+02  0.51100000000E-03 0. -1.
        -11    1    3    3    0    0  0.44552586444E+00 -0.67786294825E+01  0.68005799079E+01  0.96122941227E+01  0.51100000000E-03 0.  1.
         12    1    3    3    0    0  0.11542445960E+02  0.13265337989E+02  0.19456932408E+02  0.26225359281E+02  0.00000000000E+00 0. -1.
</event>
<event>
 7    1  0.2835316E-011  0.5052886E+02  0.7816164E-02  0.1300439E+00
        -11   -1    0    0    0    0  0.00000000000E+00  0.00000000000E+00  0.45593999997E+02  0.45594000000E+02  0.51100000000E-03 0.  1.
         11   -1    0    0    0    0 -0.00000000000E+00 -0.00000000000E+00 -0.45593999997E+02  0.45594000000E+02  0.51100000000E-03 0. -1.
    9900012    2    1    2    0    0  0.40510301462E+02 -0.27618687893E+01 -0.21103223157E+01  0.50528857067E+02  0.29999991542E+02 0.  0.
        -12    1    1    2    0    0 -0.40510301462E+02  0.27618687893E+01  0.21103223157E+01  0.40659142933E+02  0.00000000000E+00 0.  1.
         11    1    3    3    0    0  0.13323983105E+02 -0.77896447764E-01 -0.77001960914E+01  0.15389204454E+02  0.51100000000E-03 0. -1.
        -11    1    3    3    0    0  0.36354703563E+01 -0.94012263548E+01  0.29643504680E+00  0.10084025768E+02  0.51100000000E-03 0.  1.
        -12    1    3    3    0    0  0.23550848001E+02  0.67172540133E+01  0.52934387289E+01  0.25055626845E+02  0.00000000000E+00 0.  1.
</event>
<event>
 7    1  0.4421947E-011  0.5052886E+02  0.7816164E-02  0.1300439E+00
        -11   -1    0    0    0    0  0.00000000000E+00  0.00000000000E+00  0.45593999997E+02  0.45594000000E+02  0.51100000000E-03 0.  1.
         11   -1    0    0    0    0 -0.00000000000E+00 -0.00000000000E+00 -0.45593999997E+02  0.45594000000E+02  0.51100000000E-03 0. -1.
    9900012    2    1    2    0    0  0.28502570295E+02 -0.28367817367E+02  0.60030028628E+01  0.50528860573E+02  0.30000002197E+02 0.  0.
        -12    1    1    2    0    0 -0.28502570295E+02  0.28367817367E+02 -0.60030028628E+01  0.40659139427E+02  0.00000000000E+00 0.  1.
         11    1    3    3    0    0  0.18327618703E+02 -0.18242111809E+02  0.23572274699E+01  0.25965992609E+02  0.51100000000E-03 0. -1.
        -11    1    3    3    0    0  0.11827475032E+02 -0.43297561162E+01  0.97928113150E+01  0.15954156429E+02  0.51100000000E-03 0.  1.
        -12    1    3    3    0    0 -0.16525234399E+01 -0.57959494418E+01 -0.61470359222E+01  0.86087115342E+01  0.00000000000E+00 0.  1.
</event>
<event>
 7    1  0.2835316E-011  0.5052886E+02  0.7816164E-02  0.1300439E+00
        -11   -1    0    0    0    0  0.00000000000E+00  0.00000000000E+00  0.45593999997E+02  0.45594000000E+02  0.51100000000E-03 0. -1.
         11   -1    0    0    0    0 -0.00000000000E+00 -0.00000000000E+00 -0.45593999997E+02  0.45594000000E+02  0.51100000000E-03 0.  1.
    9900012    2    1    2    0    0 -0.49090982547E+01 -0.75613775040E+01  0.39647094343E+02  0.50528858774E+02  0.29999996729E+02 0.  0.
        -12    1    1    2    0    0  0.49090982547E+01  0.75613775040E+01 -0.39647094343E+02  0.40659141226E+02  0.00000000000E+00 0.  1.
         11    1    3    3    0    0 -0.34100259056E+01  0.27669311773E+01  0.15036773482E+02  0.15664888823E+02  0.51100000000E-03 0. -1.
        -11    1    3    3    0    0  0.84510026899E+01 -0.67704364826E+01  0.21122089270E+02  0.23736067746E+02  0.51100000000E-03 0.  1.
        -12    1    3    3    0    0 -0.99500750390E+01 -0.35578721987E+01  0.34882315903E+01  0.11127902205E+02  0.00000000000E+00 0.  1.
</event>
<event>
 7    1  0.2835316E-011  0.5052886E+02  0.7816164E-02  0.1300439E+00
        -11   -1    0    0    0    0  0.00000000000E+00  0.00000000000E+00  0.45593999997E+02  0.45594000000E+02  0.51100000000E-03 0.  1.
         11   -1    0    0    0    0 -0.00000000000E+00 -0.00000000000E+00 -0.45593999997E+02  0.45594000000E+02  0.51100000000E-03 0. -1.
    9900012    2    1    2    0    0 -0.36286326526E+02 -0.12228025732E+02 -0.13672719041E+02  0.50528863856E+02  0.30000012177E+02 0.  0.
        -12    1    1    2    0    0  0.36286326526E+02  0.12228025732E+02  0.13672719041E+02  0.40659136144E+02  0.00000000000E+00 0.  1.
         11    1    3    3    0    0 -0.28684617296E+02 -0.15458523542E+02 -0.50022535487E+01  0.32966585512E+02  0.51100000000E-03 0. -1.
        -11    1    3    3    0    0 -0.68554735373E+01  0.34136778606E+00 -0.11537038181E+02  0.13424503702E+02  0.51100000000E-03 0.  1.
        -12    1    3    3    0    0 -0.74623569273E+00  0.28891300244E+01  0.28665726892E+01  0.41377746421E+01  0.00000000000E+00 0.  1.
</event>
<event>
 7    1  0.2835316E-011  0.5052885E+02  0.7816164E-02  0.1300439E+00
        -11   -1    0    0    0    0  0.00000000000E+00  0.00000000000E+00  0.45593999997E+02  0.45594000000E+02  0.51100000000E-03 0.  1.
         11   -1    0    0    0    0 -0.00000000000E+00 -0.00000000000E+00 -0.45593999997E+02  0.45594000000E+02  0.51100000000E-03 0. -1.
    9900012    2    1    2    0    0 -0.17934958741E+02 -0.50710400318E+01 -0.36135693441E+02  0.50528849338E+02  0.29999968049E+02 0.  0.
        -12    1    1    2    0    0  0.17934958741E+02  0.50710400318E+01  0.36135693441E+02  0.40659150662E+02  0.00000000000E+00 0.  1.
         11    1    3    3    0    0 -0.14587926537E+01  0.64112005021E+01 -0.10915736136E+02  0.12743031960E+02  0.51100000000E-03 0. -1.
        -11    1    3    3    0    0 -0.16953867531E+02 -0.12734927523E+01 -0.10909845281E+02  0.20200993351E+02  0.51100000000E-03 0.  1.
        -12    1    3    3    0    0  0.47770144346E+00 -0.10208747782E+02 -0.14310112024E+02  0.17584824027E+02  0.00000000000E+00 0.  1.
</event>
<event>
 7    1  0.2835316E-011  0.5052886E+02  0.7816164E-02  0.1300439E+00
        -11   -1    0    0    0    0  0.00000000000E+00  0.00000000000E+00  0.45593999997E+02  0.45594000000E+02  0.51100000000E-03 0. -1.
         11   -1    0    0    0    0 -0.00000000000E+00 -0.00000000000E+00 -0.45593999997E+02  0.45594000000E+02  0.51100000000E-03 0.  1.
    9900012    2    1    2    0    0 -0.29873217363E+02  0.10405763850E+01  0.27562184741E+02  0.50528856593E+02  0.29999990101E+02 0.  0.
        -12    1    1    2    0    0  0.29873217363E+02 -0.10405763850E+01 -0.27562184741E+02  0.40659143407E+02  0.00000000000E+00 0.  1.
         11    1    3    3    0    0  0.37163417918E+01  0.30996230842E+01  0.60699965912E+01  0.77629709813E+01  0.51100000000E-03 0. -1.
        -11    1    3    3    0    0 -0.47663628876E+01  0.55081870837E+00 -0.22808749479E+01  0.53126271481E+01  0.51100000000E-03 0.  1.
         12    1    3    3    0    0 -0.28823196268E+02 -0.26098654075E+01  0.23773063098E+02  0.37453258464E+02  0.00000000000E+00 0. -1.
</event>
<event>
 7    1  0.2835316E-011  0.5052886E+02  0.7816164E-02  0.1300439E+00
        -11   -1    0    0    0    0  0.00000000000E+00  0.00000000000E+00  0.45593999997E+02  0.45594000000E+02  0.51100000000E-03 0. -1.
         11   -1    0    0    0    0 -0.00000000000E+00 -0.00000000000E+00 -0.45593999997E+02  0.45594000000E+02  0.51100000000E-03 0.  1.
    9900012    2    1    2    0    0 -0.18593395277E+02 -0.35677575962E+02  0.58789670844E+01  0.50528855538E+02  0.29999986892E+02 0.  0.
        -12    1    1    2    0    0  0.18593395277E+02  0.35677575962E+02 -0.58789670844E+01  0.40659144462E+02  0.00000000000E+00 0.  1.
         11    1    3    3    0    0 -0.17995962014E+02 -0.37420762511E+02  0.19749795192E-01  0.41523108097E+02  0.51100000000E-03 0. -1.
        -11    1    3    3    0    0  0.18433209662E+01 -0.10462402049E+00 -0.53011611241E+00  0.19208856613E+01  0.51100000000E-03 0.  1.
        -12    1    3    3    0    0 -0.24407542293E+01  0.18478105701E+01  0.63893334017E+01  0.70848617791E+01  0.00000000000E+00 0.  1.
</event>
<event>
 7    1  0.2835316E-011  0.5052886E+02  0.7816164E-02  0.1300439E+00
        -11   -1    0    0    0    0  0.00000000000E+00  0.00000000000E+00  0.45593999997E+02  0.45594000000E+02  0.51100000000E-03 0.  1.
         11   -1    0    0    0    0 -0.00000000000E+00 -0.00000000000E+00 -0.45593999997E+02  0.45594000000E+02  0.51100000000E-03 0. -1.
    9900012    2    1    2    0    0 -0.91650494020E+01  0.32990848624E+02 -0.21926501413E+02  0.50528859728E+02  0.29999999628E+02 0.  0.
        -12    1    1    2    0    0  0.91650494020E+01 -0.32990848624E+02  0.21926501413E+02  0.40659140272E+02  0.00000000000E+00 0.  1.
         11    1    3    3    0    0 -0.19039960545E+02  0.25350577076E+02 -0.13459782157E+02  0.34443251757E+02  0.51100000000E-03 0. -1.
        -11    1    3    3    0    0 -0.68200462901E+00  0.22193296516E+00 -0.14398507388E+00  0.73151658740E+00  0.51100000000E-03 0.  1.
         12    1    3    3    0    0  0.10556915772E+02  0.74183385830E+01 -0.83227341818E+01  0.15354091383E+02  0.00000000000E+00 0. -1.
</event>
<event>
 7    1  0.2835316E-011  0.5052885E+02  0.7816164E-02  0.1300439E+00
        -11   -1    0    0    0    0  0.00000000000E+00  0.00000000000E+00  0.45593999997E+02  0.45594000000E+02  0.51100000000E-03 0.  1.
         11   -1    0    0    0    0 -0.00000000000E+00 -0.00000000000E+00 -0.45593999997E+02  0.45594000000E+02  0.51100000000E-03 0. -1.
    9900012    2    1    2    0    0  0.30087873597E+02  0.12624512266E+02  0.24259187692E+02  0.50528848078E+02  0.29999964218E+02 0.  0.
        -12    1    1    2    0    0 -0.30087873597E+02 -0.12624512266E+02 -0.24259187692E+02  0.40659151922E+02  0.00000000000E+00 0.  1.
         11    1    3    3    0    0  0.13598725329E+02 -0.27174356231E+00  0.15646723444E+02  0.20732079730E+02  0.51100000000E-03 0.  1.
        -11    1    3    3    0    0  0.17382925719E+02  0.63171815112E+01 -0.52397010587E+00  0.18502633157E+02  0.51100000000E-03 0. -1.
         12    1    3    3    0    0 -0.89377745189E+00  0.65790743167E+01  0.91364343546E+01  0.11294135191E+02  0.00000000000E+00 0. -1.
</event>
<event>
 7    1  0.2835316E-011  0.5052886E+02  0.7816164E-02  0.1300439E+00
        -11   -1    0    0    0    0  0.00000000000E+00  0.00000000000E+00  0.45593999997E+02  0.45594000000E+02  0.51100000000E-03 0. -1.
         11   -1    0    0    0    0 -0.00000000000E+00 -0.00000000000E+00 -0.45593999997E+02  0.45594000000E+02  0.51100000000E-03 0.  1.
    9900012    2    1    2    0    0  0.22167263973E+02 -0.10695031119E+01  0.34068081581E+02  0.50528860663E+02  0.30000002472E+02 0.  0.
        -12    1    1    2    0    0 -0.22167263973E+02  0.10695031119E+01 -0.34068081581E+02  0.40659139337E+02  0.00000000000E+00 0.  1.
         11    1    3    3    0    0 -0.13038724152E+01 -0.14917115081E+01  0.11075451300E+02  0.11251262518E+02  0.51100000000E-03 0. -1.
        -11    1    3    3    0    0  0.74830183101E+01  0.91957845596E+01  0.15612334473E+02  0.19603647739E+02  0.51100000000E-03 0.  1.
        -12    1    3    3    0    0  0.15988118078E+02 -0.87735761634E+01  0.73802958084E+01  0.19673950407E+02  0.00000000000E+00 0.  1.
</event>
<event>
 7    1  0.2835316E-011  0.5052886E+02  0.7816164E-02  0.1300439E+00
        -11   -1    0    0    0    0  0.00000000000E+00  0.00000000000E+00  0.45593999997E+02  0.45594000000E+02  0.51100000000E-03 0.  1.
         11   -1    0    0    0    0 -0.00000000000E+00 -0.00000000000E+00 -0.45593999997E+02  0.45594000000E+02  0.51100000000E-03 0. -1.
    9900012    2    1    2    0    0 -0.83315644301E+01  0.25211446025E+02 -0.30791773421E+02  0.50528864655E+02  0.30000014606E+02 0.  0.
        -12    1    1    2    0    0  0.83315644301E+01 -0.25211446025E+02  0.30791773421E+02  0.40659135345E+02  0.00000000000E+00 0.  1.
         11    1    3    3    0    0 -0.14309026308E+01  0.17196937955E+02 -0.17923327741E+02  0.24880269994E+02  0.51100000000E-03 0. -1.
        -11    1    3    3    0    0  0.61156075518E+01  0.66926786309E+01 -0.45376375609E+01  0.10138183165E+02  0.51100000000E-03 0.  1.
        -12    1    3    3    0    0 -0.13016269351E+02  0.13218294393E+01 -0.83308081192E+01  0.15510411497E+02  0.00000000000E+00 0.  1.
</event>
<event>
 7    1  0.2835316E-011  0.5052887E+02  0.7816164E-02  0.1300439E+00
        -11   -1    0    0    0    0  0.00000000000E+00  0.00000000000E+00  0.45593999997E+02  0.45594000000E+02  0.51100000000E-03 0. -1.
         11   -1    0    0    0    0 -0.00000000000E+00 -0.00000000000E+00 -0.45593999997E+02  0.45594000000E+02  0.51100000000E-03 0.  1.
    9900012    2    1    2    0    0  0.37157731840E+02 -0.67584568456E+01  0.15059596591E+02  0.50528865431E+02  0.30000016964E+02 0.  0.
        -12    1    1    2    0    0 -0.37157731840E+02  0.67584568456E+01 -0.15059596591E+02  0.40659134569E+02  0.00000000000E+00 0.  1.
         11    1    3    3    0    0  0.33885805950E+01 -0.10645028356E+02  0.52358937204E+01  0.12337491254E+02  0.51100000000E-03 0.  1.
        -11    1    3    3    0    0  0.15117017990E+02 -0.52415765105E+01  0.59301022140E+01  0.17063542122E+02  0.51100000000E-03 0. -1.
        -12    1    3    3    0    0  0.18652133255E+02  0.91281480205E+01  0.38936006565E+01  0.21127832054E+02  0.00000000000E+00 0.  1.
</event>
<event>
 7    1  0.2835316E-011  0.5052887E+02  0.7816164E-02  0.1300439E+00
        -11   -1    0    0    0    0  0.00000000000E+00  0.00000000000E+00  0.45593999997E+02  0.45594000000E+02  0.51100000000E-03 0.  1.
         11   -1    0    0    0    0 -0.00000000000E+00 -0.00000000000E+00 -0.45593999997E+02  0.45594000000E+02  0.51100000000E-03 0. -1.
    9900012    2    1    2    0    0 -0.51030795782E+01  0.29300304846E+02 -0.27723914014E+02  0.50528871953E+02  0.30000036789E+02 0.  0.
        -12    1    1    2    0    0  0.51030795782E+01 -0.29300304846E+02  0.27723914014E+02  0.40659128047E+02  0.00000000000E+00 0.  1.
         11    1    3    3    0    0 -0.57796499404E+01  0.12320630689E+02 -0.11301502180E+02  0.17689721473E+02  0.51100000000E-03 0. -1.
        -11    1    3    3    0    0  0.23108964601E+01  0.21878401634E+02 -0.89388934005E+01  0.23746758010E+02  0.51100000000E-03 0.  1.
        -12    1    3    3    0    0 -0.16343260979E+01 -0.48987274764E+01 -0.74835184343E+01  0.90923924706E+01  0.00000000000E+00 0.  1.
</event>
<event>
 7    1  0.2835316E-011  0.5052887E+02  0.7816164E-02  0.1300439E+00
        -11   -1    0    0    0    0  0.00000000000E+00  0.00000000000E+00  0.45593999997E+02  0.45594000000E+02  0.51100000000E-03 0. -1.
         11   -1    0    0    0    0 -0.00000000000E+00 -0.00000000000E+00 -0.45593999997E+02  0.45594000000E+02  0.51100000000E-03 0.  1.
    9900012    2    1    2    0    0 -0.18549761139E+02 -0.26850903567E+02  0.24250782957E+02  0.50528866528E+02  0.30000020298E+02 0.  0.
        -12    1    1    2    0    0  0.18549761139E+02  0.26850903567E+02 -0.24250782957E+02  0.40659133472E+02  0.00000000000E+00 0.  1.
         11    1    3    3    0    0 -0.51559283628E+01 -0.21168487088E+02  0.26917353382E+02  0.34629934396E+02  0.51100000000E-03 0. -1.
        -11    1    3    3    0    0 -0.48979085145E+01 -0.13799538462E+01  0.17770994895E+01  0.53899780418E+01  0.51100000000E-03 0.  1.
         12    1    3    3    0    0 -0.84959242617E+01 -0.43024626328E+01 -0.44436699147E+01  0.10508954091E+02  0.00000000000E+00 0. -1.
</event>
<event>
 7    1  0.2835316E-011  0.5052887E+02  0.7816164E-02  0.1300439E+00
        -11   -1    0    0    0    0  0.00000000000E+00  0.00000000000E+00  0.45593999997E+02  0.45594000000E+02  0.51100000000E-03 0.  1.
         11   -1    0    0    0    0 -0.00000000000E+00 -0.00000000000E+00 -0.45593999997E+02  0.45594000000E+02  0.51100000000E-03 0. -1.
    9900012    2    1    2    0    0 -0.14691530891E+02 -0.88624238582E+01 -0.36861647967E+02  0.50528871537E+02  0.30000035523E+02 0.  0.
        -12    1    1    2    0    0  0.14691530891E+02  0.88624238582E+01  0.36861647967E+02  0.40659128463E+02  0.00000000000E+00 0.  1.
         11    1    3    3    0    0 -0.11691136707E+02 -0.44000405307E+01 -0.29733278452E+01  0.12840705312E+02  0.51100000000E-03 0. -1.
        -11    1    3    3    0    0 -0.64358484715E+01  0.38130263110E+01 -0.16904038461E+02  0.18485286899E+02  0.51100000000E-03 0.  1.
         12    1    3    3    0    0  0.34354542880E+01 -0.82754096385E+01 -0.16984281660E+02  0.19202879325E+02  0.00000000000E+00 0. -1.
</event>
<event>
 7    1  0.2835316E-011  0.5052886E+02  0.7816164E-02  0.1300439E+00
        -11   -1    0    0    0    0  0.00000000000E+00  0.00000000000E+00  0.45593999997E+02  0.45594000000E+02  0.51100000000E-03 0.  1.
         11   -1    0    0    0    0 -0.00000000000E+00 -0.00000000000E+00 -0.45593999997E+02  0.45594000000E+02  0.51100000000E-03 0. -1.
    9900012    2    1    2    0    0 -0.12905941620E+02  0.27425911893E+00 -0.38555501824E+02  0.50528864888E+02  0.30000015313E+02 0.  0.
        -12    1    1    2    0    0  0.12905941620E+02 -0.27425911893E+00  0.38555501824E+02  0.40659135112E+02  0.00000000000E+00 0.  1.
         11    1    3    3    0    0  0.23012142661E+01 -0.74069899554E+01 -0.15464980159E+02  0.17301002829E+02  0.51100000000E-03 0. -1.
        -11    1    3    3    0    0 -0.53194891268E+00  0.62677603430E+01 -0.15322624557E+02  0.16563532622E+02  0.51100000000E-03 0.  1.
         12    1    3    3    0    0 -0.14675206973E+02  0.14134887313E+01 -0.77678971085E+01  0.16664329437E+02  0.00000000000E+00 0. -1.
</event>
<event>
 7    1  0.2835316E-011  0.5052886E+02  0.7816164E-02  0.1300439E+00
        -11   -1    0    0    0    0  0.00000000000E+00  0.00000000000E+00  0.45593999997E+02  0.45594000000E+02  0.51100000000E-03 0.  1.
         11   -1    0    0    0    0 -0.00000000000E+00 -0.00000000000E+00 -0.45593999997E+02  0.45594000000E+02  0.51100000000E-03 0. -1.
    9900012    2    1    2    0    0  0.31838441264E+02  0.23350820482E+02  0.97066275737E+01  0.50528858616E+02  0.29999996248E+02 0.  0.
        -12    1    1    2    0    0 -0.31838441264E+02 -0.23350820482E+02 -0.97066275737E+01  0.40659141384E+02  0.00000000000E+00 0.  1.
         11    1    3    3    0    0  0.31556091049E+02  0.21509797094E+02  0.74360079654E+01  0.38906971973E+02  0.51100000000E-03 0. -1.
        -11    1    3    3    0    0 -0.62896518111E+00  0.56218272970E+01 -0.18539279656E+01  0.59529478848E+01  0.51100000000E-03 0.  1.
        -12    1    3    3    0    0  0.91131539535E+00 -0.37808039097E+01  0.41245475739E+01  0.56689387580E+01  0.00000000000E+00 0.  1.
</event>
<event>
 7    1  0.2835316E-011  0.5052882E+02  0.7816164E-02  0.1300439E+00
        -11   -1    0    0    0    0  0.00000000000E+00  0.00000000000E+00  0.45593999997E+02  0.45594000000E+02  0.51100000000E-03 0.  1.
         11   -1    0    0    0    0 -0.00000000000E+00 -0.00000000000E+00 -0.45593999997E+02  0.45594000000E+02  0.51100000000E-03 0. -1.
    9900012    2    1    2    0    0 -0.28468596792E+02 -0.29028507817E+02 -0.23173695244E+00  0.50528819347E+02  0.29999876887E+02 0.  0.
        -12    1    1    2    0    0  0.28468596792E+02  0.29028507817E+02  0.23173695244E+00  0.40659180653E+02  0.00000000000E+00 0.  1.
         11    1    3    3    0    0 -0.18466562636E+02 -0.86908147588E+01 -0.11025525386E+02  0.23197120663E+02  0.51100000000E-03 0. -1.
        -11    1    3    3    0    0 -0.16060528219E+01  0.10266163608E+01  0.19647111372E+01  0.27374142786E+01  0.51100000000E-03 0.  1.
         12    1    3    3    0    0 -0.83959813334E+01 -0.21364309419E+02  0.88290772961E+01  0.24594284405E+02  0.00000000000E+00 0. -1.
</event>
<event>
 7    1  0.2835316E-011  0.5052886E+02  0.7816164E-02  0.1300439E+00
        -11   -1    0    0    0    0  0.00000000000E+00  0.00000000000E+00  0.45593999997E+02  0.45594000000E+02  0.51100000000E-03 0.  1.
         11   -1    0    0    0    0 -0.00000000000E+00 -0.00000000000E+00 -0.45593999997E+02  0.45594000000E+02  0.51100000000E-03 0. -1.
    9900012    2    1    2    0    0 -0.16109370204E+02 -0.68715796345E+01 -0.36693805528E+02  0.50528858603E+02  0.29999996210E+02 0.  0.
        -12    1    1    2    0    0  0.16109370204E+02  0.68715796345E+01  0.36693805528E+02  0.40659141397E+02  0.00000000000E+00 0.  1.
         11    1    3    3    0    0 -0.11309225923E+02 -0.13153600002E+02 -0.18633458191E+02  0.25458231447E+02  0.51100000000E-03 0. -1.
        -11    1    3    3    0    0 -0.25350505812E+00  0.10343310523E+01  0.28474369186E+01  0.30400662504E+01  0.51100000000E-03 0.  1.
        -12    1    3    3    0    0 -0.45466392231E+01  0.52476893148E+01 -0.20907784255E+02  0.22030560906E+02  0.00000000000E+00 0.  1.
</event>
<event>
 7    1  0.2835316E-011  0.5052887E+02  0.7816164E-02  0.1300439E+00
        -11   -1    0    0    0    0  0.00000000000E+00  0.00000000000E+00  0.45593999997E+02  0.45594000000E+02  0.51100000000E-03 0. -1.
         11   -1    0    0    0    0 -0.00000000000E+00 -0.00000000000E+00 -0.45593999997E+02  0.45594000000E+02  0.51100000000E-03 0.  1.
    9900012    2    1    2    0    0 -0.10312186003E+02 -0.41756257221E+01  0.39107386819E+02  0.50528871454E+02  0.30000035271E+02 0.  0.
        -12    1    1    2    0    0  0.10312186003E+02  0.41756257221E+01 -0.39107386819E+02  0.40659128546E+02  0.00000000000E+00 0.  1.
         11    1    3    3    0    0 -0.12584937278E+02  0.34555017665E+01  0.16428476371E+02  0.20981324430E+02  0.51100000000E-03 0. -1.
        -11    1    3    3    0    0 -0.59898343847E+00  0.39155776189E+01  0.14692991011E+02  0.15217572552E+02  0.51100000000E-03 0.  1.
        -12    1    3    3    0    0  0.28717347134E+01 -0.11546705107E+02  0.79859194370E+01  0.14329974472E+02  0.00000000000E+00 0.  1.
</event>
<event>
 7    1  0.2835316E-011  0.5052886E+02  0.7816164E-02  0.1300439E+00
        -11   -1    0    0    0    0  0.00000000000E+00  0.00000000000E+00  0.45593999997E+02  0.45594000000E+02  0.51100000000E-03 0.  1.
         11   -1    0    0    0    0 -0.00000000000E+00 -0.00000000000E+00 -0.45593999997E+02  0.45594000000E+02  0.51100000000E-03 0. -1.
    9900012    2    1    2    0    0 -0.18902569182E+02  0.35394052836E+02 -0.65665519660E+01  0.50528859544E+02  0.29999999071E+02 0.  0.
        -12    1    1    2    0    0  0.18902569182E+02 -0.35394052836E+02  0.65665519660E+01  0.40659140456E+02  0.00000000000E+00 0.  1.
         11    1    3    3    0    0  0.61492673391E+01  0.71331590513E+01 -0.18800807087E+01  0.96036529817E+01  0.51100000000E-03 0. -1.
        -11    1    3    3    0    0 -0.13983648360E+02  0.21421858688E+02  0.30895903769E+01  0.25767887381E+02  0.51100000000E-03 0.  1.
        -12    1    3    3    0    0 -0.11068188162E+02  0.68390350967E+01 -0.77760616342E+01  0.15157319182E+02  0.00000000000E+00 0.  1.
</event>
<event>
 7    1  0.2835316E-011  0.5052886E+02  0.7816164E-02  0.1300439E+00
        -11   -1    0    0    0    0  0.00000000000E+00  0.00000000000E+00  0.45593999997E+02  0.45594000000E+02  0.51100000000E-03 0. -1.
         11   -1    0    0    0    0 -0.00000000000E+00 -0.00000000000E+00 -0.45593999997E+02  0.45594000000E+02  0.51100000000E-03 0.  1.
    9900012    2    1    2    0    0  0.32497488251E+02 -0.21743327833E+02 -0.11149280692E+02  0.50528861939E+02  0.30000006351E+02 0.  0.
        -12    1    1    2    0    0 -0.32497488251E+02  0.21743327833E+02  0.11149280692E+02  0.40659138061E+02  0.00000000000E+00 0.  1.
         11    1    3    3    0    0  0.51519986561E+01 -0.80302588728E+01  0.67946097894E+01  0.11713021394E+02  0.51100000000E-03 0. -1.
        -11    1    3    3    0    0  0.20749015873E+01  0.31182423241E+01 -0.44589533577E+00  0.37719324889E+01  0.51100000000E-03 0.  1.
         12    1    3    3    0    0  0.25270588008E+02 -0.16831311284E+02 -0.17497995145E+02  0.35043908057E+02  0.00000000000E+00 0. -1.
</event>
<event>
 7    1  0.2835316E-011  0.5052884E+02  0.7816164E-02  0.1300439E+00
        -11   -1    0    0    0    0  0.00000000000E+00  0.00000000000E+00  0.45593999997E+02  0.45594000000E+02  0.51100000000E-03 0. -1.
         11   -1    0    0    0    0 -0.00000000000E+00 -0.00000000000E+00 -0.45593999997E+02  0.45594000000E+02  0.51100000000E-03 0.  1.
    9900012    2    1    2    0    0  0.12710107286E+02  0.38393633751E+02  0.41892298922E+01  0.50528836373E+02  0.29999928638E+02 0.  0.
        -12    1    1    2    0    0 -0.12710107286E+02 -0.38393633751E+02 -0.41892298922E+01  0.40659163627E+02  0.00000000000E+00 0.  1.
         11    1    3    3    0    0  0.30084581957E+01  0.16343632124E+02 -0.25503016655E+01  0.16812768082E+02  0.51100000000E-03 0. -1.
        -11    1    3    3    0    0 -0.24494499650E+01  0.15295124854E+02 -0.41730665757E+01  0.16042292054E+02  0.51100000000E-03 0.  1.
         12    1    3    3    0    0  0.12151099055E+02  0.67548767721E+01  0.10912598133E+02  0.17673776237E+02  0.00000000000E+00 0. -1.
</event>
<event>
 7    1  0.2835316E-011  0.5052874E+02  0.7816164E-02  0.1300439E+00
        -11   -1    0    0    0    0  0.00000000000E+00  0.00000000000E+00  0.45593999997E+02  0.45594000000E+02  0.51100000000E-03 0. -1.
         11   -1    0    0    0    0 -0.00000000000E+00 -0.00000000000E+00 -0.45593999997E+02  0.45594000000E+02  0.51100000000E-03 0.  1.
    9900012    2    1    2    0    0  0.25954615897E+02  0.17710778813E+01  0.31247348673E+02  0.50528737804E+02  0.29999629027E+02 0.  0.
        -12    1    1    2    0    0 -0.25954615897E+02 -0.17710778813E+01 -0.31247348673E+02  0.40659262196E+02  0.00000000000E+00 0.  1.
         11    1    3    3    0    0 -0.18835109280E+01  0.86671117815E+00  0.12642491900E+02  0.12811377888E+02  0.51100000000E-03 0. -1.
        -11    1    3    3    0    0  0.10629481356E+02  0.46055172157E+01 -0.68364568962E+00  0.11604483375E+02  0.51100000000E-03 0.  1.
         12    1    3    3    0    0  0.17208645469E+02 -0.37011505126E+01  0.19288502462E+02  0.26112876541E+02  0.00000000000E+00 0. -1.
</event>
<event>
 7    1  0.2835316E-011  0.5052886E+02  0.7816164E-02  0.1300439E+00
        -11   -1    0    0    0    0  0.00000000000E+00  0.00000000000E+00  0.45593999997E+02  0.45594000000E+02  0.51100000000E-03 0. -1.
         11   -1    0    0    0    0 -0.00000000000E+00 -0.00000000000E+00 -0.45593999997E+02  0.45594000000E+02  0.51100000000E-03 0.  1.
    9900012    2    1    2    0    0 -0.12037337902E+02 -0.34940339372E+02  0.16954075568E+02  0.50528862065E+02  0.30000006734E+02 0.  0.
        -12    1    1    2    0    0  0.12037337902E+02  0.34940339372E+02 -0.16954075568E+02  0.40659137935E+02  0.00000000000E+00 0.  1.
         11    1    3    3    0    0 -0.28490320837E+01 -0.25233778441E+00  0.73102170485E+01  0.78498364142E+01  0.51100000000E-03 0. -1.
        -11    1    3    3    0    0 -0.26892919884E+00 -0.54127555972E+01 -0.61854956817E+01  0.82237827767E+01  0.51100000000E-03 0.  1.
        -12    1    3    3    0    0 -0.89193766196E+01 -0.29275245991E+02  0.15829354201E+02  0.34455242874E+02  0.00000000000E+00 0.  1.
</event>
<event>
 7    1  0.2835316E-011  0.5052886E+02  0.7816164E-02  0.1300439E+00
        -11   -1    0    0    0    0  0.00000000000E+00  0.00000000000E+00  0.45593999997E+02  0.45594000000E+02  0.51100000000E-03 0. -1.
         11   -1    0    0    0    0 -0.00000000000E+00 -0.00000000000E+00 -0.45593999997E+02  0.45594000000E+02  0.51100000000E-03 0.  1.
    9900012    2    1    2    0    0  0.33362320463E+02 -0.23176976318E+02 -0.17172719203E+01  0.50528859813E+02  0.29999999887E+02 0.  0.
        -12    1    1    2    0    0 -0.33362320463E+02  0.23176976318E+02  0.17172719203E+01  0.40659140187E+02  0.00000000000E+00 0.  1.
         11    1    3    3    0    0  0.20901409796E+02 -0.63016720974E+01 -0.44486682741E+01  0.22279377289E+02  0.51100000000E-03 0. -1.
        -11    1    3    3    0    0 -0.40441570275E+00 -0.14044932384E+01 -0.61020682432E+01  0.62746625744E+01  0.51100000000E-03 0.  1.
        -12    1    3    3    0    0  0.12865326370E+02 -0.15470810982E+02  0.88334645970E+01  0.21974819950E+02  0.00000000000E+00 0.  1.
</event>
<event>
 7    1  0.2835316E-011  0.5052887E+02  0.7816164E-02  0.1300439E+00
        -11   -1    0    0    0    0  0.00000000000E+00  0.00000000000E+00  0.45593999997E+02  0.45594000000E+02  0.51100000000E-03 0.  1.
         11   -1    0    0    0    0 -0.00000000000E+00 -0.00000000000E+00 -0.45593999997E+02  0.45594000000E+02  0.51100000000E-03 0. -1.
    9900012    2    1    2    0    0 -0.10370218957E+02  0.65753370541E+01 -0.38760653178E+02  0.50528871463E+02  0.30000035300E+02 0.  0.
        -12    1    1    2    0    0  0.10370218957E+02 -0.65753370541E+01  0.38760653178E+02  0.40659128537E+02  0.00000000000E+00 0.  1.
         11    1    3    3    0    0 -0.19182674127E+01  0.24314185569E+01 -0.22005241543E+01  0.37991910824E+01  0.51100000000E-03 0. -1.
        -11    1    3    3    0    0  0.47936209280E+01 -0.82271789246E+00 -0.31239816325E+02  0.31616163440E+02  0.51100000000E-03 0.  1.
        -12    1    3    3    0    0 -0.13245572472E+02  0.49666363896E+01 -0.53203126981E+01  0.15113516942E+02  0.00000000000E+00 0.  1.
</event>
<event>
 7    1  0.2835316E-011  0.5052886E+02  0.7816164E-02  0.1300439E+00
        -11   -1    0    0    0    0  0.00000000000E+00  0.00000000000E+00  0.45593999997E+02  0.45594000000E+02  0.51100000000E-03 0.  1.
         11   -1    0    0    0    0 -0.00000000000E+00 -0.00000000000E+00 -0.45593999997E+02  0.45594000000E+02  0.51100000000E-03 0. -1.
    9900012    2    1    2    0    0  0.27354281053E+02  0.30054684667E+02  0.12746249861E+01  0.50528862881E+02  0.30000009213E+02 0.  0.
        -12    1    1    2    0    0 -0.27354281053E+02 -0.30054684667E+02 -0.12746249861E+01  0.40659137119E+02  0.00000000000E+00 0.  1.
         11    1    3    3    0    0  0.66183361536E+01  0.24344264739E+02  0.19360967751E+01  0.25302056638E+02  0.51100000000E-03 0. -1.
        -11    1    3    3    0    0  0.12966409604E+02  0.30046323630E+01  0.60393437755E+01  0.14616061958E+02  0.51100000000E-03 0.  1.
         12    1    3    3    0    0  0.77695352954E+01  0.27057875654E+01 -0.67008155644E+01  0.10610744285E+02  0.00000000000E+00 0. -1.
</event>
<event>
 7    1  0.2835316E-011  0.5052886E+02  0.7816164E-02  0.1300439E+00
        -11   -1    0    0    0    0  0.00000000000E+00  0.00000000000E+00  0.45593999997E+02  0.45594000000E+02  0.51100000000E-03 0. -1.
         11   -1    0    0    0    0 -0.00000000000E+00 -0.00000000000E+00 -0.45593999997E+02  0.45594000000E+02  0.51100000000E-03 0.  1.
    9900012    2    1    2    0    0  0.22546917898E+02 -0.30942153871E+02  0.13688876828E+02  0.50528859063E+02  0.29999997609E+02 0.  0.
        -12    1    1    2    0    0 -0.22546917898E+02  0.30942153871E+02 -0.13688876828E+02  0.40659140937E+02  0.00000000000E+00 0.  1.
         11    1    3    3    0    0  0.59127092075E+01 -0.32818514366E+01 -0.28672051285E+01  0.73451715115E+01  0.51100000000E-03 0. -1.
        -11    1    3    3    0    0  0.27133904996E+01 -0.68709802678E+01 -0.59849802340E+01  0.95075152646E+01  0.51100000000E-03 0.  1.
         12    1    3    3    0    0  0.13920818191E+02 -0.20789322167E+02  0.22541062190E+02  0.33676172287E+02  0.00000000000E+00 0. -1.
</event>
<event>
 7    1  0.2835316E-011  0.5052886E+02  0.7816164E-02  0.1300439E+00
        -11   -1    0    0    0    0  0.00000000000E+00  0.00000000000E+00  0.45593999997E+02  0.45594000000E+02  0.51100000000E-03 0. -1.
         11   -1    0    0    0    0 -0.00000000000E+00 -0.00000000000E+00 -0.45593999997E+02  0.45594000000E+02  0.51100000000E-03 0.  1.
    9900012    2    1    2    0    0  0.26748580390E+02  0.18825586758E+01  0.30563625107E+02  0.50528858842E+02  0.29999996935E+02 0.  0.
        -12    1    1    2    0    0 -0.26748580390E+02 -0.18825586758E+01 -0.30563625107E+02  0.40659141158E+02  0.00000000000E+00 0.  1.
         11    1    3    3    0    0  0.15274820071E+01  0.58228305931E+01  0.11805260872E+01  0.61345089047E+01  0.51100000000E-03 0. -1.
        -11    1    3    3    0    0  0.71246945343E+00  0.56504094157E+00  0.16157139319E+02  0.16182707908E+02  0.51100000000E-03 0.  1.
         12    1    3    3    0    0  0.24508628930E+02 -0.45053128588E+01  0.13225959700E+02  0.28211642029E+02  0.00000000000E+00 0. -1.
</event>
<event>
 7    1  0.2835316E-011  0.5052888E+02  0.7816164E-02  0.1300439E+00
        -11   -1    0    0    0    0  0.00000000000E+00  0.00000000000E+00  0.45593999997E+02  0.45594000000E+02  0.51100000000E-03 0. -1.
         11   -1    0    0    0    0 -0.00000000000E+00 -0.00000000000E+00 -0.45593999997E+02  0.45594000000E+02  0.51100000000E-03 0.  1.
    9900012    2    1    2    0    0  0.17794077799E+02  0.32601728500E+02  0.16542747349E+02  0.50528875614E+02  0.30000047917E+02 0.  0.
        -12    1    1    2    0    0 -0.17794077799E+02 -0.32601728500E+02 -0.16542747349E+02  0.40659124386E+02  0.00000000000E+00 0.  1.
         11    1    3    3    0    0 -0.45537604856E+00  0.13965405074E+02  0.96778191620E+01  0.16997061223E+02  0.51100000000E-03 0. -1.
        -11    1    3    3    0    0  0.12478338120E+02  0.74900341071E+01  0.13042111518E+02  0.19542420686E+02  0.51100000000E-03 0.  1.
         12    1    3    3    0    0  0.57711157282E+01  0.11146289319E+02 -0.61771833309E+01  0.13989393705E+02  0.00000000000E+00 0. -1.
</event>
<event>
 7    1  0.3398839E-011  0.5052880E+02  0.7816164E-02  0.1300439E+00
        -11   -1    0    0    0    0  0.00000000000E+00  0.00000000000E+00  0.45593999997E+02  0.45594000000E+02  0.51100000000E-03 0.  1.
         11   -1    0    0    0    0 -0.00000000000E+00 -0.00000000000E+00 -0.45593999997E+02  0.45594000000E+02  0.51100000000E-03 0. -1.
    9900012    2    1    2    0    0 -0.30776851269E+02  0.24550155039E+02 -0.10161003010E+02  0.50528798475E+02  0.29999813444E+02 0.  0.
        -12    1    1    2    0    0  0.30776851269E+02 -0.24550155039E+02  0.10161003010E+02  0.40659201525E+02  0.00000000000E+00 0.  1.
         11    1    3    3    0    0 -0.20220983715E+02  0.17703252378E+02  0.26393428723E+01  0.27004804354E+02  0.51100000000E-03 0. -1.
        -11    1    3    3    0    0 -0.11347181507E+02  0.99741538121E+01 -0.13457046974E+02  0.20232013888E+02  0.51100000000E-03 0.  1.
        -12    1    3    3    0    0  0.79131395284E+00 -0.31272511508E+01  0.65670109223E+00  0.32919802334E+01  0.00000000000E+00 0.  1.
</event>
<event>
 7    1  0.2835316E-011  0.5052886E+02  0.7816164E-02  0.1300439E+00
        -11   -1    0    0    0    0  0.00000000000E+00  0.00000000000E+00  0.45593999997E+02  0.45594000000E+02  0.51100000000E-03 0.  1.
         11   -1    0    0    0    0 -0.00000000000E+00 -0.00000000000E+00 -0.45593999997E+02  0.45594000000E+02  0.51100000000E-03 0. -1.
    9900012    2    1    2    0    0  0.85454554218E+01  0.21561351829E+01 -0.39692469063E+02  0.50528858007E+02  0.29999994398E+02 0.  0.
        -12    1    1    2    0    0 -0.85454554218E+01 -0.21561351829E+01  0.39692469063E+02  0.40659141993E+02  0.00000000000E+00 0.  1.
         11    1    3    3    0    0  0.13590536085E+02 -0.35221447643E+01 -0.12721428972E+02  0.18945789246E+02  0.51100000000E-03 0. -1.
        -11    1    3    3    0    0  0.37126298214E+01  0.18526345954E+00 -0.16327970759E+02  0.16745762811E+02  0.51100000000E-03 0.  1.
        -12    1    3    3    0    0 -0.87577104841E+01  0.54930164876E+01 -0.10643069332E+02  0.14837305950E+02  0.00000000000E+00 0.  1.
</event>
<event>
 7    1  0.2835316E-011  0.5052887E+02  0.7816164E-02  0.1300439E+00
        -11   -1    0    0    0    0  0.00000000000E+00  0.00000000000E+00  0.45593999997E+02  0.45594000000E+02  0.51100000000E-03 0. -1.
         11   -1    0    0    0    0 -0.00000000000E+00 -0.00000000000E+00 -0.45593999997E+02  0.45594000000E+02  0.51100000000E-03 0.  1.
    9900012    2    1    2    0    0  0.39943602353E+02  0.28775695289E+01 -0.70280159941E+01  0.50528870839E+02  0.30000033403E+02 0.  0.
        -12    1    1    2    0    0 -0.39943602353E+02 -0.28775695289E+01  0.70280159941E+01  0.40659129161E+02  0.00000000000E+00 0.  1.
         11    1    3    3    0    0  0.18130024997E+02  0.70251174995E+01 -0.82539218684E+01  0.21122909571E+02  0.51100000000E-03 0. -1.
        -11    1    3    3    0    0  0.24712517983E+02 -0.19436751361E+01 -0.15346935776E+01  0.24836298089E+02  0.51100000000E-03 0.  1.
        -12    1    3    3    0    0 -0.28989406281E+01 -0.22038728345E+01  0.27605994519E+01  0.45696631791E+01  0.00000000000E+00 0.  1.
</event>
<event>
 7    1  0.2835316E-011  0.5052884E+02  0.7816164E-02  0.1300439E+00
        -11   -1    0    0    0    0  0.00000000000E+00  0.00000000000E+00  0.45593999997E+02  0.45594000000E+02  0.51100000000E-03 0.  1.
         11   -1    0    0    0    0 -0.00000000000E+00 -0.00000000000E+00 -0.45593999997E+02  0.45594000000E+02  0.51100000000E-03 0. -1.
    9900012    2    1    2    0    0 -0.21414980414E+02  0.33663617215E+02  0.78311208078E+01  0.50528844042E+02  0.29999951950E+02 0.  0.
        -12    1    1    2    0    0  0.21414980414E+02 -0.33663617215E+02 -0.78311208078E+01  0.40659155958E+02  0.00000000000E+00 0.  1.
         11    1    3    3    0    0 -0.18035963731E+02  0.15981120872E+02  0.51733878680E-01  0.24097611680E+02  0.51100000000E-03 0. -1.
        -11    1    3    3    0    0 -0.59525915947E+01 -0.16901362475E+00  0.57558407569E+01  0.82820055167E+01  0.51100000000E-03 0.  1.
         12    1    3    3    0    0  0.25735749124E+01  0.17851509968E+02  0.20235461722E+01  0.18149226845E+02  0.00000000000E+00 0. -1.
</event>
<event>
 7    1  0.2835316E-011  0.5052886E+02  0.7816164E-02  0.1300439E+00
        -11   -1    0    0    0    0  0.00000000000E+00  0.00000000000E+00  0.45593999997E+02  0.45594000000E+02  0.51100000000E-03 0. -1.
         11   -1    0    0    0    0 -0.00000000000E+00 -0.00000000000E+00 -0.45593999997E+02  0.45594000000E+02  0.51100000000E-03 0.  1.
    9900012    2    1    2    0    0  0.19995605106E+02 -0.10812020493E+02  0.33711153718E+02  0.50528857170E+02  0.29999991854E+02 0.  0.
        -12    1    1    2    0    0 -0.19995605106E+02  0.10812020493E+02 -0.33711153718E+02  0.40659142830E+02  0.00000000000E+00 0.  1.
         11    1    3    3    0    0  0.23033061662E+02 -0.11701310247E+02  0.22607057985E+02  0.34329603289E+02  0.51100000000E-03 0. -1.
        -11    1    3    3    0    0  0.11505221140E+01 -0.26864217570E+00 -0.20389829394E+01  0.23565486292E+01  0.51100000000E-03 0.  1.
        -12    1    3    3    0    0 -0.41879786703E+01  0.11579319297E+01  0.13143078672E+02  0.13842705251E+02  0.00000000000E+00 0.  1.
</event>
<event>
 7    1  0.2835316E-011  0.5052885E+02  0.7816164E-02  0.1300439E+00
        -11   -1    0    0    0    0  0.00000000000E+00  0.00000000000E+00  0.45593999997E+02  0.45594000000E+02  0.51100000000E-03 0.  1.
         11   -1    0    0    0    0 -0.00000000000E+00 -0.00000000000E+00 -0.45593999997E+02  0.45594000000E+02  0.51100000000E-03 0. -1.
    9900012    2    1    2    0    0  0.14357264961E+02  0.13707992948E+02  0.35484174637E+02  0.50528846326E+02  0.29999958892E+02 0.  0.
        -12    1    1    2    0    0 -0.14357264961E+02 -0.13707992948E+02 -0.35484174637E+02  0.40659153674E+02  0.00000000000E+00 0.  1.
         11    1    3    3    0    0  0.45814286673E+01 -0.69850033858E+00 -0.15929031121E+01  0.49004828274E+01  0.51100000000E-03 0. -1.
        -11    1    3    3    0    0  0.10650822706E+02 -0.14128687549E+01  0.14498127388E+02  0.18045274186E+02  0.51100000000E-03 0.  1.
        -12    1    3    3    0    0 -0.87498641154E+00  0.15819362041E+02  0.22578950361E+02  0.27583089312E+02  0.00000000000E+00 0.  1.
</event>
<event>
 7    1  0.2835316E-011  0.5052886E+02  0.7816164E-02  0.1300439E+00
        -11   -1    0    0    0    0  0.00000000000E+00  0.00000000000E+00  0.45593999997E+02  0.45594000000E+02  0.51100000000E-03 0.  1.
         11   -1    0    0    0    0 -0.00000000000E+00 -0.00000000000E+00 -0.45593999997E+02  0.45594000000E+02  0.51100000000E-03 0. -1.
    9900012    2    1    2    0    0 -0.38297958868E+02  0.89811494158E+01 -0.10284500700E+02  0.50528860155E+02  0.30000000926E+02 0.  0.
        -12    1    1    2    0    0  0.38297958868E+02 -0.89811494158E+01  0.10284500700E+02  0.40659139845E+02  0.00000000000E+00 0.  1.
         11    1    3    3    0    0 -0.81347777223E+01 -0.37003628423E+01 -0.10862515942E+02  0.14066326692E+02  0.51100000000E-03 0. -1.
        -11    1    3    3    0    0 -0.24521307939E+02  0.24779228458E+01 -0.11637671058E+01  0.24673649888E+02  0.51100000000E-03 0.  1.
        -12    1    3    3    0    0 -0.56418732076E+01  0.10203589412E+02  0.17417823478E+01  0.11788883574E+02  0.00000000000E+00 0.  1.
</event>
<event>
 7    1  0.2835316E-011  0.5052886E+02  0.7816164E-02  0.1300439E+00
        -11   -1    0    0    0    0  0.00000000000E+00  0.00000000000E+00  0.45593999997E+02  0.45594000000E+02  0.51100000000E-03 0.  1.
         11   -1    0    0    0    0 -0.00000000000E+00 -0.00000000000E+00 -0.45593999997E+02  0.45594000000E+02  0.51100000000E-03 0. -1.
    9900012    2    1    2    0    0  0.11063980831E+02 -0.37842519870E+02 -0.99346585537E+01  0.50528862988E+02  0.30000009539E+02 0.  0.
        -12    1    1    2    0    0 -0.11063980831E+02  0.37842519870E+02  0.99346585537E+01  0.40659137012E+02  0.00000000000E+00 0.  1.
         11    1    3    3    0    0  0.10511389987E+02 -0.26148709057E+01 -0.14029073366E+00  0.10832661310E+02  0.51100000000E-03 0. -1.
        -11    1    3    3    0    0 -0.36670636767E+01 -0.42082892961E+01 -0.59460150924E+01  0.81554981791E+01  0.51100000000E-03 0.  1.
        -12    1    3    3    0    0  0.42196545211E+01 -0.31019359668E+02 -0.38483527276E+01  0.31540703499E+02  0.00000000000E+00 0.  1.
</event>
<event>
 7    1  0.2835316E-011  0.5052887E+02  0.7816164E-02  0.1300439E+00
        -11   -1    0    0    0    0  0.00000000000E+00  0.00000000000E+00  0.45593999997E+02  0.45594000000E+02  0.51100000000E-03 0.  1.
         11   -1    0    0    0    0 -0.00000000000E+00 -0.00000000000E+00 -0.45593999997E+02  0.45594000000E+02  0.51100000000E-03 0. -1.
    9900012    2    1    2    0    0 -0.15990801786E+02  0.35379906822E+02  0.12071503117E+02  0.50528871431E+02  0.30000035200E+02 0.  0.
        -12    1    1    2    0    0  0.15990801786E+02 -0.35379906822E+02 -0.12071503117E+02  0.40659128569E+02  0.00000000000E+00 0.  1.
         11    1    3    3    0    0 -0.81896399618E+01  0.17039178819E+02  0.90880260498E+01  0.20976082457E+02  0.51100000000E-03 0. -1.
        -11    1    3    3    0    0 -0.67315053080E+01  0.20651874693E+02  0.86188222027E+01  0.23368722440E+02  0.51100000000E-03 0.  1.
         12    1    3    3    0    0 -0.10696565164E+01 -0.23111466895E+01 -0.56353451360E+01  0.61840665331E+01  0.00000000000E+00 0. -1.
</event>
<event>
 7    1  0.2835316E-011  0.5052886E+02  0.7816164E-02  0.1300439E+00
        -11   -1    0    0    0    0  0.00000000000E+00  0.00000000000E+00  0.45593999997E+02  0.45594000000E+02  0.51100000000E-03 0.  1.
         11   -1    0    0    0    0 -0.00000000000E+00 -0.00000000000E+00 -0.45593999997E+02  0.45594000000E+02  0.51100000000E-03 0. -1.
    9900012    2    1    2    0    0 -0.21994542211E+02 -0.16152954526E+02 -0.30141136092E+02  0.50528856970E+02  0.29999991246E+02 0.  0.
        -12    1    1    2    0    0  0.21994542211E+02  0.16152954526E+02  0.30141136092E+02  0.40659143030E+02  0.00000000000E+00 0.  1.
         11    1    3    3    0    0  0.19378266298E+01  0.15829130341E+01  0.12435546086E+01  0.27941392317E+01  0.51100000000E-03 0.  1.
        -11    1    3    3    0    0 -0.99132083117E+01 -0.94313381349E+01 -0.15892569035E+01  0.13774889321E+02  0.51100000000E-03 0. -1.
         12    1    3    3    0    0 -0.14019160529E+02 -0.83045294255E+01 -0.29795433797E+02  0.33959828417E+02  0.00000000000E+00 0. -1.
</event>
<event>
 7    1  0.2835316E-011  0.5052885E+02  0.7816164E-02  0.1300439E+00
        -11   -1    0    0    0    0  0.00000000000E+00  0.00000000000E+00  0.45593999997E+02  0.45594000000E+02  0.51100000000E-03 0.  1.
         11   -1    0    0    0    0 -0.00000000000E+00 -0.00000000000E+00 -0.45593999997E+02  0.45594000000E+02  0.51100000000E-03 0. -1.
    9900012    2    1    2    0    0 -0.12492159196E+02 -0.32987826565E+01 -0.38551661353E+02  0.50528848491E+02  0.29999965473E+02 0.  0.
        -12    1    1    2    0    0  0.12492159196E+02  0.32987826565E+01  0.38551661353E+02  0.40659151509E+02  0.00000000000E+00 0.  1.
         11    1    3    3    0    0 -0.54677162154E+01 -0.56699068599E+00 -0.15382109966E+02  0.16334831077E+02  0.51100000000E-03 0. -1.
        -11    1    3    3    0    0 -0.18640771133E+01  0.79441380719E+01  0.73719195347E-02  0.81599122419E+01  0.51100000000E-03 0.  1.
         12    1    3    3    0    0 -0.51603658668E+01 -0.10675930042E+02 -0.23176923306E+02  0.26034105172E+02  0.00000000000E+00 0. -1.
</event>
<event>
 7    1  0.2835316E-011  0.5052886E+02  0.7816164E-02  0.1300439E+00
        -11   -1    0    0    0    0  0.00000000000E+00  0.00000000000E+00  0.45593999997E+02  0.45594000000E+02  0.51100000000E-03 0.  1.
         11   -1    0    0    0    0 -0.00000000000E+00 -0.00000000000E+00 -0.45593999997E+02  0.45594000000E+02  0.51100000000E-03 0. -1.
    9900012    2    1    2    0    0  0.26371506912E+02  0.14236874189E+02 -0.27477638456E+02  0.50528861069E+02  0.30000003705E+02 0.  0.
        -12    1    1    2    0    0 -0.26371506912E+02 -0.14236874189E+02  0.27477638456E+02  0.40659138931E+02  0.00000000000E+00 0.  1.
         11    1    3    3    0    0  0.10818140720E+02  0.85415728272E+00 -0.48167090860E+01  0.11872760420E+02  0.51100000000E-03 0. -1.
        -11    1    3    3    0    0  0.13311340202E+01  0.39045889461E+00  0.48651969660E+01  0.50591024606E+01  0.51100000000E-03 0.  1.
         12    1    3    3    0    0  0.14222232172E+02  0.12992258012E+02 -0.27526126336E+02  0.33596998188E+02  0.00000000000E+00 0. -1.
</event>
<event>
 7    1  0.2835316E-011  0.5052885E+02  0.7816164E-02  0.1300439E+00
        -11   -1    0    0    0    0  0.00000000000E+00  0.00000000000E+00  0.45593999997E+02  0.45594000000E+02  0.51100000000E-03 0. -1.
         11   -1    0    0    0    0 -0.00000000000E+00 -0.00000000000E+00 -0.45593999997E+02  0.45594000000E+02  0.51100000000E-03 0.  1.
    9900012    2    1    2    0    0  0.37844974020E+02  0.13870039808E+02  0.53428929681E+01  0.50528848901E+02  0.29999966719E+02 0.  0.
        -12    1    1    2    0    0 -0.37844974020E+02 -0.13870039808E+02 -0.53428929681E+01  0.40659151099E+02  0.00000000000E+00 0.  1.
         11    1    3    3    0    0  0.23041007333E+02  0.61739082564E+01  0.13754439961E+02  0.27535246158E+02  0.51100000000E-03 0. -1.
        -11    1    3    3    0    0 -0.20584691686E+01  0.33162769018E+01 -0.81445584393E+00  0.39872705439E+01  0.51100000000E-03 0.  1.
        -12    1    3    3    0    0  0.16862435856E+02  0.43798546496E+01 -0.75970911488E+01  0.19006332199E+02  0.00000000000E+00 0.  1.
</event>
<event>
 7    1  0.2835316E-011  0.5052886E+02  0.7816164E-02  0.1300439E+00
        -11   -1    0    0    0    0  0.00000000000E+00  0.00000000000E+00  0.45593999997E+02  0.45594000000E+02  0.51100000000E-03 0.  1.
         11   -1    0    0    0    0 -0.00000000000E+00 -0.00000000000E+00 -0.45593999997E+02  0.45594000000E+02  0.51100000000E-03 0. -1.
    9900012    2    1    2    0    0 -0.62105113932E+01  0.13305600926E+02 -0.37915120469E+02  0.50528858003E+02  0.29999994385E+02 0.  0.
        -12    1    1    2    0    0  0.62105113932E+01 -0.13305600926E+02  0.37915120469E+02  0.40659141997E+02  0.00000000000E+00 0.  1.
         11    1    3    3    0    0 -0.78887112246E+01  0.12484472824E+02 -0.14957499050E+02  0.21019529124E+02  0.51100000000E-03 0. -1.
        -11    1    3    3    0    0 -0.60139914900E+01 -0.43674061024E+01 -0.40896554128E+01  0.84833726408E+01  0.51100000000E-03 0.  1.
         12    1    3    3    0    0  0.76921913214E+01  0.51885342038E+01 -0.18867966006E+02  0.21025956238E+02  0.00000000000E+00 0. -1.
</event>
<event>
 7    1  0.2835316E-011  0.5052886E+02  0.7816164E-02  0.1300439E+00
        -11   -1    0    0    0    0  0.00000000000E+00  0.00000000000E+00  0.45593999997E+02  0.45594000000E+02  0.51100000000E-03 0. -1.
         11   -1    0    0    0    0 -0.00000000000E+00 -0.00000000000E+00 -0.45593999997E+02  0.45594000000E+02  0.51100000000E-03 0.  1.
    9900012    2    1    2    0    0  0.35133734104E+02  0.20056999211E+02  0.40623735595E+01  0.50528863654E+02  0.30000011564E+02 0.  0.
        -12    1    1    2    0    0 -0.35133734104E+02 -0.20056999211E+02 -0.40623735595E+01  0.40659136346E+02  0.00000000000E+00 0.  1.
         11    1    3    3    0    0  0.74127284540E+00 -0.38524159417E+01  0.22911155802E+01  0.45431052026E+01  0.51100000000E-03 0. -1.
        -11    1    3    3    0    0  0.97159438914E+00  0.91043720712E+01  0.22533845145E+01  0.94292803808E+01  0.51100000000E-03 0.  1.
         12    1    3    3    0    0  0.33420866870E+02  0.14805043081E+02 -0.48212653510E+00  0.36556478071E+02  0.00000000000E+00 0. -1.
</event>
<event>
 7    1  0.2835316E-011  0.5052886E+02  0.7816164E-02  0.1300439E+00
        -11   -1    0    0    0    0  0.00000000000E+00  0.00000000000E+00  0.45593999997E+02  0.45594000000E+02  0.51100000000E-03 0. -1.
         11   -1    0    0    0    0 -0.00000000000E+00 -0.00000000000E+00 -0.45593999997E+02  0.45594000000E+02  0.51100000000E-03 0.  1.
    9900012    2    1    2    0    0 -0.94097517594E+01 -0.25312230475E+02  0.30395936689E+02  0.50528863179E+02  0.30000010120E+02 0.  0.
        -12    1    1    2    0    0  0.94097517594E+01  0.25312230475E+02 -0.30395936689E+02  0.40659136821E+02  0.00000000000E+00 0.  1.
         11    1    3    3    0    0 -0.56319880538E-01 -0.56640249759E+01  0.18363826876E+02  0.19217556781E+02  0.51100000000E-03 0. -1.
        -11    1    3    3    0    0 -0.41965321296E+00  0.37751698666E+01  0.21495781773E+01  0.43644819787E+01  0.51100000000E-03 0.  1.
         12    1    3    3    0    0 -0.89337786659E+01 -0.23423375365E+02  0.98825316361E+01  0.26946824419E+02  0.00000000000E+00 0. -1.
</event>
<event>
 7    1  0.2835316E-011  0.5052887E+02  0.7816164E-02  0.1300439E+00
        -11   -1    0    0    0    0  0.00000000000E+00  0.00000000000E+00  0.45593999997E+02  0.45594000000E+02  0.51100000000E-03 0. -1.
         11   -1    0    0    0    0 -0.00000000000E+00 -0.00000000000E+00 -0.45593999997E+02  0.45594000000E+02  0.51100000000E-03 0.  1.
    9900012    2    1    2    0    0  0.11808419339E+02  0.24036405942E+02  0.30593748651E+02  0.50528867761E+02  0.30000024047E+02 0.  0.
        -12    1    1    2    0    0 -0.11808419339E+02 -0.24036405942E+02 -0.30593748651E+02  0.40659132239E+02  0.00000000000E+00 0.  1.
         11    1    3    3    0    0  0.43179287109E+01  0.18957729545E+02  0.10236534813E+02  0.21973317071E+02  0.51100000000E-03 0. -1.
        -11    1    3    3    0    0  0.41245231132E+01  0.23882913040E+01 -0.24402118763E+01  0.53544617402E+01  0.51100000000E-03 0.  1.
         12    1    3    3    0    0  0.33659675146E+01  0.26903850929E+01  0.22797425714E+02  0.23201088950E+02  0.00000000000E+00 0. -1.
</event>
<event>
 7    1  0.2835316E-011  0.5052887E+02  0.7816164E-02  0.1300439E+00
        -11   -1    0    0    0    0  0.00000000000E+00  0.00000000000E+00  0.45593999997E+02  0.45594000000E+02  0.51100000000E-03 0.  1.
         11   -1    0    0    0    0 -0.00000000000E+00 -0.00000000000E+00 -0.45593999997E+02  0.45594000000E+02  0.51100000000E-03 0. -1.
    9900012    2    1    2    0    0 -0.21376884507E+02  0.21572742305E+02 -0.27033513059E+02  0.50528865355E+02  0.30000016733E+02 0.  0.
        -12    1    1    2    0    0  0.21376884507E+02 -0.21572742305E+02  0.27033513059E+02  0.40659134645E+02  0.00000000000E+00 0.  1.
         11    1    3    3    0    0  0.39832585708E+01 -0.16283872644E+01 -0.86767227012E+01  0.96852212685E+01  0.51100000000E-03 0. -1.
        -11    1    3    3    0    0 -0.15973940114E+01  0.99799249835E+00  0.17809257581E+01  0.25921715745E+01  0.51100000000E-03 0.  1.
        -12    1    3    3    0    0 -0.23762749066E+02  0.22203137071E+02 -0.20137716116E+02  0.38251472512E+02  0.00000000000E+00 0.  1.
</event>
<event>
 7    1  0.2835316E-011  0.5052881E+02  0.7816164E-02  0.1300439E+00
        -11   -1    0    0    0    0  0.00000000000E+00  0.00000000000E+00  0.45593999997E+02  0.45594000000E+02  0.51100000000E-03 0.  1.
         11   -1    0    0    0    0 -0.00000000000E+00 -0.00000000000E+00 -0.45593999997E+02  0.45594000000E+02  0.51100000000E-03 0. -1.
    9900012    2    1    2    0    0  0.23476274297E+02 -0.30909344794E+02 -0.12109780345E+02  0.50528808782E+02  0.29999844775E+02 0.  0.
        -12    1    1    2    0    0 -0.23476274297E+02  0.30909344794E+02  0.12109780345E+02  0.40659191218E+02  0.00000000000E+00 0.  1.
         11    1    3    3    0    0  0.11962136876E+02 -0.72134618638E+01 -0.59661850146E+01  0.15189539644E+02  0.51100000000E-03 0. -1.
        -11    1    3    3    0    0  0.16036323793E+02 -0.17588650841E+02  0.23794265667E+01  0.23920409492E+02  0.51100000000E-03 0.  1.
         12    1    3    3    0    0 -0.45221863719E+01 -0.61072320883E+01 -0.85230218976E+01  0.11418859647E+02  0.00000000000E+00 0. -1.
</event>
<event>
 7    1  0.2835316E-011  0.5052886E+02  0.7816164E-02  0.1300439E+00
        -11   -1    0    0    0    0  0.00000000000E+00  0.00000000000E+00  0.45593999997E+02  0.45594000000E+02  0.51100000000E-03 0. -1.
         11   -1    0    0    0    0 -0.00000000000E+00 -0.00000000000E+00 -0.45593999997E+02  0.45594000000E+02  0.51100000000E-03 0.  1.
    9900012    2    1    2    0    0  0.14847263013E+02  0.28962135443E+02  0.24370463434E+02  0.50528855931E+02  0.29999988089E+02 0.  0.
        -12    1    1    2    0    0 -0.14847263013E+02 -0.28962135443E+02 -0.24370463434E+02  0.40659144069E+02  0.00000000000E+00 0.  1.
         11    1    3    3    0    0  0.14014517412E+01  0.16996048515E+02  0.18734432387E+02  0.25333943421E+02  0.51100000000E-03 0. -1.
        -11    1    3    3    0    0 -0.40120427597E+00  0.10210993864E+02  0.21438651960E+00  0.10221121387E+02  0.51100000000E-03 0.  1.
         12    1    3    3    0    0  0.13847015548E+02  0.17550930634E+01  0.54216445275E+01  0.14973791124E+02  0.00000000000E+00 0. -1.
</event>
<event>
 7    1  0.2835316E-011  0.5052886E+02  0.7816164E-02  0.1300439E+00
        -11   -1    0    0    0    0  0.00000000000E+00  0.00000000000E+00  0.45593999997E+02  0.45594000000E+02  0.51100000000E-03 0. -1.
         11   -1    0    0    0    0 -0.00000000000E+00 -0.00000000000E+00 -0.45593999997E+02  0.45594000000E+02  0.51100000000E-03 0.  1.
    9900012    2    1    2    0    0 -0.28429911502E+02  0.28531317377E+02  0.55560529766E+01  0.50528860020E+02  0.30000000516E+02 0.  0.
        -12    1    1    2    0    0  0.28429911502E+02 -0.28531317377E+02 -0.55560529766E+01  0.40659139980E+02  0.00000000000E+00 0.  1.
         11    1    3    3    0    0 -0.38211533138E+01  0.71203129407E+01  0.42319301131E+01  0.91219132732E+01  0.51100000000E-03 0. -1.
        -11    1    3    3    0    0 -0.52861157736E+01  0.19099293697E+02 -0.58555868815E+01  0.20664315563E+02  0.51100000000E-03 0.  1.
        -12    1    3    3    0    0 -0.19322642414E+02  0.23117107398E+01  0.71797097450E+01  0.20742631184E+02  0.00000000000E+00 0.  1.
</event>
<event>
 7    1  0.2835316E-011  0.5052887E+02  0.7816164E-02  0.1300439E+00
        -11   -1    0    0    0    0  0.00000000000E+00  0.00000000000E+00  0.45593999997E+02  0.45594000000E+02  0.51100000000E-03 0. -1.
         11   -1    0    0    0    0 -0.00000000000E+00 -0.00000000000E+00 -0.45593999997E+02  0.45594000000E+02  0.51100000000E-03 0.  1.
    9900012    2    1    2    0    0 -0.23249284298E+01  0.38495612218E+02  0.12878161236E+02  0.50528874467E+02  0.30000044430E+02 0.  0.
        -12    1    1    2    0    0  0.23249284298E+01 -0.38495612218E+02 -0.12878161236E+02  0.40659125533E+02  0.00000000000E+00 0.  1.
         11    1    3    3    0    0  0.41254068565E+01  0.30403085300E+02  0.22528113116E+01  0.30764293208E+02  0.51100000000E-03 0. -1.
        -11    1    3    3    0    0 -0.14868164954E+01  0.22097382196E+01 -0.30639871601E+01  0.40597517004E+01  0.51100000000E-03 0.  1.
        -12    1    3    3    0    0 -0.49635187909E+01  0.58827886985E+01  0.13689337085E+02  0.15704829559E+02  0.00000000000E+00 0.  1.
</event>
<event>
 7    1  0.2835316E-011  0.5052886E+02  0.7816164E-02  0.1300439E+00
        -11   -1    0    0    0    0  0.00000000000E+00  0.00000000000E+00  0.45593999997E+02  0.45594000000E+02  0.51100000000E-03 0. -1.
         11   -1    0    0    0    0 -0.00000000000E+00 -0.00000000000E+00 -0.45593999997E+02  0.45594000000E+02  0.51100000000E-03 0.  1.
    9900012    2    1    2    0    0  0.20613468364E+02  0.34617417367E+02  0.54667227315E+01  0.50528859323E+02  0.29999998398E+02 0.  0.
        -12    1    1    2    0    0 -0.20613468364E+02 -0.34617417367E+02 -0.54667227315E+01  0.40659140677E+02  0.00000000000E+00 0.  1.
         11    1    3    3    0    0 -0.29020847572E+00  0.10595565890E+02  0.58271782432E+01  0.12095711803E+02  0.51100000000E-03 0.  1.
        -11    1    3    3    0    0 -0.20104438830E+01  0.35675708239E+01  0.58060266514E+01  0.71048850750E+01  0.51100000000E-03 0. -1.
         12    1    3    3    0    0  0.22914120723E+02  0.20454280653E+02 -0.61664821631E+01  0.31328262445E+02  0.00000000000E+00 0. -1.
</event>
<event>
 7    1  0.2835316E-011  0.5052888E+02  0.7816164E-02  0.1300439E+00
        -11   -1    0    0    0    0  0.00000000000E+00  0.00000000000E+00  0.45593999997E+02  0.45594000000E+02  0.51100000000E-03 0.  1.
         11   -1    0    0    0    0 -0.00000000000E+00 -0.00000000000E+00 -0.45593999997E+02  0.45594000000E+02  0.51100000000E-03 0. -1.
    9900012    2    1    2    0    0 -0.21531887039E+02 -0.93349474095E+01 -0.33202421707E+02  0.50528877902E+02  0.30000054870E+02 0.  0.
        -12    1    1    2    0    0  0.21531887039E+02  0.93349474095E+01  0.33202421707E+02  0.40659122098E+02  0.00000000000E+00 0.  1.
         11    1    3    3    0    0 -0.63358746003E+00 -0.10633053841E+02 -0.13988185899E+02  0.17582167445E+02  0.51100000000E-03 0. -1.
        -11    1    3    3    0    0 -0.68923989571E+01 -0.53695901814E+01 -0.65953935466E+00  0.87620006004E+01  0.51100000000E-03 0.  1.
         12    1    3    3    0    0 -0.14005900622E+02  0.66676966129E+01 -0.18554696453E+02  0.24184709856E+02  0.00000000000E+00 0. -1.
</event>
<event>
 7    1  0.2835316E-011  0.5052885E+02  0.7816164E-02  0.1300439E+00
        -11   -1    0    0    0    0  0.00000000000E+00  0.00000000000E+00  0.45593999997E+02  0.45594000000E+02  0.51100000000E-03 0.  1.
         11   -1    0    0    0    0 -0.00000000000E+00 -0.00000000000E+00 -0.45593999997E+02  0.45594000000E+02  0.51100000000E-03 0. -1.
    9900012    2    1    2    0    0 -0.98481073934E+01 -0.10536409079E+02 -0.38015325383E+02  0.50528854664E+02  0.29999984236E+02 0.  0.
        -12    1    1    2    0    0  0.98481073934E+01  0.10536409079E+02  0.38015325383E+02  0.40659145336E+02  0.00000000000E+00 0.  1.
         11    1    3    3    0    0  0.53626493501E+01  0.28951610933E+01 -0.23069985596E+02  0.23861353723E+02  0.51100000000E-03 0. -1.
        -11    1    3    3    0    0 -0.29437230547E+00  0.11703848943E+01 -0.95405714698E+00  0.15384021437E+01  0.51100000000E-03 0.  1.
        -12    1    3    3    0    0 -0.14916384438E+02 -0.14601955066E+02 -0.13991282640E+02  0.25129098797E+02  0.00000000000E+00 0.  1.
</event>
<event>
 7    1  0.2835316E-011  0.5052886E+02  0.7816164E-02  0.1300439E+00
        -11   -1    0    0    0    0  0.00000000000E+00  0.00000000000E+00  0.45593999997E+02  0.45594000000E+02  0.51100000000E-03 0.  1.
         11   -1    0    0    0    0 -0.00000000000E+00 -0.00000000000E+00 -0.45593999997E+02  0.45594000000E+02  0.51100000000E-03 0. -1.
    9900012    2    1    2    0    0  0.23662741442E+02 -0.31200578638E+02 -0.10943685635E+02  0.50528859636E+02  0.29999999349E+02 0.  0.
        -12    1    1    2    0    0 -0.23662741442E+02  0.31200578638E+02  0.10943685635E+02  0.40659140364E+02  0.00000000000E+00 0.  1.
         11    1    3    3    0    0  0.17053135914E+01 -0.44582906587E+01 -0.61923051081E+01  0.78185096313E+01  0.51100000000E-03 0. -1.
        -11    1    3    3    0    0  0.18608791454E+02 -0.11350093244E+02  0.71803753852E+01  0.22949281621E+02  0.51100000000E-03 0.  1.
        -12    1    3    3    0    0  0.33486363964E+01 -0.15392194736E+02 -0.11931755912E+02  0.19761068383E+02  0.00000000000E+00 0.  1.
</event>
<event>
 7    1  0.2835316E-011  0.5052886E+02  0.7816164E-02  0.1300439E+00
        -11   -1    0    0    0    0  0.00000000000E+00  0.00000000000E+00  0.45593999997E+02  0.45594000000E+02  0.51100000000E-03 0. -1.
         11   -1    0    0    0    0 -0.00000000000E+00 -0.00000000000E+00 -0.45593999997E+02  0.45594000000E+02  0.51100000000E-03 0.  1.
    9900012    2    1    2    0    0 -0.15837259517E+02 -0.17471860895E+02  0.33122211641E+02  0.50528860608E+02  0.30000002304E+02 0.  0.
        -12    1    1    2    0    0  0.15837259517E+02  0.17471860895E+02 -0.33122211641E+02  0.40659139392E+02  0.00000000000E+00 0.  1.
         11    1    3    3    0    0  0.36631763307E+00  0.64193350007E+00  0.18312439824E+02  0.18327348957E+02  0.51100000000E-03 0. -1.
        -11    1    3    3    0    0 -0.51097180193E+01 -0.50288003801E+00  0.93763920468E+01  0.10690127906E+02  0.51100000000E-03 0.  1.
        -12    1    3    3    0    0 -0.11093859131E+02 -0.17610914357E+02  0.54333797702E+01  0.21511383745E+02  0.00000000000E+00 0.  1.
</event>
<event>
 7    1  0.2835316E-011  0.5052887E+02  0.7816164E-02  0.1300439E+00
        -11   -1    0    0    0    0  0.00000000000E+00  0.00000000000E+00  0.45593999997E+02  0.45594000000E+02  0.51100000000E-03 0. -1.
         11   -1    0    0    0    0 -0.00000000000E+00 -0.00000000000E+00 -0.45593999997E+02  0.45594000000E+02  0.51100000000E-03 0.  1.
    9900012    2    1    2    0    0 -0.12997590444E+02 -0.42837689901E+01  0.38286773197E+02  0.50528867742E+02  0.30000023988E+02 0.  0.
        -12    1    1    2    0    0  0.12997590444E+02  0.42837689901E+01 -0.38286773197E+02  0.40659132258E+02  0.00000000000E+00 0.  1.
         11    1    3    3    0    0 -0.88605799427E+01 -0.90840797328E+01  0.69785636331E+01  0.14482083143E+02  0.51100000000E-03 0. -1.
        -11    1    3    3    0    0  0.54518592224E+01 -0.18148682960E+01  0.67415984083E+01  0.88580847406E+01  0.51100000000E-03 0.  1.
        -12    1    3    3    0    0 -0.95888697238E+01  0.66151790387E+01  0.24566611156E+02  0.27188699858E+02  0.00000000000E+00 0.  1.
</event>
<event>
 7    1  0.2835316E-011  0.5052888E+02  0.7816164E-02  0.1300439E+00
        -11   -1    0    0    0    0  0.00000000000E+00  0.00000000000E+00  0.45593999997E+02  0.45594000000E+02  0.51100000000E-03 0. -1.
         11   -1    0    0    0    0 -0.00000000000E+00 -0.00000000000E+00 -0.45593999997E+02  0.45594000000E+02  0.51100000000E-03 0.  1.
    9900012    2    1    2    0    0  0.29415029816E+01  0.28428250723E+02  0.28919649925E+02  0.50528880103E+02  0.30000061562E+02 0.  0.
        -12    1    1    2    0    0 -0.29415029816E+01 -0.28428250723E+02 -0.28919649925E+02  0.40659119897E+02  0.00000000000E+00 0.  1.
         11    1    3    3    0    0  0.89749350552E+01  0.14251752113E+02  0.18273219922E+02  0.24851005294E+02  0.51100000000E-03 0. -1.
        -11    1    3    3    0    0  0.40404741530E+01  0.92811409371E+00 -0.21628242156E+01  0.46759636441E+01  0.51100000000E-03 0.  1.
         12    1    3    3    0    0 -0.10073906227E+02  0.13248384516E+02  0.12809254219E+02  0.21001911165E+02  0.00000000000E+00 0. -1.
</event>
<event>
 7    1  0.2835316E-011  0.5052885E+02  0.7816164E-02  0.1300439E+00
        -11   -1    0    0    0    0  0.00000000000E+00  0.00000000000E+00  0.45593999997E+02  0.45594000000E+02  0.51100000000E-03 0.  1.
         11   -1    0    0    0    0 -0.00000000000E+00 -0.00000000000E+00 -0.45593999997E+02  0.45594000000E+02  0.51100000000E-03 0. -1.
    9900012    2    1    2    0    0  0.16808151805E+02 -0.24147688899E+02 -0.28063170175E+02  0.50528851380E+02  0.29999974253E+02 0.  0.
        -12    1    1    2    0    0 -0.16808151805E+02  0.24147688899E+02  0.28063170175E+02  0.40659148620E+02  0.00000000000E+00 0.  1.
         11    1    3    3    0    0  0.20213137033E+02 -0.24768463720E+02 -0.24277517523E+02  0.40142814564E+02  0.51100000000E-03 0. -1.
        -11    1    3    3    0    0  0.20620094010E+01 -0.26017841782E+01 -0.14691155881E+01  0.36303532269E+01  0.51100000000E-03 0.  1.
        -12    1    3    3    0    0 -0.54669946297E+01  0.32225589991E+01 -0.23165370645E+01  0.67556835890E+01  0.00000000000E+00 0.  1.
</event>
<event>
 7    1  0.2835316E-011  0.5052886E+02  0.7816164E-02  0.1300439E+00
        -11   -1    0    0    0    0  0.00000000000E+00  0.00000000000E+00  0.45593999997E+02  0.45594000000E+02  0.51100000000E-03 0.  1.
         11   -1    0    0    0    0 -0.00000000000E+00 -0.00000000000E+00 -0.45593999997E+02  0.45594000000E+02  0.51100000000E-03 0. -1.
    9900012    2    1    2    0    0  0.31561101470E+02 -0.50629899683E+01 -0.25128239573E+02  0.50528863051E+02  0.30000009730E+02 0.  0.
        -12    1    1    2    0    0 -0.31561101470E+02  0.50629899683E+01  0.25128239573E+02  0.40659136949E+02  0.00000000000E+00 0.  1.
         11    1    3    3    0    0  0.69863276557E+01 -0.70568781180E+01 -0.19443165833E+01  0.10118728681E+02  0.51100000000E-03 0. -1.
        -11    1    3    3    0    0  0.12566703836E+01 -0.30880012600E+01  0.33474019840E+01  0.47244124014E+01  0.51100000000E-03 0.  1.
        -12    1    3    3    0    0  0.23318103431E+02  0.50818894097E+01 -0.26531324973E+02  0.35685721969E+02  0.00000000000E+00 0.  1.
</event>
<event>
 7    1  0.2835316E-011  0.5052887E+02  0.7816164E-02  0.1300439E+00
        -11   -1    0    0    0    0  0.00000000000E+00  0.00000000000E+00  0.45593999997E+02  0.45594000000E+02  0.51100000000E-03 0.  1.
         11   -1    0    0    0    0 -0.00000000000E+00 -0.00000000000E+00 -0.45593999997E+02  0.45594000000E+02  0.51100000000E-03 0. -1.
    9900012    2    1    2    0    0 -0.25630506015E+02 -0.10631200452E+02 -0.29719017260E+02  0.50528865128E+02  0.30000016043E+02 0.  0.
        -12    1    1    2    0    0  0.25630506015E+02  0.10631200452E+02  0.29719017260E+02  0.40659134872E+02  0.00000000000E+00 0.  1.
         11    1    3    3    0    0 -0.19454770140E+02  0.57783348069E+01 -0.15104709770E+02  0.25298804158E+02  0.51100000000E-03 0. -1.
        -11    1    3    3    0    0 -0.49731586336E+01 -0.47460780876E+01 -0.51696204701E+00  0.68938243397E+01  0.51100000000E-03 0.  1.
        -12    1    3    3    0    0 -0.12025772410E+01 -0.11663457171E+02 -0.14097345443E+02  0.18336236630E+02  0.00000000000E+00 0.  1.
</event>
<event>
 7    1  0.2835316E-011  0.5052882E+02  0.7816164E-02  0.1300439E+00
        -11   -1    0    0    0    0  0.00000000000E+00  0.00000000000E+00  0.45593999997E+02  0.45594000000E+02  0.51100000000E-03 0. -1.
         11   -1    0    0    0    0 -0.00000000000E+00 -0.00000000000E+00 -0.45593999997E+02  0.45594000000E+02  0.51100000000E-03 0.  1.
    9900012    2    1    2    0    0  0.34677291906E+02 -0.17509170659E+02  0.12003457372E+02  0.50528823668E+02  0.29999890021E+02 0.  0.
        -12    1    1    2    0    0 -0.34677291906E+02  0.17509170659E+02 -0.12003457372E+02  0.40659176332E+02  0.00000000000E+00 0.  1.
         11    1    3    3    0    0  0.13507852226E+02 -0.99282996903E+01 -0.14952157931E+01  0.16830593484E+02  0.51100000000E-03 0. -1.
        -11    1    3    3    0    0  0.11669925282E+02 -0.14721207669E+02  0.10146330797E+02  0.21350623884E+02  0.51100000000E-03 0.  1.
        -12    1    3    3    0    0  0.94995143977E+01  0.71403367002E+01  0.33523423682E+01  0.12347606300E+02  0.00000000000E+00 0.  1.
</event>
<event>
 7    1  0.2835316E-011  0.5052886E+02  0.7816164E-02  0.1300439E+00
        -11   -1    0    0    0    0  0.00000000000E+00  0.00000000000E+00  0.45593999997E+02  0.45594000000E+02  0.51100000000E-03 0. -1.
         11   -1    0    0    0    0 -0.00000000000E+00 -0.00000000000E+00 -0.45593999997E+02  0.45594000000E+02  0.51100000000E-03 0.  1.
    9900012    2    1    2    0    0  0.10056615655E+02 -0.28734105110E+02  0.26951462269E+02  0.50528860396E+02  0.30000001660E+02 0.  0.
        -12    1    1    2    0    0 -0.10056615655E+02  0.28734105110E+02 -0.26951462269E+02  0.40659139604E+02  0.00000000000E+00 0.  1.
         11    1    3    3    0    0 -0.17456481111E+01  0.11964217210E+01  0.27876451318E+01  0.34999539860E+01  0.51100000000E-03 0. -1.
        -11    1    3    3    0    0  0.28963397203E+01 -0.18066453736E+02 -0.43586019982E+00  0.18302336155E+02  0.51100000000E-03 0.  1.
         12    1    3    3    0    0  0.89059240460E+01 -0.11864073095E+02  0.24599677337E+02  0.28726570255E+02  0.00000000000E+00 0. -1.
</event>
<event>
 7    1  0.2835316E-011  0.5052888E+02  0.7816164E-02  0.1300439E+00
        -11   -1    0    0    0    0  0.00000000000E+00  0.00000000000E+00  0.45593999997E+02  0.45594000000E+02  0.51100000000E-03 0.  1.
         11   -1    0    0    0    0 -0.00000000000E+00 -0.00000000000E+00 -0.45593999997E+02  0.45594000000E+02  0.51100000000E-03 0. -1.
    9900012    2    1    2    0    0  0.39764430792E+02 -0.69779349250E+01 -0.48231465591E+01  0.50528877103E+02  0.30000052442E+02 0.  0.
        -12    1    1    2    0    0 -0.39764430792E+02  0.69779349250E+01  0.48231465591E+01  0.40659122897E+02  0.00000000000E+00 0.  1.
         11    1    3    3    0    0  0.76556594592E+01  0.68829176952E+00 -0.64321147849E+01  0.10022722593E+02  0.51100000000E-03 0. -1.
        -11    1    3    3    0    0  0.17893440810E+02  0.44615137201E+01  0.88645234035E+01  0.20461185306E+02  0.51100000000E-03 0.  1.
         12    1    3    3    0    0  0.14215330522E+02 -0.12127740415E+02 -0.72555551777E+01  0.20044969203E+02  0.00000000000E+00 0. -1.
</event>
<event>
 7    1  0.2835316E-011  0.5052885E+02  0.7816164E-02  0.1300439E+00
        -11   -1    0    0    0    0  0.00000000000E+00  0.00000000000E+00  0.45593999997E+02  0.45594000000E+02  0.51100000000E-03 0.  1.
         11   -1    0    0    0    0 -0.00000000000E+00 -0.00000000000E+00 -0.45593999997E+02  0.45594000000E+02  0.51100000000E-03 0. -1.
    9900012    2    1    2    0    0 -0.27213192394E+02  0.27715242541E+02 -0.12019722828E+02  0.50528852859E+02  0.29999978749E+02 0.  0.
        -12    1    1    2    0    0  0.27213192394E+02 -0.27715242541E+02  0.12019722828E+02  0.40659147141E+02  0.00000000000E+00 0.  1.
         11    1    3    3    0    0  0.48733714098E+01  0.48119566050E+01 -0.82616123201E+01  0.10731212124E+02  0.51100000000E-03 0. -1.
        -11    1    3    3    0    0 -0.49733850598E+01  0.51145595090E+01  0.14748753462E+00  0.71354769117E+01  0.51100000000E-03 0.  1.
         12    1    3    3    0    0 -0.27113178744E+02  0.17788726427E+02 -0.39055980427E+01  0.32662163823E+02  0.00000000000E+00 0. -1.
</event>
<event>
 7    1  0.2835316E-011  0.5052887E+02  0.7816164E-02  0.1300439E+00
        -11   -1    0    0    0    0  0.00000000000E+00  0.00000000000E+00  0.45593999997E+02  0.45594000000E+02  0.51100000000E-03 0. -1.
         11   -1    0    0    0    0 -0.00000000000E+00 -0.00000000000E+00 -0.45593999997E+02  0.45594000000E+02  0.51100000000E-03 0.  1.
    9900012    2    1    2    0    0 -0.21306293930E+02 -0.14263989829E+02  0.31555431427E+02  0.50528870405E+02  0.30000032082E+02 0.  0.
        -12    1    1    2    0    0  0.21306293930E+02  0.14263989829E+02 -0.31555431427E+02  0.40659129595E+02  0.00000000000E+00 0.  1.
         11    1    3    3    0    0 -0.66557346436E+01  0.30324781347E+01  0.81426795589E+01  0.10945225349E+02  0.51100000000E-03 0. -1.
        -11    1    3    3    0    0  0.46634354753E+00 -0.11191054451E+01 -0.40958123129E+01  0.42714812495E+01  0.51100000000E-03 0.  1.
         12    1    3    3    0    0 -0.15116902834E+02 -0.16177362519E+02  0.27508564181E+02  0.35312163806E+02  0.00000000000E+00 0. -1.
</event>
<event>
 7    1  0.2835316E-011  0.5052886E+02  0.7816164E-02  0.1300439E+00
        -11   -1    0    0    0    0  0.00000000000E+00  0.00000000000E+00  0.45593999997E+02  0.45594000000E+02  0.51100000000E-03 0.  1.
         11   -1    0    0    0    0 -0.00000000000E+00 -0.00000000000E+00 -0.45593999997E+02  0.45594000000E+02  0.51100000000E-03 0. -1.
    9900012    2    1    2    0    0  0.19913285651E+02  0.19926899758E+02 -0.29318006467E+02  0.50528858560E+02  0.29999996080E+02 0.  0.
        -12    1    1    2    0    0 -0.19913285651E+02 -0.19926899758E+02  0.29318006467E+02  0.40659141440E+02  0.00000000000E+00 0.  1.
         11    1    3    3    0    0  0.10917683094E+02  0.84286331413E+01 -0.20655960442E+02  0.24837599780E+02  0.51100000000E-03 0. -1.
        -11    1    3    3    0    0  0.56795843957E+01 -0.47810200996E+01 -0.40142577668E+01  0.84397925200E+01  0.51100000000E-03 0.  1.
         12    1    3    3    0    0  0.33160181616E+01  0.16279286717E+02 -0.46477882581E+01  0.17251466261E+02  0.00000000000E+00 0. -1.
</event>
<event>
 7    1  0.2835316E-011  0.5052885E+02  0.7816164E-02  0.1300439E+00
        -11   -1    0    0    0    0  0.00000000000E+00  0.00000000000E+00  0.45593999997E+02  0.45594000000E+02  0.51100000000E-03 0.  1.
         11   -1    0    0    0    0 -0.00000000000E+00 -0.00000000000E+00 -0.45593999997E+02  0.45594000000E+02  0.51100000000E-03 0. -1.
    9900012    2    1    2    0    0 -0.28257729023E+02 -0.23815012275E+02 -0.16956194177E+02  0.50528848753E+02  0.29999966269E+02 0.  0.
        -12    1    1    2    0    0  0.28257729023E+02  0.23815012275E+02  0.16956194177E+02  0.40659151247E+02  0.00000000000E+00 0.  1.
         11    1    3    3    0    0 -0.27370724897E+01  0.30584755181E+01  0.35329269825E+00  0.41195453997E+01  0.51100000000E-03 0. -1.
        -11    1    3    3    0    0 -0.29112239700E+01 -0.11847652929E+02 -0.14750248490E+02  0.19141889554E+02  0.51100000000E-03 0.  1.
        -12    1    3    3    0    0 -0.22609432563E+02 -0.15025834864E+02 -0.25592383857E+01  0.27267413799E+02  0.00000000000E+00 0.  1.
</event>
<event>
 7    1  0.2835316E-011  0.5052885E+02  0.7816164E-02  0.1300439E+00
        -11   -1    0    0    0    0  0.00000000000E+00  0.00000000000E+00  0.45593999997E+02  0.45594000000E+02  0.51100000000E-03 0.  1.
         11   -1    0    0    0    0 -0.00000000000E+00 -0.00000000000E+00 -0.45593999997E+02  0.45594000000E+02  0.51100000000E-03 0. -1.
    9900012    2    1    2    0    0  0.12034443443E+02 -0.38383302510E+02  0.59212071359E+01  0.50528850544E+02  0.29999971713E+02 0.  0.
        -12    1    1    2    0    0 -0.12034443443E+02  0.38383302510E+02 -0.59212071359E+01  0.40659149456E+02  0.00000000000E+00 0.  1.
         11    1    3    3    0    0  0.84040133495E+01 -0.28686706538E+01  0.65850688411E+01  0.11055308390E+02  0.51100000000E-03 0. -1.
        -11    1    3    3    0    0 -0.42177717281E+00 -0.11760709408E+02  0.75882651858E+01  0.14002640842E+02  0.51100000000E-03 0.  1.
         12    1    3    3    0    0  0.40522072667E+01 -0.23753922448E+02 -0.82521268910E+01  0.25470901312E+02  0.00000000000E+00 0. -1.
</event>
<event>
 7    1  0.2835316E-011  0.5052886E+02  0.7816164E-02  0.1300439E+00
        -11   -1    0    0    0    0  0.00000000000E+00  0.00000000000E+00  0.45593999997E+02  0.45594000000E+02  0.51100000000E-03 0. -1.
         11   -1    0    0    0    0 -0.00000000000E+00 -0.00000000000E+00 -0.45593999997E+02  0.45594000000E+02  0.51100000000E-03 0.  1.
    9900012    2    1    2    0    0  0.35375944488E+02  0.20025349350E+02 -0.83303477587E+00  0.50528855740E+02  0.29999987507E+02 0.  0.
        -12    1    1    2    0    0 -0.35375944488E+02 -0.20025349350E+02  0.83303477587E+00  0.40659144260E+02  0.00000000000E+00 0.  1.
         11    1    3    3    0    0  0.19449559526E+02  0.26028789102E+01  0.59696922978E+01  0.20510913456E+02  0.51100000000E-03 0. -1.
        -11    1    3    3    0    0  0.19646734443E+02  0.14170995447E+02 -0.48490007066E+01  0.24704738297E+02  0.51100000000E-03 0.  1.
        -12    1    3    3    0    0 -0.37203494810E+01  0.32514749928E+01 -0.19537263670E+01  0.53132039870E+01  0.00000000000E+00 0.  1.
</event>
<event>
 7    1  0.2835316E-011  0.5052886E+02  0.7816164E-02  0.1300439E+00
        -11   -1    0    0    0    0  0.00000000000E+00  0.00000000000E+00  0.45593999997E+02  0.45594000000E+02  0.51100000000E-03 0.  1.
         11   -1    0    0    0    0 -0.00000000000E+00 -0.00000000000E+00 -0.45593999997E+02  0.45594000000E+02  0.51100000000E-03 0. -1.
    9900012    2    1    2    0    0 -0.36694653439E+02 -0.15573106483E+02 -0.80091279933E+01  0.50528863662E+02  0.30000011586E+02 0.  0.
        -12    1    1    2    0    0  0.36694653439E+02  0.15573106483E+02  0.80091279933E+01  0.40659136338E+02  0.00000000000E+00 0.  1.
         11    1    3    3    0    0 -0.12951387373E+02 -0.12779042080E+02 -0.13258337562E+02  0.22512793397E+02  0.51100000000E-03 0. -1.
        -11    1    3    3    0    0 -0.61533122690E+01  0.34703968703E+01 -0.29083404692E+01  0.76397219100E+01  0.51100000000E-03 0.  1.
        -12    1    3    3    0    0 -0.17589953797E+02 -0.62644612730E+01  0.81575500384E+01  0.20376348355E+02  0.00000000000E+00 0.  1.
</event>
<event>
 7    1  0.2835316E-011  0.5052886E+02  0.7816164E-02  0.1300439E+00
        -11   -1    0    0    0    0  0.00000000000E+00  0.00000000000E+00  0.45593999997E+02  0.45594000000E+02  0.51100000000E-03 0.  1.
         11   -1    0    0    0    0 -0.00000000000E+00 -0.00000000000E+00 -0.45593999997E+02  0.45594000000E+02  0.51100000000E-03 0. -1.
    9900012    2    1    2    0    0  0.37106276113E+02  0.15299023069E+02  0.64984338589E+01  0.50528862325E+02  0.30000007524E+02 0.  0.
        -12    1    1    2    0    0 -0.37106276113E+02 -0.15299023069E+02 -0.64984338589E+01  0.40659137675E+02  0.00000000000E+00 0.  1.
         11    1    3    3    0    0  0.16964834908E+02  0.45168436088E+01  0.17608847987E+02  0.24865217219E+02  0.51100000000E-03 0.  1.
        -11    1    3    3    0    0  0.26025691611E+01  0.69980630015E+00 -0.25039612061E+01  0.36787113340E+01  0.51100000000E-03 0. -1.
        -12    1    3    3    0    0  0.17538872043E+02  0.10082373160E+02 -0.86064529216E+01  0.21984933773E+02  0.00000000000E+00 0.  1.
</event>
<event>
 7    1  0.2835316E-011  0.5052887E+02  0.7816164E-02  0.1300439E+00
        -11   -1    0    0    0    0  0.00000000000E+00  0.00000000000E+00  0.45593999997E+02  0.45594000000E+02  0.51100000000E-03 0.  1.
         11   -1    0    0    0    0 -0.00000000000E+00 -0.00000000000E+00 -0.45593999997E+02  0.45594000000E+02  0.51100000000E-03 0. -1.
    9900012    2    1    2    0    0  0.13976137462E+02 -0.25810367375E+02 -0.28136403950E+02  0.50528871755E+02  0.30000036186E+02 0.  0.
        -12    1    1    2    0    0 -0.13976137462E+02  0.25810367375E+02  0.28136403950E+02  0.40659128245E+02  0.00000000000E+00 0.  1.
         11    1    3    3    0    0 -0.43742929258E+01 -0.49929134964E+01 -0.99887573836E+01  0.11993285543E+02  0.51100000000E-03 0. -1.
        -11    1    3    3    0    0 -0.64865649686E+00 -0.47574728094E+01  0.31868995051E+01  0.57628666044E+01  0.51100000000E-03 0.  1.
         12    1    3    3    0    0  0.18999086885E+02 -0.16059981069E+02 -0.21334546072E+02  0.32772719608E+02  0.00000000000E+00 0. -1.
</event>
<event>
 7    1  0.2835316E-011  0.5052886E+02  0.7816164E-02  0.1300439E+00
        -11   -1    0    0    0    0  0.00000000000E+00  0.00000000000E+00  0.45593999997E+02  0.45594000000E+02  0.51100000000E-03 0.  1.
         11   -1    0    0    0    0 -0.00000000000E+00 -0.00000000000E+00 -0.45593999997E+02  0.45594000000E+02  0.51100000000E-03 0. -1.
    9900012    2    1    2    0    0 -0.51239227736E+01  0.26355724179E+02 -0.30533370175E+02  0.50528862333E+02  0.30000007547E+02 0.  0.
        -12    1    1    2    0    0  0.51239227736E+01 -0.26355724179E+02  0.30533370175E+02  0.40659137667E+02  0.00000000000E+00 0.  1.
         11    1    3    3    0    0 -0.75515712629E+01  0.37126952836E+01  0.16019866336E+01  0.85660198600E+01  0.51100000000E-03 0. -1.
        -11    1    3    3    0    0  0.53764753258E+01  0.44637626649E+01 -0.32522868263E+01  0.77077255996E+01  0.51100000000E-03 0.  1.
        -12    1    3    3    0    0 -0.29488268365E+01  0.18179266230E+02 -0.28883069983E+02  0.34255116873E+02  0.00000000000E+00 0.  1.
</event>
<event>
 7    1  0.2835316E-011  0.5052899E+02  0.7816164E-02  0.1300438E+00
        -11   -1    0    0    0    0  0.00000000000E+00  0.00000000000E+00  0.45593999997E+02  0.45594000000E+02  0.51100000000E-03 0.  1.
         11   -1    0    0    0    0 -0.00000000000E+00 -0.00000000000E+00 -0.45593999997E+02  0.45594000000E+02  0.51100000000E-03 0. -1.
    9900012    2    1    2    0    0 -0.23410382475E+00  0.35623986175E+02  0.19596731305E+02  0.50528990255E+02  0.30000396376E+02 0.  0.
        -12    1    1    2    0    0  0.23410382475E+00 -0.35623986175E+02 -0.19596731305E+02  0.40659009745E+02  0.00000000000E+00 0.  1.
         11    1    3    3    0    0  0.34822821499E-01 -0.10146589702E+01  0.46989674065E+01  0.48073943465E+01  0.51100000000E-03 0. -1.
        -11    1    3    3    0    0 -0.51880947521E+01  0.33851102117E+02  0.18592008167E+02  0.38967630280E+02  0.51100000000E-03 0.  1.
         12    1    3    3    0    0  0.49191681059E+01  0.27875430285E+01 -0.36942442689E+01  0.67539656282E+01  0.00000000000E+00 0. -1.
</event>
<event>
 7    1  0.2835316E-011  0.5052888E+02  0.7816164E-02  0.1300439E+00
        -11   -1    0    0    0    0  0.00000000000E+00  0.00000000000E+00  0.45593999997E+02  0.45594000000E+02  0.51100000000E-03 0.  1.
         11   -1    0    0    0    0 -0.00000000000E+00 -0.00000000000E+00 -0.45593999997E+02  0.45594000000E+02  0.51100000000E-03 0. -1.
    9900012    2    1    2    0    0 -0.50337542808E+01 -0.22559686022E+02 -0.33449752980E+02  0.50528879375E+02  0.30000059348E+02 0.  0.
        -12    1    1    2    0    0  0.50337542808E+01  0.22559686022E+02  0.33449752980E+02  0.40659120625E+02  0.00000000000E+00 0.  1.
         11    1    3    3    0    0 -0.74343328237E+01 -0.22054057115E+01 -0.13303704302E+01  0.78678462509E+01  0.51100000000E-03 0. -1.
        -11    1    3    3    0    0 -0.70076121915E+01 -0.40417433071E+01 -0.15765492237E+02  0.17719849416E+02  0.51100000000E-03 0.  1.
        -12    1    3    3    0    0  0.94081907343E+01 -0.16312537003E+02 -0.16353890313E+02  0.24941183708E+02  0.00000000000E+00 0.  1.
</event>
<event>
 7    1  0.2835316E-011  0.5052886E+02  0.7816164E-02  0.1300439E+00
        -11   -1    0    0    0    0  0.00000000000E+00  0.00000000000E+00  0.45593999997E+02  0.45594000000E+02  0.51100000000E-03 0. -1.
         11   -1    0    0    0    0 -0.00000000000E+00 -0.00000000000E+00 -0.45593999997E+02  0.45594000000E+02  0.51100000000E-03 0.  1.
    9900012    2    1    2    0    0 -0.18870809841E+02 -0.31468606000E+02 -0.17515272178E+02  0.50528863424E+02  0.30000010864E+02 0.  0.
        -12    1    1    2    0    0  0.18870809841E+02  0.31468606000E+02  0.17515272178E+02  0.40659136576E+02  0.00000000000E+00 0.  1.
         11    1    3    3    0    0 -0.13204294918E+02 -0.14810501995E+02 -0.31500321717E+01  0.20090472283E+02  0.51100000000E-03 0. -1.
        -11    1    3    3    0    0 -0.11992759769E+02 -0.91519001720E+01 -0.14052463098E+02  0.20616868895E+02  0.51100000000E-03 0.  1.
        -12    1    3    3    0    0  0.63262448464E+01 -0.75062038327E+01 -0.31277690816E+00  0.98215222460E+01  0.00000000000E+00 0.  1.
</event>
<event>
 7    1  0.2835316E-011  0.5052888E+02  0.7816164E-02  0.1300439E+00
        -11   -1    0    0    0    0  0.00000000000E+00  0.00000000000E+00  0.45593999997E+02  0.45594000000E+02  0.51100000000E-03 0.  1.
         11   -1    0    0    0    0 -0.00000000000E+00 -0.00000000000E+00 -0.45593999997E+02  0.45594000000E+02  0.51100000000E-03 0. -1.
    9900012    2    1    2    0    0 -0.23361969617E+02  0.32086796924E+02 -0.88215564489E+01  0.50528880243E+02  0.30000061986E+02 0.  0.
        -12    1    1    2    0    0  0.23361969617E+02 -0.32086796924E+02  0.88215564489E+01  0.40659119757E+02  0.00000000000E+00 0.  1.
         11    1    3    3    0    0 -0.10360384645E+02  0.75955590838E+01  0.20318004734E+01  0.13006087083E+02  0.51100000000E-03 0.  1.
        -11    1    3    3    0    0 -0.11165086291E+02  0.50449040451E+00 -0.11270541768E+00  0.11177046355E+02  0.51100000000E-03 0. -1.
        -12    1    3    3    0    0 -0.18364986815E+01  0.23986747436E+02 -0.10740651505E+02  0.26345746805E+02  0.00000000000E+00 0.  1.
</event>
<event>
 7    1  0.2835316E-011  0.5052886E+02  0.7816164E-02  0.1300439E+00
        -11   -1    0    0    0    0  0.00000000000E+00  0.00000000000E+00  0.45593999997E+02  0.45594000000E+02  0.51100000000E-03 0.  1.
         11   -1    0    0    0    0 -0.00000000000E+00 -0.00000000000E+00 -0.45593999997E+02  0.45594000000E+02  0.51100000000E-03 0. -1.
    9900012    2    1    2    0    0  0.31258217779E+01 -0.13841059106E+01 -0.40515168133E+02  0.50528863760E+02  0.30000011883E+02 0.  0.
        -12    1    1    2    0    0 -0.31258217779E+01  0.13841059106E+01  0.40515168133E+02  0.40659136240E+02  0.00000000000E+00 0.  1.
         11    1    3    3    0    0  0.95349510940E+01 -0.33007441843E+01 -0.11647974129E+02  0.15410564756E+02  0.51100000000E-03 0. -1.
        -11    1    3    3    0    0  0.46535840725E+01  0.64945464084E+01 -0.10513884548E+02  0.13205178769E+02  0.51100000000E-03 0.  1.
        -12    1    3    3    0    0 -0.11062713389E+02 -0.45779081347E+01 -0.18353309455E+02  0.21913120234E+02  0.00000000000E+00 0.  1.
</event>
<event>
 7    1  0.2835316E-011  0.5052885E+02  0.7816164E-02  0.1300439E+00
        -11   -1    0    0    0    0  0.00000000000E+00  0.00000000000E+00  0.45593999997E+02  0.45594000000E+02  0.51100000000E-03 0. -1.
         11   -1    0    0    0    0 -0.00000000000E+00 -0.00000000000E+00 -0.45593999997E+02  0.45594000000E+02  0.51100000000E-03 0.  1.
    9900012    2    1    2    0    0  0.54277976790E+01  0.39199409899E+02  0.93333705486E+01  0.50528849371E+02  0.29999968149E+02 0.  0.
        -12    1    1    2    0    0 -0.54277976790E+01 -0.39199409899E+02 -0.93333705486E+01  0.40659150629E+02  0.00000000000E+00 0.  1.
         11    1    3    3    0    0  0.76387711182E+01  0.70252638078E+01  0.58612587280E+01  0.11918872006E+02  0.51100000000E-03 0. -1.
        -11    1    3    3    0    0  0.79357819266E+01  0.15616453086E+02 -0.37087027889E+01  0.17905438236E+02  0.51100000000E-03 0.  1.
        -12    1    3    3    0    0 -0.10146755366E+02  0.16557693005E+02  0.71808146094E+01  0.20704539129E+02  0.00000000000E+00 0.  1.
</event>
<event>
 7    1  0.2835316E-011  0.5052886E+02  0.7816164E-02  0.1300439E+00
        -11   -1    0    0    0    0  0.00000000000E+00  0.00000000000E+00  0.45593999997E+02  0.45594000000E+02  0.51100000000E-03 0. -1.
         11   -1    0    0    0    0 -0.00000000000E+00 -0.00000000000E+00 -0.45593999997E+02  0.45594000000E+02  0.51100000000E-03 0.  1.
    9900012    2    1    2    0    0  0.15607696506E+02  0.24809300597E+02  0.28179137503E+02  0.50528863551E+02  0.30000011249E+02 0.  0.
        -12    1    1    2    0    0 -0.15607696506E+02 -0.24809300597E+02 -0.28179137503E+02  0.40659136449E+02  0.00000000000E+00 0.  1.
         11    1    3    3    0    0  0.14423962915E+02  0.15334358982E+02  0.21377453288E+02  0.30003146184E+02  0.51100000000E-03 0. -1.
        -11    1    3    3    0    0  0.79764280258E+01  0.35115064181E+00  0.30798383849E+01  0.85575765005E+01  0.51100000000E-03 0.  1.
         12    1    3    3    0    0 -0.67926944348E+01  0.91237909733E+01  0.37218458300E+01  0.11968140866E+02  0.00000000000E+00 0. -1.
</event>
<event>
 7    1  0.2835316E-011  0.5052885E+02  0.7816164E-02  0.1300439E+00
        -11   -1    0    0    0    0  0.00000000000E+00  0.00000000000E+00  0.45593999997E+02  0.45594000000E+02  0.51100000000E-03 0. -1.
         11   -1    0    0    0    0 -0.00000000000E+00 -0.00000000000E+00 -0.45593999997E+02  0.45594000000E+02  0.51100000000E-03 0.  1.
    9900012    2    1    2    0    0 -0.25360726361E+02  0.31473065438E+02  0.44097542678E+01  0.50528853153E+02  0.29999979644E+02 0.  0.
        -12    1    1    2    0    0  0.25360726361E+02 -0.31473065438E+02 -0.44097542678E+01  0.40659146847E+02  0.00000000000E+00 0.  1.
         11    1    3    3    0    0 -0.17767228996E+02  0.56273651584E+01  0.70870733484E+01  0.19939114166E+02  0.51100000000E-03 0. -1.
        -11    1    3    3    0    0 -0.82429477334E+01  0.10830120186E+02 -0.64983858892E+01  0.15081999536E+02  0.51100000000E-03 0.  1.
         12    1    3    3    0    0  0.64945036853E+00  0.15015580093E+02  0.38210668087E+01  0.15507739451E+02  0.00000000000E+00 0. -1.
</event>
<event>
 7    1  0.2835316E-011  0.5052890E+02  0.7816164E-02  0.1300439E+00
        -11   -1    0    0    0    0  0.00000000000E+00  0.00000000000E+00  0.45593999997E+02  0.45594000000E+02  0.51100000000E-03 0. -1.
         11   -1    0    0    0    0 -0.00000000000E+00 -0.00000000000E+00 -0.45593999997E+02  0.45594000000E+02  0.51100000000E-03 0.  1.
    9900012    2    1    2    0    0  0.36632225364E+02  0.17624674203E+02  0.78330281136E+00  0.50528897217E+02  0.30000113580E+02 0.  0.
        -12    1    1    2    0    0 -0.36632225364E+02 -0.17624674203E+02 -0.78330281136E+00  0.40659102783E+02  0.00000000000E+00 0.  1.
         11    1    3    3    0    0  0.29335092132E+01  0.50203339660E+01  0.60924194211E+01  0.84218052754E+01  0.51100000000E-03 0.  1.
        -11    1    3    3    0    0  0.21695755530E+02  0.15038159000E+02  0.40320473654E+01  0.26704109054E+02  0.51100000000E-03 0. -1.
         12    1    3    3    0    0  0.12002960620E+02 -0.24338187639E+01 -0.93411639751E+01  0.15402982888E+02  0.00000000000E+00 0. -1.
</event>
<event>
 7    1  0.2835316E-011  0.5052885E+02  0.7816164E-02  0.1300439E+00
        -11   -1    0    0    0    0  0.00000000000E+00  0.00000000000E+00  0.45593999997E+02  0.45594000000E+02  0.51100000000E-03 0.  1.
         11   -1    0    0    0    0 -0.00000000000E+00 -0.00000000000E+00 -0.45593999997E+02  0.45594000000E+02  0.51100000000E-03 0. -1.
    9900012    2    1    2    0    0 -0.39304895880E+02 -0.11395627047E+01 -0.10343756572E+02  0.50528846747E+02  0.29999960171E+02 0.  0.
        -12    1    1    2    0    0  0.39304895880E+02  0.11395627047E+01  0.10343756572E+02  0.40659153253E+02  0.00000000000E+00 0.  1.
         11    1    3    3    0    0 -0.78556079689E+01  0.52266316065E+00  0.44324528433E+01  0.90349538908E+01  0.51100000000E-03 0. -1.
        -11    1    3    3    0    0 -0.41439600743E+01 -0.94934199282E+01 -0.43501913527E+01  0.11234838321E+02  0.51100000000E-03 0.  1.
         12    1    3    3    0    0 -0.27305327836E+02  0.78311940629E+01 -0.10426018063E+02  0.30259054535E+02  0.00000000000E+00 0. -1.
</event>
<event>
 7    1  0.5162606E-011  0.5052886E+02  0.7816164E-02  0.1300439E+00
        -11   -1    0    0    0    0  0.00000000000E+00  0.00000000000E+00  0.45593999997E+02  0.45594000000E+02  0.51100000000E-03 0. -1.
         11   -1    0    0    0    0 -0.00000000000E+00 -0.00000000000E+00 -0.45593999997E+02  0.45594000000E+02  0.51100000000E-03 0.  1.
    9900012    2    1    2    0    0  0.17867511284E+02 -0.13053802463E+02  0.34110349447E+02  0.50528860098E+02  0.30000000753E+02 0.  0.
        -12    1    1    2    0    0 -0.17867511284E+02  0.13053802463E+02 -0.34110349447E+02  0.40659139902E+02  0.00000000000E+00 0.  1.
         11    1    3    3    0    0  0.17634688984E+02 -0.38131180319E+01  0.22547886164E+02  0.28877833980E+02  0.51100000000E-03 0. -1.
        -11    1    3    3    0    0 -0.16996479013E+01 -0.75571162380E+01  0.15282588499E+02  0.17133485352E+02  0.51100000000E-03 0.  1.
        -12    1    3    3    0    0  0.19324702011E+01 -0.16835681931E+01 -0.37201252162E+01  0.45175407649E+01  0.00000000000E+00 0.  1.
</event>
<event>
 7    1  0.2835316E-011  0.5052883E+02  0.7816164E-02  0.1300439E+00
        -11   -1    0    0    0    0  0.00000000000E+00  0.00000000000E+00  0.45593999997E+02  0.45594000000E+02  0.51100000000E-03 0.  1.
         11   -1    0    0    0    0 -0.00000000000E+00 -0.00000000000E+00 -0.45593999997E+02  0.45594000000E+02  0.51100000000E-03 0. -1.
    9900012    2    1    2    0    0  0.43636986328E+01 -0.32295868946E+02 -0.24312609242E+02  0.50528831478E+02  0.29999913762E+02 0.  0.
        -12    1    1    2    0    0 -0.43636986328E+01  0.32295868946E+02  0.24312609242E+02  0.40659168522E+02  0.00000000000E+00 0.  1.
         11    1    3    3    0    0 -0.31797282208E+01 -0.19577287249E+02 -0.90280132200E+00  0.19854367229E+02  0.51100000000E-03 0. -1.
        -11    1    3    3    0    0 -0.23859627419E+01  0.99272470839E+00 -0.15058658247E+01  0.29909785515E+01  0.51100000000E-03 0.  1.
         12    1    3    3    0    0  0.99293895955E+01 -0.13711306406E+02 -0.21903942095E+02  0.27683485698E+02  0.00000000000E+00 0. -1.
</event>
<event>
 7    1  0.2835316E-011  0.5052877E+02  0.7816164E-02  0.1300439E+00
        -11   -1    0    0    0    0  0.00000000000E+00  0.00000000000E+00  0.45593999997E+02  0.45594000000E+02  0.51100000000E-03 0.  1.
         11   -1    0    0    0    0 -0.00000000000E+00 -0.00000000000E+00 -0.45593999997E+02  0.45594000000E+02  0.51100000000E-03 0. -1.
    9900012    2    1    2    0    0 -0.39883417550E+01  0.40148360018E+02  0.50374084947E+01  0.50528767759E+02  0.29999720078E+02 0.  0.
        -12    1    1    2    0    0  0.39883417550E+01 -0.40148360018E+02 -0.50374084947E+01  0.40659232241E+02  0.00000000000E+00 0.  1.
         11    1    3    3    0    0  0.48811265885E+01  0.11734477510E+02 -0.59807197996E+01  0.14046080193E+02  0.51100000000E-03 0. -1.
        -11    1    3    3    0    0 -0.66521279464E+01  0.30138094426E+02  0.12509718787E+02  0.33302381390E+02  0.51100000000E-03 0.  1.
         12    1    3    3    0    0 -0.22173403970E+01 -0.17242119178E+01 -0.14915904926E+01  0.31803061757E+01  0.00000000000E+00 0. -1.
</event>
<event>
 7    1  0.2835316E-011  0.5052886E+02  0.7816164E-02  0.1300439E+00
        -11   -1    0    0    0    0  0.00000000000E+00  0.00000000000E+00  0.45593999997E+02  0.45594000000E+02  0.51100000000E-03 0.  1.
         11   -1    0    0    0    0 -0.00000000000E+00 -0.00000000000E+00 -0.45593999997E+02  0.45594000000E+02  0.51100000000E-03 0. -1.
    9900012    2    1    2    0    0  0.70502550862E+01  0.38747144902E+02 -0.10105350245E+02  0.50528862793E+02  0.30000008946E+02 0.  0.
        -12    1    1    2    0    0 -0.70502550862E+01 -0.38747144902E+02  0.10105350245E+02  0.40659137207E+02  0.00000000000E+00 0.  1.
         11    1    3    3    0    0  0.70467979233E+01  0.13900102284E+01  0.42627989359E+01  0.83523017448E+01  0.51100000000E-03 0. -1.
        -11    1    3    3    0    0 -0.46741439604E+01  0.11378153982E+02 -0.89943634782E+01  0.15238391793E+02  0.51100000000E-03 0.  1.
        -12    1    3    3    0    0  0.46776011233E+01  0.25978980691E+02 -0.53737857029E+01  0.26938169255E+02  0.00000000000E+00 0.  1.
</event>
<event>
 7    1  0.2835316E-011  0.5052885E+02  0.7816164E-02  0.1300439E+00
        -11   -1    0    0    0    0  0.00000000000E+00  0.00000000000E+00  0.45593999997E+02  0.45594000000E+02  0.51100000000E-03 0.  1.
         11   -1    0    0    0    0 -0.00000000000E+00 -0.00000000000E+00 -0.45593999997E+02  0.45594000000E+02  0.51100000000E-03 0. -1.
    9900012    2    1    2    0    0  0.34216203325E+02 -0.18911860549E+02 -0.11169565594E+02  0.50528852998E+02  0.29999979173E+02 0.  0.
        -12    1    1    2    0    0 -0.34216203325E+02  0.18911860549E+02  0.11169565594E+02  0.40659147002E+02  0.00000000000E+00 0.  1.
         11    1    3    3    0    0  0.98849862275E+01  0.30869545039E+01 -0.16975042063E+01  0.10493986927E+02  0.51100000000E-03 0. -1.
        -11    1    3    3    0    0  0.23508140937E+02 -0.14031641235E+02 -0.14088970301E+02  0.30789912804E+02  0.51100000000E-03 0.  1.
        -12    1    3    3    0    0  0.82307615980E+00 -0.79671738175E+01  0.46169089130E+01  0.92449532673E+01  0.00000000000E+00 0.  1.
</event>
<event>
 7    1  0.2835316E-011  0.5052886E+02  0.7816164E-02  0.1300439E+00
        -11   -1    0    0    0    0  0.00000000000E+00  0.00000000000E+00  0.45593999997E+02  0.45594000000E+02  0.51100000000E-03 0.  1.
         11   -1    0    0    0    0 -0.00000000000E+00 -0.00000000000E+00 -0.45593999997E+02  0.45594000000E+02  0.51100000000E-03 0. -1.
    9900012    2    1    2    0    0  0.32033623484E+02  0.73979345861E+01 -0.23922438985E+02  0.50528861340E+02  0.30000004528E+02 0.  0.
        -12    1    1    2    0    0 -0.32033623484E+02 -0.73979345861E+01  0.23922438985E+02  0.40659138660E+02  0.00000000000E+00 0.  1.
         11    1    3    3    0    0  0.13280716106E+02  0.19149551847E+01 -0.24498150925E+01  0.13639870524E+02  0.51100000000E-03 0. -1.
        -11    1    3    3    0    0  0.13951421242E+02 -0.33752981848E+01 -0.13907561775E+01  0.14421130174E+02  0.51100000000E-03 0.  1.
         12    1    3    3    0    0  0.48014861356E+01  0.88582775862E+01 -0.20081867715E+02  0.22467860642E+02  0.00000000000E+00 0. -1.
</event>
<event>
 7    1  0.2835316E-011  0.5052886E+02  0.7816164E-02  0.1300439E+00
        -11   -1    0    0    0    0  0.00000000000E+00  0.00000000000E+00  0.45593999997E+02  0.45594000000E+02  0.51100000000E-03 0.  1.
         11   -1    0    0    0    0 -0.00000000000E+00 -0.00000000000E+00 -0.45593999997E+02  0.45594000000E+02  0.51100000000E-03 0. -1.
    9900012    2    1    2    0    0 -0.20348819670E+02  0.84295874286E+01 -0.34176496944E+02  0.50528863886E+02  0.30000012268E+02 0.  0.
        -12    1    1    2    0    0  0.20348819670E+02 -0.84295874286E+01  0.34176496944E+02  0.40659136114E+02  0.00000000000E+00 0.  1.
         11    1    3    3    0    0 -0.13008017999E+02  0.11680684281E+01 -0.12990708580E+02  0.18420950730E+02  0.51100000000E-03 0. -1.
        -11    1    3    3    0    0 -0.99164052414E+01  0.10806106908E+02 -0.23070843176E+02  0.27338084142E+02  0.51100000000E-03 0.  1.
        -12    1    3    3    0    0  0.25756035699E+01 -0.35445879074E+01  0.18850548127E+01  0.47698290147E+01  0.00000000000E+00 0.  1.
</event>
<event>
 7    1  0.2835316E-011  0.5052888E+02  0.7816164E-02  0.1300439E+00
        -11   -1    0    0    0    0  0.00000000000E+00  0.00000000000E+00  0.45593999997E+02  0.45594000000E+02  0.51100000000E-03 0.  1.
         11   -1    0    0    0    0 -0.00000000000E+00 -0.00000000000E+00 -0.45593999997E+02  0.45594000000E+02  0.51100000000E-03 0. -1.
    9900012    2    1    2    0    0  0.16067596509E+02 -0.37224422733E+02  0.30559426715E+01  0.50528879363E+02  0.30000059312E+02 0.  0.
        -12    1    1    2    0    0 -0.16067596509E+02  0.37224422733E+02 -0.30559426715E+01  0.40659120637E+02  0.00000000000E+00 0.  1.
         11    1    3    3    0    0  0.84868436107E+01 -0.69329956224E+01  0.34823079171E+01  0.11498669987E+02  0.51100000000E-03 0. -1.
        -11    1    3    3    0    0 -0.51010986002E-01 -0.82019888108E+01  0.10423638006E+02  0.13263764629E+02  0.51100000000E-03 0.  1.
         12    1    3    3    0    0  0.76317638844E+01 -0.22089438299E+02 -0.10850003252E+02  0.25766444748E+02  0.00000000000E+00 0. -1.
</event>
<event>
 7    1  0.2835316E-011  0.5052885E+02  0.7816164E-02  0.1300439E+00
        -11   -1    0    0    0    0  0.00000000000E+00  0.00000000000E+00  0.45593999997E+02  0.45594000000E+02  0.51100000000E-03 0.  1.
         11   -1    0    0    0    0 -0.00000000000E+00 -0.00000000000E+00 -0.45593999997E+02  0.45594000000E+02  0.51100000000E-03 0. -1.
    9900012    2    1    2    0    0 -0.52548410158E+01  0.32700629676E+02 -0.23584352825E+02  0.50528853016E+02  0.29999979227E+02 0.  0.
        -12    1    1    2    0    0  0.52548410158E+01 -0.32700629676E+02  0.23584352825E+02  0.40659146984E+02  0.00000000000E+00 0.  1.
         11    1    3    3    0    0 -0.52381241366E+01  0.69415283795E-01  0.21455922687E+01  0.56609477472E+01  0.51100000000E-03 0. -1.
        -11    1    3    3    0    0  0.86623338690E-01  0.16624810131E+01 -0.99915909871E+01  0.10129325616E+02  0.51100000000E-03 0.  1.
         12    1    3    3    0    0 -0.10334021783E+00  0.30968733379E+02 -0.15738354107E+02  0.34738579653E+02  0.00000000000E+00 0. -1.
</event>
<event>
 7    1  0.2835316E-011  0.5052887E+02  0.7816164E-02  0.1300439E+00
        -11   -1    0    0    0    0  0.00000000000E+00  0.00000000000E+00  0.45593999997E+02  0.45594000000E+02  0.51100000000E-03 0.  1.
         11   -1    0    0    0    0 -0.00000000000E+00 -0.00000000000E+00 -0.45593999997E+02  0.45594000000E+02  0.51100000000E-03 0. -1.
    9900012    2    1    2    0    0  0.28237350596E+02  0.20257365255E+02 -0.21105832789E+02  0.50528868264E+02  0.30000025576E+02 0.  0.
        -12    1    1    2    0    0 -0.28237350596E+02 -0.20257365255E+02  0.21105832789E+02  0.40659131736E+02  0.00000000000E+00 0.  1.
         11    1    3    3    0    0  0.13545765970E+02  0.35293450546E+01 -0.46361937664E+01  0.14745790760E+02  0.51100000000E-03 0. -1.
        -11    1    3    3    0    0  0.17691459533E+01 -0.56327974929E+01 -0.24020466327E+01  0.63740186137E+01  0.51100000000E-03 0.  1.
        -12    1    3    3    0    0  0.12922438673E+02  0.22360817694E+02 -0.14067592390E+02  0.29409058891E+02  0.00000000000E+00 0.  1.
</event>
<event>
 7    1  0.2835316E-011  0.5052885E+02  0.7816164E-02  0.1300439E+00
        -11   -1    0    0    0    0  0.00000000000E+00  0.00000000000E+00  0.45593999997E+02  0.45594000000E+02  0.51100000000E-03 0. -1.
         11   -1    0    0    0    0 -0.00000000000E+00 -0.00000000000E+00 -0.45593999997E+02  0.45594000000E+02  0.51100000000E-03 0.  1.
    9900012    2    1    2    0    0 -0.20633784537E+02 -0.26219469048E+02  0.23236886387E+02  0.50528849610E+02  0.29999968874E+02 0.  0.
        -12    1    1    2    0    0  0.20633784537E+02  0.26219469048E+02 -0.23236886387E+02  0.40659150390E+02  0.00000000000E+00 0.  1.
         11    1    3    3    0    0 -0.31771054949E+00 -0.52039330236E+01  0.11979580787E+02  0.13064923076E+02  0.51100000000E-03 0. -1.
        -11    1    3    3    0    0 -0.18476942540E+02 -0.87208735899E+01  0.13955764899E+02  0.24742967000E+02  0.51100000000E-03 0.  1.
        -12    1    3    3    0    0 -0.18391314477E+01 -0.12294662435E+02 -0.26984592988E+01  0.12720959533E+02  0.00000000000E+00 0.  1.
</event>
<event>
 7    1  0.2835316E-011  0.5052887E+02  0.7816164E-02  0.1300439E+00
        -11   -1    0    0    0    0  0.00000000000E+00  0.00000000000E+00  0.45593999997E+02  0.45594000000E+02  0.51100000000E-03 0.  1.
         11   -1    0    0    0    0 -0.00000000000E+00 -0.00000000000E+00 -0.45593999997E+02  0.45594000000E+02  0.51100000000E-03 0. -1.
    9900012    2    1    2    0    0 -0.26747110166E+01 -0.40493515640E+02  0.25072516098E+01  0.50528865743E+02  0.30000017913E+02 0.  0.
        -12    1    1    2    0    0  0.26747110166E+01  0.40493515640E+02 -0.25072516098E+01  0.40659134257E+02  0.00000000000E+00 0.  1.
         11    1    3    3    0    0 -0.72581649457E+01 -0.19777864000E+02  0.43308214084E+00  0.21072076860E+02  0.51100000000E-03 0. -1.
        -11    1    3    3    0    0  0.26829971378E+01 -0.24307935733E+02  0.42884171382E+01  0.24828707881E+02  0.51100000000E-03 0.  1.
        -12    1    3    3    0    0  0.19004567913E+01  0.35922840933E+01 -0.22142476693E+01  0.46280810023E+01  0.00000000000E+00 0.  1.
</event>
<event>
 7    1  0.2835316E-011  0.5052886E+02  0.7816164E-02  0.1300439E+00
        -11   -1    0    0    0    0  0.00000000000E+00  0.00000000000E+00  0.45593999997E+02  0.45594000000E+02  0.51100000000E-03 0.  1.
         11   -1    0    0    0    0 -0.00000000000E+00 -0.00000000000E+00 -0.45593999997E+02  0.45594000000E+02  0.51100000000E-03 0. -1.
    9900012    2    1    2    0    0  0.27325381315E+02  0.29912406587E+02 -0.34258919520E+01  0.50528864895E+02  0.30000015335E+02 0.  0.
        -12    1    1    2    0    0 -0.27325381315E+02 -0.29912406587E+02  0.34258919520E+01  0.40659135105E+02  0.00000000000E+00 0.  1.
         11    1    3    3    0    0  0.79726319307E+01 -0.20981729231E+01 -0.32193807083E+01  0.88504012295E+01  0.51100000000E-03 0. -1.
        -11    1    3    3    0    0  0.18539022969E+02  0.13239854970E+02 -0.16073022925E+01  0.22837962983E+02  0.51100000000E-03 0.  1.
         12    1    3    3    0    0  0.81372641546E+00  0.18770724539E+02  0.14007910487E+01  0.18840500683E+02  0.00000000000E+00 0. -1.
</event>
<event>
 7    1  0.2835316E-011  0.5052887E+02  0.7816164E-02  0.1300439E+00
        -11   -1    0    0    0    0  0.00000000000E+00  0.00000000000E+00  0.45593999997E+02  0.45594000000E+02  0.51100000000E-03 0.  1.
         11   -1    0    0    0    0 -0.00000000000E+00 -0.00000000000E+00 -0.45593999997E+02  0.45594000000E+02  0.51100000000E-03 0. -1.
    9900012    2    1    2    0    0  0.33514065722E+02  0.12153326295E+02 -0.19551695487E+02  0.50528871410E+02  0.30000035139E+02 0.  0.
        -12    1    1    2    0    0 -0.33514065722E+02 -0.12153326295E+02  0.19551695487E+02  0.40659128590E+02  0.00000000000E+00 0.  1.
         11    1    3    3    0    0 -0.54223359689E+00  0.21385262452E+01  0.17026393875E+01  0.27868069398E+01  0.51100000000E-03 0. -1.
        -11    1    3    3    0    0  0.26519932845E+01 -0.46275984257E+01 -0.99591106723E+01  0.11297416573E+02  0.51100000000E-03 0.  1.
        -12    1    3    3    0    0  0.31404306034E+02  0.14642398475E+02 -0.11295224202E+02  0.36444647898E+02  0.00000000000E+00 0.  1.
</event>
<event>
 7    1  0.2835316E-011  0.5052886E+02  0.7816164E-02  0.1300439E+00
        -11   -1    0    0    0    0  0.00000000000E+00  0.00000000000E+00  0.45593999997E+02  0.45594000000E+02  0.51100000000E-03 0. -1.
         11   -1    0    0    0    0 -0.00000000000E+00 -0.00000000000E+00 -0.45593999997E+02  0.45594000000E+02  0.51100000000E-03 0.  1.
    9900012    2    1    2    0    0 -0.63386033451E+01  0.24983751663E+02  0.31445190583E+02  0.50528858957E+02  0.29999997287E+02 0.  0.
        -12    1    1    2    0    0  0.63386033451E+01 -0.24983751663E+02 -0.31445190583E+02  0.40659141043E+02  0.00000000000E+00 0.  1.
         11    1    3    3    0    0 -0.81224606194E+01  0.48309488978E+00  0.19747422611E+02  0.21358100272E+02  0.51100000000E-03 0. -1.
        -11    1    3    3    0    0  0.17400403814E+01  0.89543034013E+01 -0.89284585637E+00  0.91653949133E+01  0.51100000000E-03 0.  1.
        -12    1    3    3    0    0  0.43816892887E-01  0.15546353372E+02  0.12590613829E+02  0.20005363772E+02  0.00000000000E+00 0.  1.
</event>
<event>
 7    1  0.2835316E-011  0.5052886E+02  0.7816164E-02  0.1300439E+00
        -11   -1    0    0    0    0  0.00000000000E+00  0.00000000000E+00  0.45593999997E+02  0.45594000000E+02  0.51100000000E-03 0.  1.
         11   -1    0    0    0    0 -0.00000000000E+00 -0.00000000000E+00 -0.45593999997E+02  0.45594000000E+02  0.51100000000E-03 0. -1.
    9900012    2    1    2    0    0 -0.38038477035E+01 -0.14214467182E+02 -0.37903101395E+02  0.50528862897E+02  0.30000009262E+02 0.  0.
        -12    1    1    2    0    0  0.38038477035E+01  0.14214467182E+02  0.37903101395E+02  0.40659137103E+02  0.00000000000E+00 0.  1.
         11    1    3    3    0    0  0.73467803589E+01  0.15786898493E+01 -0.47934979129E+01  0.89131961599E+01  0.51100000000E-03 0. -1.
        -11    1    3    3    0    0 -0.27362351853E+01 -0.14825291948E+02 -0.13427397735E+02  0.20188394551E+02  0.51100000000E-03 0.  1.
        -12    1    3    3    0    0 -0.84143928771E+01 -0.96786508309E+00 -0.19682205746E+02  0.21427272186E+02  0.00000000000E+00 0.  1.
</event>
<event>
 7    1  0.2835316E-011  0.5052884E+02  0.7816164E-02  0.1300439E+00
        -11   -1    0    0    0    0  0.00000000000E+00  0.00000000000E+00  0.45593999997E+02  0.45594000000E+02  0.51100000000E-03 0.  1.
         11   -1    0    0    0    0 -0.00000000000E+00 -0.00000000000E+00 -0.45593999997E+02  0.45594000000E+02  0.51100000000E-03 0. -1.
    9900012    2    1    2    0    0 -0.20250888797E+02  0.33215597113E+02 -0.11823395411E+02  0.50528842757E+02  0.29999948045E+02 0.  0.
        -12    1    1    2    0    0  0.20250888797E+02 -0.33215597113E+02  0.11823395411E+02  0.40659157243E+02  0.00000000000E+00 0.  1.
         11    1    3    3    0    0 -0.67231240025E+00  0.93361335880E+00 -0.97515879105E+01  0.98192211964E+01  0.51100000000E-03 0. -1.
        -11    1    3    3    0    0 -0.85716446521E-01  0.28177406048E+01  0.39689789788E+01  0.48682444290E+01  0.51100000000E-03 0.  1.
         12    1    3    3    0    0 -0.19492859950E+02  0.29464243150E+02 -0.60407864794E+01  0.35841377132E+02  0.00000000000E+00 0. -1.
</event>
<event>
 7    1  0.2835316E-011  0.5052887E+02  0.7816164E-02  0.1300439E+00
        -11   -1    0    0    0    0  0.00000000000E+00  0.00000000000E+00  0.45593999997E+02  0.45594000000E+02  0.51100000000E-03 0. -1.
         11   -1    0    0    0    0 -0.00000000000E+00 -0.00000000000E+00 -0.45593999997E+02  0.45594000000E+02  0.51100000000E-03 0.  1.
    9900012    2    1    2    0    0  0.31380276569E+02 -0.22453729887E+02  0.12816920575E+02  0.50528865769E+02  0.30000017993E+02 0.  0.
        -12    1    1    2    0    0 -0.31380276569E+02  0.22453729887E+02 -0.12816920575E+02  0.40659134231E+02  0.00000000000E+00 0.  1.
         11    1    3    3    0    0  0.12002771252E+02 -0.80750455215E+01  0.12362420128E+01  0.14518993508E+02  0.51100000000E-03 0. -1.
        -11    1    3    3    0    0 -0.60169837405E+00 -0.13989244293E+02  0.62117873034E+01  0.15318201545E+02  0.51100000000E-03 0.  1.
         12    1    3    3    0    0  0.19979203691E+02 -0.38944007252E+00  0.53688912586E+01  0.20691670716E+02  0.00000000000E+00 0. -1.
</event>
<event>
 7    1  0.2835316E-011  0.5052892E+02  0.7816164E-02  0.1300439E+00
        -11   -1    0    0    0    0  0.00000000000E+00  0.00000000000E+00  0.45593999997E+02  0.45594000000E+02  0.51100000000E-03 0.  1.
         11   -1    0    0    0    0 -0.00000000000E+00 -0.00000000000E+00 -0.45593999997E+02  0.45594000000E+02  0.51100000000E-03 0. -1.
    9900012    2    1    2    0    0  0.10318387145E+02 -0.39193036795E+02  0.32554169721E+01  0.50528917544E+02  0.30000175365E+02 0.  0.
        -12    1    1    2    0    0 -0.10318387145E+02  0.39193036795E+02 -0.32554169721E+01  0.40659082456E+02  0.00000000000E+00 0.  1.
         11    1    3    3    0    0  0.11102244649E+02 -0.26128196973E+02  0.47705374148E+01  0.28787159304E+02  0.51100000000E-03 0. -1.
        -11    1    3    3    0    0  0.40756245383E+01 -0.18914087665E+01  0.59472756719E+01  0.74537393755E+01  0.51100000000E-03 0.  1.
         12    1    3    3    0    0 -0.48594820424E+01 -0.11173431056E+02 -0.74623961147E+01  0.14288018864E+02  0.00000000000E+00 0. -1.
</event>
<event>
 7    1  0.2835316E-011  0.5052887E+02  0.7816164E-02  0.1300439E+00
        -11   -1    0    0    0    0  0.00000000000E+00  0.00000000000E+00  0.45593999997E+02  0.45594000000E+02  0.51100000000E-03 0.  1.
         11   -1    0    0    0    0 -0.00000000000E+00 -0.00000000000E+00 -0.45593999997E+02  0.45594000000E+02  0.51100000000E-03 0. -1.
    9900012    2    1    2    0    0 -0.20935563890E+02 -0.27596664267E+02 -0.21290630139E+02  0.50528872540E+02  0.30000038574E+02 0.  0.
        -12    1    1    2    0    0  0.20935563890E+02  0.27596664267E+02  0.21290630139E+02  0.40659127460E+02  0.00000000000E+00 0.  1.
         11    1    3    3    0    0 -0.15019300839E+02 -0.25875831481E+02 -0.40337921526E+01  0.30189559982E+02  0.51100000000E-03 0. -1.
        -11    1    3    3    0    0 -0.60258294046E+01  0.51311041251E+00 -0.49053035735E+01  0.77869060427E+01  0.51100000000E-03 0.  1.
        -12    1    3    3    0    0  0.10956635282E+00 -0.22339431988E+01 -0.12351534413E+02  0.12552406516E+02  0.00000000000E+00 0.  1.
</event>
<event>
 7    1  0.2835316E-011  0.5052886E+02  0.7816164E-02  0.1300439E+00
        -11   -1    0    0    0    0  0.00000000000E+00  0.00000000000E+00  0.45593999997E+02  0.45594000000E+02  0.51100000000E-03 0.  1.
         11   -1    0    0    0    0 -0.00000000000E+00 -0.00000000000E+00 -0.45593999997E+02  0.45594000000E+02  0.51100000000E-03 0. -1.
    9900012    2    1    2    0    0 -0.43190336913E+01  0.33536579459E+01 -0.40289756680E+02  0.50528861212E+02  0.30000004140E+02 0.  0.
        -12    1    1    2    0    0  0.43190336913E+01 -0.33536579459E+01  0.40289756680E+02  0.40659138788E+02  0.00000000000E+00 0.  1.
         11    1    3    3    0    0 -0.63548840039E+01 -0.13423836836E+01 -0.53626724342E+01  0.84228736518E+01  0.51100000000E-03 0. -1.
        -11    1    3    3    0    0 -0.79125570945E+01  0.62241816818E+01 -0.28345196733E+02  0.30079879911E+02  0.51100000000E-03 0.  1.
        -12    1    3    3    0    0  0.99484074070E+01 -0.15281400523E+01 -0.65818875128E+01  0.12026107649E+02  0.00000000000E+00 0.  1.
</event>
<event>
 7    1  0.2835316E-011  0.5052886E+02  0.7816164E-02  0.1300439E+00
        -11   -1    0    0    0    0  0.00000000000E+00  0.00000000000E+00  0.45593999997E+02  0.45594000000E+02  0.51100000000E-03 0.  1.
         11   -1    0    0    0    0 -0.00000000000E+00 -0.00000000000E+00 -0.45593999997E+02  0.45594000000E+02  0.51100000000E-03 0. -1.
    9900012    2    1    2    0    0  0.10034221726E+02 -0.11924793125E+02 -0.37553691439E+02  0.50528855427E+02  0.29999986556E+02 0.  0.
        -12    1    1    2    0    0 -0.10034221726E+02  0.11924793125E+02  0.37553691439E+02  0.40659144573E+02  0.00000000000E+00 0.  1.
         11    1    3    3    0    0 -0.14052220609E+01 -0.45020655966E+01 -0.20148592260E+02  0.20693211785E+02  0.51100000000E-03 0. -1.
        -11    1    3    3    0    0 -0.15632679606E+01 -0.10277119117E+02 -0.46113788023E+01  0.11372238073E+02  0.51100000000E-03 0.  1.
         12    1    3    3    0    0  0.13002711747E+02  0.28543915886E+01 -0.12793720377E+02  0.18463405569E+02  0.00000000000E+00 0. -1.
</event>
<event>
 7    1  0.2835316E-011  0.5052886E+02  0.7816164E-02  0.1300439E+00
        -11   -1    0    0    0    0  0.00000000000E+00  0.00000000000E+00  0.45593999997E+02  0.45594000000E+02  0.51100000000E-03 0. -1.
         11   -1    0    0    0    0 -0.00000000000E+00 -0.00000000000E+00 -0.45593999997E+02  0.45594000000E+02  0.51100000000E-03 0.  1.
    9900012    2    1    2    0    0  0.36714952815E+02 -0.14076944594E+02  0.10344926983E+02  0.50528860270E+02  0.30000001276E+02 0.  0.
        -12    1    1    2    0    0 -0.36714952815E+02  0.14076944594E+02 -0.10344926983E+02  0.40659139730E+02  0.00000000000E+00 0.  1.
         11    1    3    3    0    0  0.34468473160E+01 -0.81962363561E+01  0.21224911941E+01  0.91413355673E+01  0.51100000000E-03 0. -1.
        -11    1    3    3    0    0  0.28539509714E+01  0.64613199731E+01  0.44501594113E+01  0.83485095071E+01  0.51100000000E-03 0.  1.
         12    1    3    3    0    0  0.30414154528E+02 -0.12342028212E+02  0.37722763774E+01  0.33039015195E+02  0.00000000000E+00 0. -1.
</event>
<event>
 7    1  0.2835316E-011  0.5052887E+02  0.7816164E-02  0.1300439E+00
        -11   -1    0    0    0    0  0.00000000000E+00  0.00000000000E+00  0.45593999997E+02  0.45594000000E+02  0.51100000000E-03 0. -1.
         11   -1    0    0    0    0 -0.00000000000E+00 -0.00000000000E+00 -0.45593999997E+02  0.45594000000E+02  0.51100000000E-03 0.  1.
    9900012    2    1    2    0    0 -0.38153148268E+02  0.54593631421E+01  0.12949817957E+02  0.50528866294E+02  0.30000019586E+02 0.  0.
        -12    1    1    2    0    0  0.38153148268E+02 -0.54593631421E+01 -0.12949817957E+02  0.40659133706E+02  0.00000000000E+00 0.  1.
         11    1    3    3    0    0 -0.10678953649E+02  0.32631799888E+01  0.96699865080E+01  0.14771493966E+02  0.51100000000E-03 0. -1.
        -11    1    3    3    0    0 -0.77179721879E+01 -0.81431433186E+01  0.68937500255E+01  0.13168206692E+02  0.51100000000E-03 0.  1.
         12    1    3    3    0    0 -0.19756222431E+02  0.10339326472E+02 -0.36139185769E+01  0.22589165636E+02  0.00000000000E+00 0. -1.
</event>
<event>
 7    1  0.2835316E-011  0.5052886E+02  0.7816164E-02  0.1300439E+00
        -11   -1    0    0    0    0  0.00000000000E+00  0.00000000000E+00  0.45593999997E+02  0.45594000000E+02  0.51100000000E-03 0.  1.
         11   -1    0    0    0    0 -0.00000000000E+00 -0.00000000000E+00 -0.45593999997E+02  0.45594000000E+02  0.51100000000E-03 0. -1.
    9900012    2    1    2    0    0 -0.25222535505E+00  0.10154326538E+02 -0.39369938076E+02  0.50528856020E+02  0.29999988359E+02 0.  0.
        -12    1    1    2    0    0  0.25222535505E+00 -0.10154326538E+02  0.39369938076E+02  0.40659143980E+02  0.00000000000E+00 0.  1.
         11    1    3    3    0    0  0.99199450687E+00  0.77741667329E+01 -0.38552230732E+01  0.87340979327E+01  0.51100000000E-03 0. -1.
        -11    1    3    3    0    0 -0.11171811248E+02  0.23306169489E+01 -0.13723827195E+02  0.17848937645E+02  0.51100000000E-03 0.  1.
        -12    1    3    3    0    0  0.99275913860E+01  0.49542856416E-01 -0.21790887808E+02  0.23945820443E+02  0.00000000000E+00 0.  1.
</event>
<event>
 7    1  0.2835316E-011  0.5052886E+02  0.7816164E-02  0.1300439E+00
        -11   -1    0    0    0    0  0.00000000000E+00  0.00000000000E+00  0.45593999997E+02  0.45594000000E+02  0.51100000000E-03 0. -1.
         11   -1    0    0    0    0 -0.00000000000E+00 -0.00000000000E+00 -0.45593999997E+02  0.45594000000E+02  0.51100000000E-03 0.  1.
    9900012    2    1    2    0    0  0.20516067292E+01  0.39945506706E+02 -0.73015635734E+01  0.50528862936E+02  0.30000009381E+02 0.  0.
        -12    1    1    2    0    0 -0.20516067292E+01 -0.39945506706E+02  0.73015635734E+01  0.40659137064E+02  0.00000000000E+00 0.  1.
         11    1    3    3    0    0  0.80217554830E+01  0.24272225404E+02 -0.60868559412E+00  0.25570686058E+02  0.51100000000E-03 0. -1.
        -11    1    3    3    0    0  0.62820914234E+00  0.15846868677E+02 -0.43905703442E+00  0.15865392051E+02  0.51100000000E-03 0.  1.
        -12    1    3    3    0    0 -0.65983578961E+01 -0.17358737502E+00 -0.62538209449E+01  0.90927848271E+01  0.00000000000E+00 0.  1.
</event>
<event>
 7    1  0.2835316E-011  0.5052886E+02  0.7816164E-02  0.1300439E+00
        -11   -1    0    0    0    0  0.00000000000E+00  0.00000000000E+00  0.45593999997E+02  0.45594000000E+02  0.51100000000E-03 0.  1.
         11   -1    0    0    0    0 -0.00000000000E+00 -0.00000000000E+00 -0.45593999997E+02  0.45594000000E+02  0.51100000000E-03 0. -1.
    9900012    2    1    2    0    0  0.38931536248E+01  0.51715068298E+01 -0.40140558177E+02  0.50528861558E+02  0.30000005193E+02 0.  0.
        -12    1    1    2    0    0 -0.38931536248E+01 -0.51715068298E+01  0.40140558177E+02  0.40659138442E+02  0.00000000000E+00 0.  1.
         11    1    3    3    0    0 -0.26849102374E+01 -0.29195266737E+01 -0.79049527580E+01  0.88442443063E+01  0.51100000000E-03 0. -1.
        -11    1    3    3    0    0  0.15773587626E+01 -0.16498595092E+01 -0.30515570999E+02  0.30600819772E+02  0.51100000000E-03 0.  1.
        -12    1    3    3    0    0  0.50007050996E+01  0.97408930127E+01 -0.17200344205E+01  0.11083797480E+02  0.00000000000E+00 0.  1.
</event>
<event>
 7    1  0.2835316E-011  0.5052892E+02  0.7816164E-02  0.1300439E+00
        -11   -1    0    0    0    0  0.00000000000E+00  0.00000000000E+00  0.45593999997E+02  0.45594000000E+02  0.51100000000E-03 0.  1.
         11   -1    0    0    0    0 -0.00000000000E+00 -0.00000000000E+00 -0.45593999997E+02  0.45594000000E+02  0.51100000000E-03 0. -1.
    9900012    2    1    2    0    0 -0.30341805864E+02  0.22746409303E+02 -0.14667532122E+02  0.50528919614E+02  0.30000181659E+02 0.  0.
        -12    1    1    2    0    0  0.30341805864E+02 -0.22746409303E+02  0.14667532122E+02  0.40659080386E+02  0.00000000000E+00 0.  1.
         11    1    3    3    0    0 -0.53696676060E+01 -0.28200028465E+01  0.34632224992E+01  0.69842434518E+01  0.51100000000E-03 0. -1.
        -11    1    3    3    0    0 -0.17553840495E+01  0.82115113688E+01  0.15087807029E+01  0.85315128548E+01  0.51100000000E-03 0.  1.
         12    1    3    3    0    0 -0.23216754209E+02  0.17354900781E+02 -0.19639535324E+02  0.35013163308E+02  0.00000000000E+00 0. -1.
</event>
<event>
 7    1  0.2835316E-011  0.5052886E+02  0.7816164E-02  0.1300439E+00
        -11   -1    0    0    0    0  0.00000000000E+00  0.00000000000E+00  0.45593999997E+02  0.45594000000E+02  0.51100000000E-03 0.  1.
         11   -1    0    0    0    0 -0.00000000000E+00 -0.00000000000E+00 -0.45593999997E+02  0.45594000000E+02  0.51100000000E-03 0. -1.
    9900012    2    1    2    0    0 -0.18999363712E+02 -0.33989636042E+02  0.11700208045E+02  0.50528855296E+02  0.29999986159E+02 0.  0.
        -12    1    1    2    0    0  0.18999363712E+02  0.33989636042E+02 -0.11700208045E+02  0.40659144704E+02  0.00000000000E+00 0.  1.
         11    1    3    3    0    0 -0.38744371966E+01 -0.27898577287E+02  0.15983637049E+02  0.32385467911E+02  0.51100000000E-03 0. -1.
        -11    1    3    3    0    0 -0.56319681193E+01  0.49237714915E+00  0.42261568979E+00  0.56692243240E+01  0.51100000000E-03 0.  1.
        -12    1    3    3    0    0 -0.94929583958E+01 -0.65834359045E+01 -0.47060446944E+01  0.12474163061E+02  0.00000000000E+00 0.  1.
</event>
<event>
 7    1  0.2835316E-011  0.5052886E+02  0.7816164E-02  0.1300439E+00
        -11   -1    0    0    0    0  0.00000000000E+00  0.00000000000E+00  0.45593999997E+02  0.45594000000E+02  0.51100000000E-03 0.  1.
         11   -1    0    0    0    0 -0.00000000000E+00 -0.00000000000E+00 -0.45593999997E+02  0.45594000000E+02  0.51100000000E-03 0. -1.
    9900012    2    1    2    0    0  0.11823309904E+02  0.92962872557E+01 -0.37775044274E+02  0.50528861006E+02  0.30000003515E+02 0.  0.
        -12    1    1    2    0    0 -0.11823309904E+02 -0.92962872557E+01  0.37775044274E+02  0.40659138994E+02  0.00000000000E+00 0.  1.
         11    1    3    3    0    0  0.15093612873E+02  0.19897476703E+01 -0.16484810032E+02  0.22439367358E+02  0.51100000000E-03 0. -1.
        -11    1    3    3    0    0  0.12095111213E+01 -0.50289062507E+01 -0.67234340052E+01  0.84827696135E+01  0.51100000000E-03 0.  1.
        -12    1    3    3    0    0 -0.44798140912E+01  0.12335445836E+02 -0.14566800236E+02  0.19606724035E+02  0.00000000000E+00 0.  1.
</event>
<event>
 7    1  0.2835316E-011  0.5052885E+02  0.7816164E-02  0.1300439E+00
        -11   -1    0    0    0    0  0.00000000000E+00  0.00000000000E+00  0.45593999997E+02  0.45594000000E+02  0.51100000000E-03 0.  1.
         11   -1    0    0    0    0 -0.00000000000E+00 -0.00000000000E+00 -0.45593999997E+02  0.45594000000E+02  0.51100000000E-03 0. -1.
    9900012    2    1    2    0    0 -0.18601325943E+02 -0.12048334154E+02 -0.34088042960E+02  0.50528851515E+02  0.29999974664E+02 0.  0.
        -12    1    1    2    0    0  0.18601325943E+02  0.12048334154E+02  0.34088042960E+02  0.40659148485E+02  0.00000000000E+00 0.  1.
         11    1    3    3    0    0  0.37074597560E+01 -0.40396295164E+01 -0.98140728490E+01  0.11241881098E+02  0.51100000000E-03 0.  1.
        -11    1    3    3    0    0 -0.19841126732E+02 -0.10677384548E+02 -0.26685106401E+02  0.34925230918E+02  0.51100000000E-03 0. -1.
        -12    1    3    3    0    0 -0.24676589677E+01  0.26686799106E+01  0.24111362903E+01  0.43617394990E+01  0.00000000000E+00 0.  1.
</event>
<event>
 7    1  0.2835316E-011  0.5052882E+02  0.7816164E-02  0.1300439E+00
        -11   -1    0    0    0    0  0.00000000000E+00  0.00000000000E+00  0.45593999997E+02  0.45594000000E+02  0.51100000000E-03 0.  1.
         11   -1    0    0    0    0 -0.00000000000E+00 -0.00000000000E+00 -0.45593999997E+02  0.45594000000E+02  0.51100000000E-03 0. -1.
    9900012    2    1    2    0    0 -0.24965978459E+02  0.20216911482E+02 -0.24922787893E+02  0.50528819651E+02  0.29999877812E+02 0.  0.
        -12    1    1    2    0    0  0.24965978459E+02 -0.20216911482E+02  0.24922787893E+02  0.40659180349E+02  0.00000000000E+00 0.  1.
         11    1    3    3    0    0 -0.47365347877E+01  0.18611265209E+02 -0.75503942237E+01  0.20635464804E+02  0.51100000000E-03 0. -1.
        -11    1    3    3    0    0 -0.16174434376E+02  0.69456441369E+01 -0.13107669785E+02  0.21946874660E+02  0.51100000000E-03 0.  1.
        -12    1    3    3    0    0 -0.40550092946E+01 -0.53399978641E+01 -0.42647238839E+01  0.79464801877E+01  0.00000000000E+00 0.  1.
</event>
<event>
 7    1  0.2835316E-011  0.5052886E+02  0.7816164E-02  0.1300439E+00
        -11   -1    0    0    0    0  0.00000000000E+00  0.00000000000E+00  0.45593999997E+02  0.45594000000E+02  0.51100000000E-03 0.  1.
         11   -1    0    0    0    0 -0.00000000000E+00 -0.00000000000E+00 -0.45593999997E+02  0.45594000000E+02  0.51100000000E-03 0. -1.
    9900012    2    1    2    0    0  0.36933416705E+02 -0.11962658421E+02 -0.12082337403E+02  0.50528863965E+02  0.30000012509E+02 0.  0.
        -12    1    1    2    0    0 -0.36933416705E+02  0.11962658421E+02  0.12082337403E+02  0.40659136035E+02  0.00000000000E+00 0.  1.
         11    1    3    3    0    0  0.14713494249E+02 -0.72758155471E+01  0.48580855501E+00  0.16421340235E+02  0.51100000000E-03 0. -1.
        -11    1    3    3    0    0  0.14250584514E+00 -0.85075747546E+01 -0.70058007615E+01  0.11021813857E+02  0.51100000000E-03 0.  1.
         12    1    3    3    0    0  0.22077416610E+02  0.38207318803E+01 -0.55623451962E+01  0.23085709873E+02  0.00000000000E+00 0. -1.
</event>
<event>
 7    1  0.2835316E-011  0.5052887E+02  0.7816164E-02  0.1300439E+00
        -11   -1    0    0    0    0  0.00000000000E+00  0.00000000000E+00  0.45593999997E+02  0.45594000000E+02  0.51100000000E-03 0.  1.
         11   -1    0    0    0    0 -0.00000000000E+00 -0.00000000000E+00 -0.45593999997E+02  0.45594000000E+02  0.51100000000E-03 0. -1.
    9900012    2    1    2    0    0 -0.23467844629E+02 -0.70107983200E+01 -0.32454176668E+02  0.50528873007E+02  0.30000039991E+02 0.  0.
        -12    1    1    2    0    0  0.23467844629E+02  0.70107983200E+01  0.32454176668E+02  0.40659126993E+02  0.00000000000E+00 0.  1.
         11    1    3    3    0    0 -0.13573392801E+02 -0.69478616982E+01 -0.27520390472E+02  0.31462384943E+02  0.51100000000E-03 0. -1.
        -11    1    3    3    0    0  0.21864418838E+01 -0.13957043055E+01 -0.63218239583E+01  0.68332991329E+01  0.51100000000E-03 0.  1.
        -12    1    3    3    0    0 -0.12080893712E+02  0.13327676837E+01  0.13880377620E+01  0.12233188930E+02  0.00000000000E+00 0.  1.
</event>
<event>
 7    1  0.2835316E-011  0.5052876E+02  0.7816164E-02  0.1300439E+00
        -11   -1    0    0    0    0  0.00000000000E+00  0.00000000000E+00  0.45593999997E+02  0.45594000000E+02  0.51100000000E-03 0.  1.
         11   -1    0    0    0    0 -0.00000000000E+00 -0.00000000000E+00 -0.45593999997E+02  0.45594000000E+02  0.51100000000E-03 0. -1.
    9900012    2    1    2    0    0  0.23274056390E+02 -0.32469765704E+02 -0.75634683141E+01  0.50528764411E+02  0.29999709902E+02 0.  0.
        -12    1    1    2    0    0 -0.23274056390E+02  0.32469765704E+02  0.75634683141E+01  0.40659235589E+02  0.00000000000E+00 0.  1.
         11    1    3    3    0    0  0.12907056146E+02  0.10662920075E+01  0.12606584181E+00  0.12951639659E+02  0.51100000000E-03 0. -1.
        -11    1    3    3    0    0 -0.66242151664E+00  0.17672978226E+00  0.85051562128E+00  0.10924343297E+01  0.51100000000E-03 0.  1.
         12    1    3    3    0    0  0.11029421761E+02 -0.33712787494E+02 -0.85400497772E+01  0.36484690422E+02  0.00000000000E+00 0. -1.
</event>
<event>
 7    1  0.2835316E-011  0.5052881E+02  0.7816164E-02  0.1300439E+00
        -11   -1    0    0    0    0  0.00000000000E+00  0.00000000000E+00  0.45593999997E+02  0.45594000000E+02  0.51100000000E-03 0.  1.
         11   -1    0    0    0    0 -0.00000000000E+00 -0.00000000000E+00 -0.45593999997E+02  0.45594000000E+02  0.51100000000E-03 0. -1.
    9900012    2    1    2    0    0 -0.13825568293E+01 -0.31251385693E+02 -0.25973233694E+02  0.50528813589E+02  0.29999859385E+02 0.  0.
        -12    1    1    2    0    0  0.13825568293E+01  0.31251385693E+02  0.25973233694E+02  0.40659186411E+02  0.00000000000E+00 0.  1.
         11    1    3    3    0    0  0.24655477582E+01  0.13296786842E+01 -0.93325384980E+01  0.97438825028E+01  0.51100000000E-03 0. -1.
        -11    1    3    3    0    0  0.21098256392E+01 -0.15754807330E+02  0.68371023601E+00  0.15910147020E+02  0.51100000000E-03 0.  1.
         12    1    3    3    0    0 -0.59579302266E+01 -0.16826257046E+02 -0.17324405432E+02  0.24874784066E+02  0.00000000000E+00 0. -1.
</event>
<event>
 7    1  0.2835316E-011  0.5052885E+02  0.7816164E-02  0.1300439E+00
        -11   -1    0    0    0    0  0.00000000000E+00  0.00000000000E+00  0.45593999997E+02  0.45594000000E+02  0.51100000000E-03 0. -1.
         11   -1    0    0    0    0 -0.00000000000E+00 -0.00000000000E+00 -0.45593999997E+02  0.45594000000E+02  0.51100000000E-03 0.  1.
    9900012    2    1    2    0    0 -0.24123936876E+02 -0.18764676116E+02  0.26815830521E+02  0.50528853837E+02  0.29999981724E+02 0.  0.
        -12    1    1    2    0    0  0.24123936876E+02  0.18764676116E+02 -0.26815830521E+02  0.40659146163E+02  0.00000000000E+00 0.  1.
         11    1    3    3    0    0 -0.96465468969E+01  0.14367221157E+01  0.16750699635E+02  0.19383136382E+02  0.51100000000E-03 0. -1.
        -11    1    3    3    0    0  0.11793705459E+01 -0.60723267846E+01  0.77702001794E+01  0.99317711690E+01  0.51100000000E-03 0.  1.
         12    1    3    3    0    0 -0.15656760525E+02 -0.14129071447E+02  0.22949307067E+01  0.21213946286E+02  0.00000000000E+00 0. -1.
</event>
<event>
 7    1  0.2835316E-011  0.5052886E+02  0.7816164E-02  0.1300439E+00
        -11   -1    0    0    0    0  0.00000000000E+00  0.00000000000E+00  0.45593999997E+02  0.45594000000E+02  0.51100000000E-03 0.  1.
         11   -1    0    0    0    0 -0.00000000000E+00 -0.00000000000E+00 -0.45593999997E+02  0.45594000000E+02  0.51100000000E-03 0. -1.
    9900012    2    1    2    0    0 -0.26861587735E+02 -0.22218627373E+02 -0.20927338468E+02  0.50528858428E+02  0.29999995679E+02 0.  0.
        -12    1    1    2    0    0  0.26861587735E+02  0.22218627373E+02  0.20927338468E+02  0.40659141572E+02  0.00000000000E+00 0.  1.
         11    1    3    3    0    0 -0.38339212798E+01 -0.10058706331E+01 -0.14841945395E+02  0.15362098538E+02  0.51100000000E-03 0. -1.
        -11    1    3    3    0    0 -0.34017738866E+01  0.13390245582E+01  0.20399343457E+01  0.41864525243E+01  0.51100000000E-03 0.  1.
         12    1    3    3    0    0 -0.19625892568E+02 -0.22551781298E+02 -0.81253274181E+01  0.30980307366E+02  0.00000000000E+00 0. -1.
</event>
<event>
 7    1  0.2835316E-011  0.5052891E+02  0.7816164E-02  0.1300439E+00
        -11   -1    0    0    0    0  0.00000000000E+00  0.00000000000E+00  0.45593999997E+02  0.45594000000E+02  0.51100000000E-03 0.  1.
         11   -1    0    0    0    0 -0.00000000000E+00 -0.00000000000E+00 -0.45593999997E+02  0.45594000000E+02  0.51100000000E-03 0. -1.
    9900012    2    1    2    0    0  0.39069479776E+02 -0.10778598034E+02 -0.32494967512E+01  0.50528909324E+02  0.30000150379E+02 0.  0.
        -12    1    1    2    0    0 -0.39069479776E+02  0.10778598034E+02  0.32494967512E+01  0.40659090676E+02  0.00000000000E+00 0.  1.
         11    1    3    3    0    0  0.24548999007E+02 -0.98590886487E+01 -0.12078130050E+01  0.26482329840E+02  0.51100000000E-03 0. -1.
        -11    1    3    3    0    0  0.11625469445E+02 -0.91898586256E+01 -0.33337204795E+01  0.15189428359E+02  0.51100000000E-03 0.  1.
        -12    1    3    3    0    0  0.28950113234E+01  0.82703492407E+01  0.12920367332E+01  0.88571511246E+01  0.00000000000E+00 0.  1.
</event>
<event>
 7    1  0.2835316E-011  0.5052886E+02  0.7816164E-02  0.1300439E+00
        -11   -1    0    0    0    0  0.00000000000E+00  0.00000000000E+00  0.45593999997E+02  0.45594000000E+02  0.51100000000E-03 0.  1.
         11   -1    0    0    0    0 -0.00000000000E+00 -0.00000000000E+00 -0.45593999997E+02  0.45594000000E+02  0.51100000000E-03 0. -1.
    9900012    2    1    2    0    0 -0.30017807758E+02  0.10328598180E+02 -0.25405062378E+02  0.50528856903E+02  0.29999991042E+02 0.  0.
        -12    1    1    2    0    0  0.30017807758E+02 -0.10328598180E+02  0.25405062378E+02  0.40659143097E+02  0.00000000000E+00 0.  1.
         11    1    3    3    0    0 -0.13322903148E+02  0.20946918315E+00 -0.90721606486E+00  0.13355398417E+02  0.51100000000E-03 0. -1.
        -11    1    3    3    0    0 -0.11823199525E+02  0.10475481107E+02 -0.42687288872E+01  0.16362939773E+02  0.51100000000E-03 0.  1.
        -12    1    3    3    0    0 -0.48717050842E+01 -0.35635211044E+00 -0.20229117426E+02  0.20810518713E+02  0.00000000000E+00 0.  1.
</event>
<event>
 7    1  0.2835316E-011  0.5052886E+02  0.7816164E-02  0.1300439E+00
        -11   -1    0    0    0    0  0.00000000000E+00  0.00000000000E+00  0.45593999997E+02  0.45594000000E+02  0.51100000000E-03 0.  1.
         11   -1    0    0    0    0 -0.00000000000E+00 -0.00000000000E+00 -0.45593999997E+02  0.45594000000E+02  0.51100000000E-03 0. -1.
    9900012    2    1    2    0    0  0.53024461704E+00 -0.46659160356E+01 -0.40387053221E+02  0.50528855891E+02  0.29999987965E+02 0.  0.
        -12    1    1    2    0    0 -0.53024461704E+00  0.46659160356E+01  0.40387053221E+02  0.40659144109E+02  0.00000000000E+00 0.  1.
         11    1    3    3    0    0 -0.25180078863E+01 -0.45719883330E+01 -0.12324253237E+02  0.13383970231E+02  0.51100000000E-03 0. -1.
        -11    1    3    3    0    0 -0.10373919772E+02  0.11336643673E+01 -0.88919133831E+01  0.13710198037E+02  0.51100000000E-03 0.  1.
         12    1    3    3    0    0  0.13422172276E+02 -0.12275920699E+01 -0.19170886602E+02  0.23434687623E+02  0.00000000000E+00 0. -1.
</event>
<event>
 7    1  0.2835316E-011  0.5052886E+02  0.7816164E-02  0.1300439E+00
        -11   -1    0    0    0    0  0.00000000000E+00  0.00000000000E+00  0.45593999997E+02  0.45594000000E+02  0.51100000000E-03 0.  1.
         11   -1    0    0    0    0 -0.00000000000E+00 -0.00000000000E+00 -0.45593999997E+02  0.45594000000E+02  0.51100000000E-03 0. -1.
    9900012    2    1    2    0    0 -0.29915256628E+02 -0.57286659549E+01 -0.26933722261E+02  0.50528860959E+02  0.30000003370E+02 0.  0.
        -12    1    1    2    0    0  0.29915256628E+02  0.57286659549E+01  0.26933722261E+02  0.40659139041E+02  0.00000000000E+00 0.  1.
         11    1    3    3    0    0 -0.34989512394E+02 -0.57338330371E+01 -0.23990437400E+02  0.42809857577E+02  0.51100000000E-03 0. -1.
        -11    1    3    3    0    0  0.10975033688E+01 -0.12071091960E+01  0.10615464836E+01  0.19464088609E+01  0.51100000000E-03 0.  1.
        -12    1    3    3    0    0  0.39767523970E+01  0.12122762782E+01 -0.40048313450E+01  0.57725945210E+01  0.00000000000E+00 0.  1.
</event>
<event>
 7    1  0.2835316E-011  0.5052885E+02  0.7816164E-02  0.1300439E+00
        -11   -1    0    0    0    0  0.00000000000E+00  0.00000000000E+00  0.45593999997E+02  0.45594000000E+02  0.51100000000E-03 0.  1.
         11   -1    0    0    0    0 -0.00000000000E+00 -0.00000000000E+00 -0.45593999997E+02  0.45594000000E+02  0.51100000000E-03 0. -1.
    9900012    2    1    2    0    0 -0.15241361607E+01 -0.30845716756E+02 -0.26445898722E+02  0.50528846141E+02  0.29999958332E+02 0.  0.
        -12    1    1    2    0    0  0.15241361607E+01  0.30845716756E+02  0.26445898722E+02  0.40659153859E+02  0.00000000000E+00 0.  1.
         11    1    3    3    0    0  0.72989630058E-03  0.33738937377E+01 -0.45085194843E+01  0.56311550935E+01  0.51100000000E-03 0. -1.
        -11    1    3    3    0    0 -0.51152006986E+01 -0.15677152171E+02 -0.74048409964E+00  0.16507171028E+02  0.51100000000E-03 0.  1.
         12    1    3    3    0    0  0.35903346416E+01 -0.18542458323E+02 -0.21196895139E+02  0.28390520020E+02  0.00000000000E+00 0. -1.
</event>
<event>
 7    1  0.2835316E-011  0.5052886E+02  0.7816164E-02  0.1300439E+00
        -11   -1    0    0    0    0  0.00000000000E+00  0.00000000000E+00  0.45593999997E+02  0.45594000000E+02  0.51100000000E-03 0.  1.
         11   -1    0    0    0    0 -0.00000000000E+00 -0.00000000000E+00 -0.45593999997E+02  0.45594000000E+02  0.51100000000E-03 0. -1.
    9900012    2    1    2    0    0  0.26357784170E+02  0.55285510423E+01 -0.30460923982E+02  0.50528861386E+02  0.30000004669E+02 0.  0.
        -12    1    1    2    0    0 -0.26357784170E+02 -0.55285510423E+01  0.30460923982E+02  0.40659138614E+02  0.00000000000E+00 0.  1.
         11    1    3    3    0    0  0.48815203629E+01 -0.39481901038E+01 -0.63644863601E+01  0.89400298120E+01  0.51100000000E-03 0. -1.
        -11    1    3    3    0    0  0.20593051253E+01 -0.57042804223E+01 -0.13423825864E+02  0.14730195308E+02  0.51100000000E-03 0.  1.
        -12    1    3    3    0    0  0.19416958682E+02  0.15181021568E+02 -0.10672611758E+02  0.26858636266E+02  0.00000000000E+00 0.  1.
</event>
<event>
 7    1  0.2835316E-011  0.5052886E+02  0.7816164E-02  0.1300439E+00
        -11   -1    0    0    0    0  0.00000000000E+00  0.00000000000E+00  0.45593999997E+02  0.45594000000E+02  0.51100000000E-03 0.  1.
         11   -1    0    0    0    0 -0.00000000000E+00 -0.00000000000E+00 -0.45593999997E+02  0.45594000000E+02  0.51100000000E-03 0. -1.
    9900012    2    1    2    0    0 -0.18551102022E+02 -0.20139090464E+02 -0.30057270304E+02  0.50528857743E+02  0.29999993597E+02 0.  0.
        -12    1    1    2    0    0  0.18551102022E+02  0.20139090464E+02  0.30057270304E+02  0.40659142257E+02  0.00000000000E+00 0.  1.
         11    1    3    3    0    0  0.38550973661E+01 -0.59960318017E+01 -0.77567676467E+00  0.71704844867E+01  0.51100000000E-03 0. -1.
        -11    1    3    3    0    0 -0.11045474842E+02 -0.32716242564E+01 -0.17488395994E+01  0.11651801576E+02  0.51100000000E-03 0.  1.
         12    1    3    3    0    0 -0.11360724546E+02 -0.10871434406E+02 -0.27532753939E+02  0.31706571681E+02  0.00000000000E+00 0. -1.
</event>
<event>
 7    1  0.2835316E-011  0.5052886E+02  0.7816164E-02  0.1300439E+00
        -11   -1    0    0    0    0  0.00000000000E+00  0.00000000000E+00  0.45593999997E+02  0.45594000000E+02  0.51100000000E-03 0. -1.
         11   -1    0    0    0    0 -0.00000000000E+00 -0.00000000000E+00 -0.45593999997E+02  0.45594000000E+02  0.51100000000E-03 0.  1.
    9900012    2    1    2    0    0  0.14527193207E+02  0.22915691687E+02  0.30281967889E+02  0.50528857766E+02  0.29999993664E+02 0.  0.
        -12    1    1    2    0    0 -0.14527193207E+02 -0.22915691687E+02 -0.30281967889E+02  0.40659142234E+02  0.00000000000E+00 0.  1.
         11    1    3    3    0    0  0.39345453313E+01  0.33109666138E+01  0.76499164580E+01  0.92176118902E+01  0.51100000000E-03 0. -1.
        -11    1    3    3    0    0 -0.33854996257E+01 -0.48600146253E+01  0.15545442712E+01  0.61235576282E+01  0.51100000000E-03 0.  1.
         12    1    3    3    0    0  0.13978147502E+02  0.24464739699E+02  0.21077507160E+02  0.35187688247E+02  0.00000000000E+00 0. -1.
</event>
<event>
 7    1  0.2835316E-011  0.5052886E+02  0.7816164E-02  0.1300439E+00
        -11   -1    0    0    0    0  0.00000000000E+00  0.00000000000E+00  0.45593999997E+02  0.45594000000E+02  0.51100000000E-03 0.  1.
         11   -1    0    0    0    0 -0.00000000000E+00 -0.00000000000E+00 -0.45593999997E+02  0.45594000000E+02  0.51100000000E-03 0. -1.
    9900012    2    1    2    0    0 -0.23099558831E+02 -0.11961036382E+02 -0.31249156970E+02  0.50528858090E+02  0.29999994651E+02 0.  0.
        -12    1    1    2    0    0  0.23099558831E+02  0.11961036382E+02  0.31249156970E+02  0.40659141910E+02  0.00000000000E+00 0.  1.
         11    1    3    3    0    0  0.25430805362E+01  0.15618363460E+01 -0.38292813501E+00  0.30088578569E+01  0.51100000000E-03 0. -1.
        -11    1    3    3    0    0 -0.21963972397E+02 -0.90268737978E+01 -0.98375124786E+01  0.25703641494E+02  0.51100000000E-03 0.  1.
         12    1    3    3    0    0 -0.36786669702E+01 -0.44959989299E+01 -0.21028716356E+02  0.21816358740E+02  0.00000000000E+00 0. -1.
</event>
<event>
 7    1  0.2835316E-011  0.5052886E+02  0.7816164E-02  0.1300439E+00
        -11   -1    0    0    0    0  0.00000000000E+00  0.00000000000E+00  0.45593999997E+02  0.45594000000E+02  0.51100000000E-03 0.  1.
         11   -1    0    0    0    0 -0.00000000000E+00 -0.00000000000E+00 -0.45593999997E+02  0.45594000000E+02  0.51100000000E-03 0. -1.
    9900012    2    1    2    0    0 -0.15574212352E+02  0.97252962080E+01 -0.36277104537E+02  0.50528858466E+02  0.29999995793E+02 0.  0.
        -12    1    1    2    0    0  0.15574212352E+02 -0.97252962080E+01  0.36277104537E+02  0.40659141534E+02  0.00000000000E+00 0.  1.
         11    1    3    3    0    0 -0.69866078686E+01 -0.74787266718E-01 -0.16653455598E+02  0.18059785886E+02  0.51100000000E-03 0. -1.
        -11    1    3    3    0    0 -0.13814400582E+02  0.40527045221E+01 -0.38756650389E+01  0.14909153468E+02  0.51100000000E-03 0.  1.
         12    1    3    3    0    0  0.52267960986E+01  0.57473789526E+01 -0.15747983900E+02  0.17559919111E+02  0.00000000000E+00 0. -1.
</event>
<event>
 7    1  0.2835316E-011  0.5052886E+02  0.7816164E-02  0.1300439E+00
        -11   -1    0    0    0    0  0.00000000000E+00  0.00000000000E+00  0.45593999997E+02  0.45594000000E+02  0.51100000000E-03 0.  1.
         11   -1    0    0    0    0 -0.00000000000E+00 -0.00000000000E+00 -0.45593999997E+02  0.45594000000E+02  0.51100000000E-03 0. -1.
    9900012    2    1    2    0    0 -0.14492926198E+02  0.30570943973E+02 -0.22550791956E+02  0.50528859047E+02  0.29999997559E+02 0.  0.
        -12    1    1    2    0    0  0.14492926198E+02 -0.30570943973E+02  0.22550791956E+02  0.40659140953E+02  0.00000000000E+00 0.  1.
         11    1    3    3    0    0  0.18120472899E+01  0.15648243600E+02 -0.38397420184E+01  0.16214026710E+02  0.51100000000E-03 0. -1.
        -11    1    3    3    0    0 -0.12744813131E+02  0.42843725255E+01 -0.11742418864E+01  0.13496849778E+02  0.51100000000E-03 0.  1.
         12    1    3    3    0    0 -0.35601603577E+01  0.10638327848E+02 -0.17536808051E+02  0.20817982558E+02  0.00000000000E+00 0. -1.
</event>
<event>
 7    1  0.2835316E-011  0.5052886E+02  0.7816164E-02  0.1300439E+00
        -11   -1    0    0    0    0  0.00000000000E+00  0.00000000000E+00  0.45593999997E+02  0.45594000000E+02  0.51100000000E-03 0.  1.
         11   -1    0    0    0    0 -0.00000000000E+00 -0.00000000000E+00 -0.45593999997E+02  0.45594000000E+02  0.51100000000E-03 0. -1.
    9900012    2    1    2    0    0 -0.21151083232E+02 -0.28066995168E+02 -0.20446060286E+02  0.50528856860E+02  0.29999990913E+02 0.  0.
        -12    1    1    2    0    0  0.21151083232E+02  0.28066995168E+02  0.20446060286E+02  0.40659143140E+02  0.00000000000E+00 0.  1.
         11    1    3    3    0    0 -0.78487077794E+01 -0.76247336312E+01  0.23354551656E+01  0.11188973494E+02  0.51100000000E-03 0.  1.
        -11    1    3    3    0    0 -0.12916516855E+02 -0.19930991477E+02 -0.26489070622E+02  0.35577404228E+02  0.51100000000E-03 0. -1.
         12    1    3    3    0    0 -0.38585859773E+00 -0.51127005963E+00  0.37075551703E+01  0.37624791391E+01  0.00000000000E+00 0. -1.
</event>
<event>
 7    1  0.2835316E-011  0.5052886E+02  0.7816164E-02  0.1300439E+00
        -11   -1    0    0    0    0  0.00000000000E+00  0.00000000000E+00  0.45593999997E+02  0.45594000000E+02  0.51100000000E-03 0.  1.
         11   -1    0    0    0    0 -0.00000000000E+00 -0.00000000000E+00 -0.45593999997E+02  0.45594000000E+02  0.51100000000E-03 0. -1.
    9900012    2    1    2    0    0  0.30143887683E+02  0.18214610988E+02 -0.20315991637E+02  0.50528861615E+02  0.30000005364E+02 0.  0.
        -12    1    1    2    0    0 -0.30143887683E+02 -0.18214610988E+02  0.20315991637E+02  0.40659138385E+02  0.00000000000E+00 0.  1.
         11    1    3    3    0    0  0.23908547374E+02  0.38772292841E+01 -0.10366240745E+02  0.26345976769E+02  0.51100000000E-03 0. -1.
        -11    1    3    3    0    0  0.74737004669E+01  0.10146225096E+02 -0.13562019409E+02  0.18512980664E+02  0.51100000000E-03 0.  1.
        -12    1    3    3    0    0 -0.12383601581E+01  0.41911566072E+01  0.36122685171E+01  0.56699041815E+01  0.00000000000E+00 0.  1.
</event>
<event>
 7    1  0.2835316E-011  0.5052887E+02  0.7816164E-02  0.1300439E+00
        -11   -1    0    0    0    0  0.00000000000E+00  0.00000000000E+00  0.45593999997E+02  0.45594000000E+02  0.51100000000E-03 0.  1.
         11   -1    0    0    0    0 -0.00000000000E+00 -0.00000000000E+00 -0.45593999997E+02  0.45594000000E+02  0.51100000000E-03 0. -1.
    9900012    2    1    2    0    0 -0.33964716446E+02  0.20475161863E+02  0.89627575877E+01  0.50528865231E+02  0.30000016357E+02 0.  0.
        -12    1    1    2    0    0  0.33964716446E+02 -0.20475161863E+02 -0.89627575877E+01  0.40659134769E+02  0.00000000000E+00 0.  1.
         11    1    3    3    0    0  0.19426635029E+01 -0.21983341432E+01 -0.14660211550E+01  0.32796086319E+01  0.51100000000E-03 0. -1.
        -11    1    3    3    0    0 -0.82850773888E+01  0.11226504349E+02  0.10310326214E+02  0.17348767511E+02  0.51100000000E-03 0.  1.
         12    1    3    3    0    0 -0.27622302560E+02  0.11446991657E+02  0.11845252844E+00  0.29900489088E+02  0.00000000000E+00 0. -1.
</event>
<event>
 7    1  0.2835316E-011  0.5052886E+02  0.7816164E-02  0.1300439E+00
        -11   -1    0    0    0    0  0.00000000000E+00  0.00000000000E+00  0.45593999997E+02  0.45594000000E+02  0.51100000000E-03 0.  1.
         11   -1    0    0    0    0 -0.00000000000E+00 -0.00000000000E+00 -0.45593999997E+02  0.45594000000E+02  0.51100000000E-03 0. -1.
    9900012    2    1    2    0    0  0.16964412522E+02  0.25893703800E+02  0.26360778396E+02  0.50528858022E+02  0.29999994445E+02 0.  0.
        -12    1    1    2    0    0 -0.16964412522E+02 -0.25893703800E+02 -0.26360778396E+02  0.40659141978E+02  0.00000000000E+00 0.  1.
         11    1    3    3    0    0  0.90366882457E+01  0.37642764911E+01 -0.48752736635E+00  0.98014894351E+01  0.51100000000E-03 0. -1.
        -11    1    3    3    0    0  0.18577588221E+01  0.44307276830E+00  0.15300766584E+02  0.15419501926E+02  0.51100000000E-03 0.  1.
        -12    1    3    3    0    0  0.60699654543E+01  0.21686354540E+02  0.11547539179E+02  0.25307866661E+02  0.00000000000E+00 0.  1.
</event>
<event>
 7    1  0.2835316E-011  0.5052886E+02  0.7816164E-02  0.1300439E+00
        -11   -1    0    0    0    0  0.00000000000E+00  0.00000000000E+00  0.45593999997E+02  0.45594000000E+02  0.51100000000E-03 0. -1.
         11   -1    0    0    0    0 -0.00000000000E+00 -0.00000000000E+00 -0.45593999997E+02  0.45594000000E+02  0.51100000000E-03 0.  1.
    9900012    2    1    2    0    0 -0.32755340398E+02  0.20257734198E+01  0.24003108535E+02  0.50528864472E+02  0.30000014048E+02 0.  0.
        -12    1    1    2    0    0  0.32755340398E+02 -0.20257734198E+01 -0.24003108535E+02  0.40659135528E+02  0.00000000000E+00 0.  1.
         11    1    3    3    0    0 -0.15059917129E+02  0.43942830018E+01  0.14972622011E+02  0.21686176177E+02  0.51100000000E-03 0. -1.
        -11    1    3    3    0    0 -0.37209260511E+01  0.87592336681E+01  0.35464195228E+01  0.10156109335E+02  0.51100000000E-03 0.  1.
        -12    1    3    3    0    0 -0.13974497218E+02 -0.11127743250E+02  0.54840670014E+01  0.18686578960E+02  0.00000000000E+00 0.  1.
</event>
<event>
 7    1  0.2835316E-011  0.5052886E+02  0.7816164E-02  0.1300439E+00
        -11   -1    0    0    0    0  0.00000000000E+00  0.00000000000E+00  0.45593999997E+02  0.45594000000E+02  0.51100000000E-03 0.  1.
         11   -1    0    0    0    0 -0.00000000000E+00 -0.00000000000E+00 -0.45593999997E+02  0.45594000000E+02  0.51100000000E-03 0. -1.
    9900012    2    1    2    0    0  0.37066531416E+02  0.18222014521E+01 -0.16610766250E+02  0.50528859272E+02  0.29999998243E+02 0.  0.
        -12    1    1    2    0    0 -0.37066531416E+02 -0.18222014521E+01  0.16610766250E+02  0.40659140728E+02  0.00000000000E+00 0.  1.
         11    1    3    3    0    0  0.63408402530E+01 -0.82833862372E+00 -0.22892764705E+01  0.67921415628E+01  0.51100000000E-03 0. -1.
        -11    1    3    3    0    0  0.17494896858E+02 -0.12280307940E+02 -0.75777586049E+01  0.22678179048E+02  0.51100000000E-03 0.  1.
         12    1    3    3    0    0  0.13230794305E+02  0.14930848016E+02 -0.67437311742E+01  0.21058538661E+02  0.00000000000E+00 0. -1.
</event>
<event>
 7    1  0.2835316E-011  0.5052885E+02  0.7816164E-02  0.1300439E+00
        -11   -1    0    0    0    0  0.00000000000E+00  0.00000000000E+00  0.45593999997E+02  0.45594000000E+02  0.51100000000E-03 0. -1.
         11   -1    0    0    0    0 -0.00000000000E+00 -0.00000000000E+00 -0.45593999997E+02  0.45594000000E+02  0.51100000000E-03 0.  1.
    9900012    2    1    2    0    0 -0.32335712730E+02  0.19909961206E+02 -0.14531396149E+02  0.50528851619E+02  0.29999974982E+02 0.  0.
        -12    1    1    2    0    0  0.32335712730E+02 -0.19909961206E+02  0.14531396149E+02  0.40659148381E+02  0.00000000000E+00 0.  1.
         11    1    3    3    0    0 -0.15904969381E+02 -0.28542615557E+01 -0.18450795020E+01  0.16264045582E+02  0.51100000000E-03 0. -1.
        -11    1    3    3    0    0 -0.44525868604E+01  0.91794654945E+01  0.26405842202E+01  0.10538538883E+02  0.51100000000E-03 0.  1.
        -12    1    3    3    0    0 -0.11978156488E+02  0.13584757267E+02 -0.15326900867E+02  0.23726267154E+02  0.00000000000E+00 0.  1.
</event>
<event>
 7    1  0.2835316E-011  0.5052885E+02  0.7816164E-02  0.1300439E+00
        -11   -1    0    0    0    0  0.00000000000E+00  0.00000000000E+00  0.45593999997E+02  0.45594000000E+02  0.51100000000E-03 0. -1.
         11   -1    0    0    0    0 -0.00000000000E+00 -0.00000000000E+00 -0.45593999997E+02  0.45594000000E+02  0.51100000000E-03 0.  1.
    9900012    2    1    2    0    0  0.18246014971E+02  0.34099090918E+02  0.12549943655E+02  0.50528854048E+02  0.29999982365E+02 0.  0.
        -12    1    1    2    0    0 -0.18246014971E+02 -0.34099090918E+02 -0.12549943655E+02  0.40659145952E+02  0.00000000000E+00 0.  1.
         11    1    3    3    0    0 -0.26160184696E+01  0.13299390052E+02  0.13238411124E+02  0.18946579051E+02  0.51100000000E-03 0. -1.
        -11    1    3    3    0    0  0.19091425804E+01 -0.14130091217E+01 -0.56016420930E-01  0.23758279127E+01  0.51100000000E-03 0.  1.
        -12    1    3    3    0    0  0.18952890860E+02  0.22212709988E+02 -0.63245104770E+00  0.29206447084E+02  0.00000000000E+00 0.  1.
</event>
<event>
 7    1  0.2835316E-011  0.5052886E+02  0.7816164E-02  0.1300439E+00
        -11   -1    0    0    0    0  0.00000000000E+00  0.00000000000E+00  0.45593999997E+02  0.45594000000E+02  0.51100000000E-03 0.  1.
         11   -1    0    0    0    0 -0.00000000000E+00 -0.00000000000E+00 -0.45593999997E+02  0.45594000000E+02  0.51100000000E-03 0. -1.
    9900012    2    1    2    0    0 -0.28499737131E+02  0.26425170191E+02 -0.11943253638E+02  0.50528856580E+02  0.29999990062E+02 0.  0.
        -12    1    1    2    0    0  0.28499737131E+02 -0.26425170191E+02  0.11943253638E+02  0.40659143420E+02  0.00000000000E+00 0.  1.
         11    1    3    3    0    0 -0.89549585395E+01  0.24931523688E+01 -0.60573538338E+01  0.11094982060E+02  0.51100000000E-03 0. -1.
        -11    1    3    3    0    0 -0.13460209484E+02  0.26170410850E+02 -0.10747716007E+02  0.31330193792E+02  0.51100000000E-03 0.  1.
        -12    1    3    3    0    0 -0.60845691073E+01 -0.22383930273E+01  0.48618162029E+01  0.81036807290E+01  0.00000000000E+00 0.  1.
</event>
<event>
 7    1  0.2835316E-011  0.5052886E+02  0.7816164E-02  0.1300439E+00
        -11   -1    0    0    0    0  0.00000000000E+00  0.00000000000E+00  0.45593999997E+02  0.45594000000E+02  0.51100000000E-03 0.  1.
         11   -1    0    0    0    0 -0.00000000000E+00 -0.00000000000E+00 -0.45593999997E+02  0.45594000000E+02  0.51100000000E-03 0. -1.
    9900012    2    1    2    0    0  0.10922451462E+02  0.56059040583E+01 -0.38761311986E+02  0.50528863104E+02  0.30000009891E+02 0.  0.
        -12    1    1    2    0    0 -0.10922451462E+02 -0.56059040583E+01  0.38761311986E+02  0.40659136896E+02  0.00000000000E+00 0.  1.
         11    1    3    3    0    0 -0.32268338564E+01 -0.12268983257E+01 -0.11125026124E+01  0.36270371603E+01  0.51100000000E-03 0. -1.
        -11    1    3    3    0    0 -0.55269845811E+00  0.11733744199E+02 -0.11103983187E+02  0.16164302379E+02  0.51100000000E-03 0.  1.
         12    1    3    3    0    0  0.14701983777E+02 -0.49009418152E+01 -0.26544826186E+02  0.30737523565E+02  0.00000000000E+00 0. -1.
</event>
<event>
 7    1  0.2835316E-011  0.5052888E+02  0.7816164E-02  0.1300439E+00
        -11   -1    0    0    0    0  0.00000000000E+00  0.00000000000E+00  0.45593999997E+02  0.45594000000E+02  0.51100000000E-03 0. -1.
         11   -1    0    0    0    0 -0.00000000000E+00 -0.00000000000E+00 -0.45593999997E+02  0.45594000000E+02  0.51100000000E-03 0.  1.
    9900012    2    1    2    0    0 -0.40960280182E+01  0.33853063893E+02  0.22144001592E+02  0.50528878183E+02  0.30000055724E+02 0.  0.
        -12    1    1    2    0    0  0.40960280182E+01 -0.33853063893E+02 -0.22144001592E+02  0.40659121817E+02  0.00000000000E+00 0.  1.
         11    1    3    3    0    0 -0.13109128891E+01  0.23250539787E+01  0.14413301639E+02  0.14658363926E+02  0.51100000000E-03 0. -1.
        -11    1    3    3    0    0  0.33245092607E+01  0.11221361853E+01 -0.10053568688E+01  0.36499717996E+01  0.51100000000E-03 0.  1.
         12    1    3    3    0    0 -0.61096243897E+01  0.30405873729E+02  0.87360568216E+01  0.32220542457E+02  0.00000000000E+00 0. -1.
</event>
<event>
 7    1  0.2835316E-011  0.5052886E+02  0.7816164E-02  0.1300439E+00
        -11   -1    0    0    0    0  0.00000000000E+00  0.00000000000E+00  0.45593999997E+02  0.45594000000E+02  0.51100000000E-03 0.  1.
         11   -1    0    0    0    0 -0.00000000000E+00 -0.00000000000E+00 -0.45593999997E+02  0.45594000000E+02  0.51100000000E-03 0. -1.
    9900012    2    1    2    0    0  0.38119179401E+02 -0.12439795680E+01 -0.14090635081E+02  0.50528864245E+02  0.30000013358E+02 0.  0.
        -12    1    1    2    0    0 -0.38119179401E+02  0.12439795680E+01  0.14090635081E+02  0.40659135755E+02  0.00000000000E+00 0.  1.
         11    1    3    3    0    0  0.23538772692E+02  0.91305282690E+00 -0.12448972643E+02  0.26643656007E+02  0.51100000000E-03 0. -1.
        -11    1    3    3    0    0  0.15687690848E+02 -0.71508301515E+01  0.23459165969E+01  0.17399463812E+02  0.51100000000E-03 0.  1.
         12    1    3    3    0    0 -0.11072841386E+01  0.49937977566E+01 -0.39875790350E+01  0.64857444259E+01  0.00000000000E+00 0. -1.
</event>
<event>
 7    1  0.2835316E-011  0.5052893E+02  0.7816164E-02  0.1300439E+00
        -11   -1    0    0    0    0  0.00000000000E+00  0.00000000000E+00  0.45593999997E+02  0.45594000000E+02  0.51100000000E-03 0.  1.
         11   -1    0    0    0    0 -0.00000000000E+00 -0.00000000000E+00 -0.45593999997E+02  0.45594000000E+02  0.51100000000E-03 0. -1.
    9900012    2    1    2    0    0  0.38231194572E+02 -0.81251120417E+01  0.11203488984E+02  0.50528931522E+02  0.30000217853E+02 0.  0.
        -12    1    1    2    0    0 -0.38231194572E+02  0.81251120417E+01 -0.11203488984E+02  0.40659068478E+02  0.00000000000E+00 0.  1.
         11    1    3    3    0    0  0.12885352256E+02  0.23845894812E+01  0.56482533011E+01  0.14269594786E+02  0.51100000000E-03 0.  1.
        -11    1    3    3    0    0  0.12194741743E+02  0.61771084632E+01  0.61843596700E+01  0.15003822844E+02  0.51100000000E-03 0. -1.
         12    1    3    3    0    0  0.13151100574E+02 -0.16686809986E+02 -0.62912398739E+00  0.21255513892E+02  0.00000000000E+00 0. -1.
</event>
<event>
 7    1  0.2835316E-011  0.5052887E+02  0.7816164E-02  0.1300439E+00
        -11   -1    0    0    0    0  0.00000000000E+00  0.00000000000E+00  0.45593999997E+02  0.45594000000E+02  0.51100000000E-03 0.  1.
         11   -1    0    0    0    0 -0.00000000000E+00 -0.00000000000E+00 -0.45593999997E+02  0.45594000000E+02  0.51100000000E-03 0. -1.
    9900012    2    1    2    0    0 -0.25608645635E+02 -0.15945915753E+02 -0.27259674672E+02  0.50528870352E+02  0.30000031923E+02 0.  0.
        -12    1    1    2    0    0  0.25608645635E+02  0.15945915753E+02  0.27259674672E+02  0.40659129648E+02  0.00000000000E+00 0.  1.
         11    1    3    3    0    0 -0.20674758774E+02 -0.18825923704E+02 -0.24223238581E+02  0.36994950213E+02  0.51100000000E-03 0. -1.
        -11    1    3    3    0    0  0.68227143231E-01 -0.11994929903E+00 -0.66638126400E+01  0.66652413264E+01  0.51100000000E-03 0.  1.
         12    1    3    3    0    0 -0.50021140045E+01  0.29999572495E+01  0.36273765487E+01  0.68686788132E+01  0.00000000000E+00 0. -1.
</event>
<event>
 7    1  0.2835316E-011  0.5052885E+02  0.7816164E-02  0.1300439E+00
        -11   -1    0    0    0    0  0.00000000000E+00  0.00000000000E+00  0.45593999997E+02  0.45594000000E+02  0.51100000000E-03 0.  1.
         11   -1    0    0    0    0 -0.00000000000E+00 -0.00000000000E+00 -0.45593999997E+02  0.45594000000E+02  0.51100000000E-03 0. -1.
    9900012    2    1    2    0    0 -0.26228240308E+02 -0.25469279983E+02 -0.17792173299E+02  0.50528852897E+02  0.29999978864E+02 0.  0.
        -12    1    1    2    0    0  0.26228240308E+02  0.25469279983E+02  0.17792173299E+02  0.40659147103E+02  0.00000000000E+00 0.  1.
         11    1    3    3    0    0 -0.13471883179E+02 -0.31465731448E+01 -0.83431057111E+01  0.16155493559E+02  0.51100000000E-03 0. -1.
        -11    1    3    3    0    0 -0.11507944085E+02 -0.90250810503E+00 -0.24145598035E+01  0.11793108040E+02  0.51100000000E-03 0.  1.
        -12    1    3    3    0    0 -0.12484130430E+01 -0.21420198733E+02 -0.70345077844E+01  0.22580251298E+02  0.00000000000E+00 0.  1.
</event>
<event>
 7    1  0.2835316E-011  0.5052886E+02  0.7816164E-02  0.1300439E+00
        -11   -1    0    0    0    0  0.00000000000E+00  0.00000000000E+00  0.45593999997E+02  0.45594000000E+02  0.51100000000E-03 0. -1.
         11   -1    0    0    0    0 -0.00000000000E+00 -0.00000000000E+00 -0.45593999997E+02  0.45594000000E+02  0.51100000000E-03 0.  1.
    9900012    2    1    2    0    0  0.26881077555E+02  0.26772084440E+01  0.30387588619E+02  0.50528864278E+02  0.30000013459E+02 0.  0.
        -12    1    1    2    0    0 -0.26881077555E+02 -0.26772084440E+01 -0.30387588619E+02  0.40659135722E+02  0.00000000000E+00 0.  1.
         11    1    3    3    0    0  0.40127076292E+01  0.10794090838E+02  0.16342878971E+02  0.19992596451E+02  0.51100000000E-03 0. -1.
        -11    1    3    3    0    0  0.33616328591E+01 -0.29420914840E+01  0.85073492930E+01  0.96089265807E+01  0.51100000000E-03 0.  1.
         12    1    3    3    0    0  0.19506737066E+02 -0.51747909096E+01  0.55373603556E+01  0.20927341246E+02  0.00000000000E+00 0. -1.
</event>
<event>
 7    1  0.2835316E-011  0.5052886E+02  0.7816164E-02  0.1300439E+00
        -11   -1    0    0    0    0  0.00000000000E+00  0.00000000000E+00  0.45593999997E+02  0.45594000000E+02  0.51100000000E-03 0.  1.
         11   -1    0    0    0    0 -0.00000000000E+00 -0.00000000000E+00 -0.45593999997E+02  0.45594000000E+02  0.51100000000E-03 0. -1.
    9900012    2    1    2    0    0 -0.38803792199E+02  0.90740042916E+01 -0.80680711902E+01  0.50528860613E+02  0.30000002321E+02 0.  0.
        -12    1    1    2    0    0  0.38803792199E+02 -0.90740042916E+01  0.80680711902E+01  0.40659139387E+02  0.00000000000E+00 0.  1.
         11    1    3    3    0    0 -0.71814305183E+01  0.43392295052E+01  0.55603862815E+01  0.10065771349E+02  0.51100000000E-03 0. -1.
        -11    1    3    3    0    0 -0.69736172683E+01 -0.59902395749E+01  0.19450804015E+01  0.93966827125E+01  0.51100000000E-03 0.  1.
         12    1    3    3    0    0 -0.24648744413E+02  0.10725014361E+02 -0.15573537873E+02  0.31066406552E+02  0.00000000000E+00 0. -1.
</event>
<event>
 7    1  0.2835316E-011  0.5052885E+02  0.7816164E-02  0.1300439E+00
        -11   -1    0    0    0    0  0.00000000000E+00  0.00000000000E+00  0.45593999997E+02  0.45594000000E+02  0.51100000000E-03 0.  1.
         11   -1    0    0    0    0 -0.00000000000E+00 -0.00000000000E+00 -0.45593999997E+02  0.45594000000E+02  0.51100000000E-03 0. -1.
    9900012    2    1    2    0    0 -0.13343027027E+02  0.26591369529E+02 -0.27713341839E+02  0.50528848268E+02  0.29999964795E+02 0.  0.
        -12    1    1    2    0    0  0.13343027027E+02 -0.26591369529E+02  0.27713341839E+02  0.40659151732E+02  0.00000000000E+00 0.  1.
         11    1    3    3    0    0 -0.51177547244E+01  0.66221470872E+01 -0.24198614578E+01  0.87120591825E+01  0.51100000000E-03 0. -1.
        -11    1    3    3    0    0  0.52746873447E+01  0.12269513988E+02 -0.15579218847E+01  0.13445832847E+02  0.51100000000E-03 0.  1.
        -12    1    3    3    0    0 -0.13499959647E+02  0.76997084539E+01 -0.23735558496E+02  0.28370956238E+02  0.00000000000E+00 0.  1.
</event>
<event>
 7    1  0.2835316E-011  0.5052886E+02  0.7816164E-02  0.1300439E+00
        -11   -1    0    0    0    0  0.00000000000E+00  0.00000000000E+00  0.45593999997E+02  0.45594000000E+02  0.51100000000E-03 0.  1.
         11   -1    0    0    0    0 -0.00000000000E+00 -0.00000000000E+00 -0.45593999997E+02  0.45594000000E+02  0.51100000000E-03 0. -1.
    9900012    2    1    2    0    0  0.96456121052E+01  0.38549046357E+01 -0.39309890983E+02  0.50528860170E+02  0.30000000972E+02 0.  0.
        -12    1    1    2    0    0 -0.96456121052E+01 -0.38549046357E+01  0.39309890983E+02  0.40659139830E+02  0.00000000000E+00 0.  1.
         11    1    3    3    0    0  0.11529291733E+02  0.19850222322E+01 -0.71647167203E+01  0.13718529334E+02  0.51100000000E-03 0. -1.
        -11    1    3    3    0    0  0.56526328442E+01 -0.17158518598E+01 -0.32673836438E+01  0.67507186145E+01  0.51100000000E-03 0.  1.
         12    1    3    3    0    0 -0.75363124724E+01  0.35857342633E+01 -0.28877790619E+02  0.30059612222E+02  0.00000000000E+00 0. -1.
</event>
<event>
 7    1  0.2835316E-011  0.5052886E+02  0.7816164E-02  0.1300439E+00
        -11   -1    0    0    0    0  0.00000000000E+00  0.00000000000E+00  0.45593999997E+02  0.45594000000E+02  0.51100000000E-03 0. -1.
         11   -1    0    0    0    0 -0.00000000000E+00 -0.00000000000E+00 -0.45593999997E+02  0.45594000000E+02  0.51100000000E-03 0.  1.
    9900012    2    1    2    0    0 -0.27169612016E+02 -0.30077150051E+02 -0.32160890572E+01  0.50528855873E+02  0.29999987911E+02 0.  0.
        -12    1    1    2    0    0  0.27169612016E+02  0.30077150051E+02  0.32160890572E+01  0.40659144127E+02  0.00000000000E+00 0.  1.
         11    1    3    3    0    0 -0.45108220509E+01 -0.11577610831E+01 -0.45072164318E+01  0.64809664808E+01  0.51100000000E-03 0. -1.
        -11    1    3    3    0    0 -0.82561155524E+00 -0.15046276149E+02 -0.73618438353E+01  0.16771070488E+02  0.51100000000E-03 0.  1.
         12    1    3    3    0    0 -0.21833178410E+02 -0.13873112819E+02  0.86529712099E+01  0.27276818904E+02  0.00000000000E+00 0. -1.
</event>
<event>
 7    1  0.2835316E-011  0.5052886E+02  0.7816164E-02  0.1300439E+00
        -11   -1    0    0    0    0  0.00000000000E+00  0.00000000000E+00  0.45593999997E+02  0.45594000000E+02  0.51100000000E-03 0.  1.
         11   -1    0    0    0    0 -0.00000000000E+00 -0.00000000000E+00 -0.45593999997E+02  0.45594000000E+02  0.51100000000E-03 0. -1.
    9900012    2    1    2    0    0  0.10103189208E+02  0.15569379122E+02 -0.36175765207E+02  0.50528856050E+02  0.29999988451E+02 0.  0.
        -12    1    1    2    0    0 -0.10103189208E+02 -0.15569379122E+02  0.36175765207E+02  0.40659143950E+02  0.00000000000E+00 0.  1.
         11    1    3    3    0    0  0.11702073930E+02  0.69920187773E+01 -0.48012504990E+01  0.14452642231E+02  0.51100000000E-03 0.  1.
        -11    1    3    3    0    0 -0.89025013389E+00 -0.36207690721E+01 -0.19329573450E+01  0.41998617040E+01  0.51100000000E-03 0. -1.
         12    1    3    3    0    0 -0.70863458784E+00  0.12198129416E+02 -0.29441557363E+02  0.31876352116E+02  0.00000000000E+00 0. -1.
</event>
<event>
 7    1  0.2835316E-011  0.5052885E+02  0.7816164E-02  0.1300439E+00
        -11   -1    0    0    0    0  0.00000000000E+00  0.00000000000E+00  0.45593999997E+02  0.45594000000E+02  0.51100000000E-03 0.  1.
         11   -1    0    0    0    0 -0.00000000000E+00 -0.00000000000E+00 -0.45593999997E+02  0.45594000000E+02  0.51100000000E-03 0. -1.
    9900012    2    1    2    0    0 -0.26453675478E+02  0.26561239932E+02  0.15743895796E+02  0.50528847674E+02  0.29999962990E+02 0.  0.
        -12    1    1    2    0    0  0.26453675478E+02 -0.26561239932E+02 -0.15743895796E+02  0.40659152326E+02  0.00000000000E+00 0.  1.
         11    1    3    3    0    0 -0.59961441804E+01  0.21999683829E+01 -0.21932187688E+01  0.67530596582E+01  0.51100000000E-03 0. -1.
        -11    1    3    3    0    0 -0.17338046812E+02  0.29117447787E+02  0.17309691415E+02  0.38053371073E+02  0.51100000000E-03 0.  1.
         12    1    3    3    0    0 -0.31194844857E+01 -0.47561762374E+01  0.62742314976E+00  0.57224169428E+01  0.00000000000E+00 0. -1.
</event>
<event>
 7    1  0.2835316E-011  0.5052886E+02  0.7816164E-02  0.1300439E+00
        -11   -1    0    0    0    0  0.00000000000E+00  0.00000000000E+00  0.45593999997E+02  0.45594000000E+02  0.51100000000E-03 0. -1.
         11   -1    0    0    0    0 -0.00000000000E+00 -0.00000000000E+00 -0.45593999997E+02  0.45594000000E+02  0.51100000000E-03 0.  1.
    9900012    2    1    2    0    0  0.16823484119E+02  0.16782541963E+02  0.32992161243E+02  0.50528855443E+02  0.29999986604E+02 0.  0.
        -12    1    1    2    0    0 -0.16823484119E+02 -0.16782541963E+02 -0.32992161243E+02  0.40659144557E+02  0.00000000000E+00 0.  1.
         11    1    3    3    0    0  0.12056349529E+02  0.68454157676E+01  0.13467277032E+02  0.19328290972E+02  0.51100000000E-03 0. -1.
        -11    1    3    3    0    0  0.11739031982E+02  0.86133369509E+01  0.56530905296E+01  0.15618958932E+02  0.51100000000E-03 0.  1.
        -12    1    3    3    0    0 -0.69718973925E+01  0.13237892447E+01  0.13871793682E+02  0.15581605539E+02  0.00000000000E+00 0.  1.
</event>
<event>
 7    1  0.2835316E-011  0.5052885E+02  0.7816164E-02  0.1300439E+00
        -11   -1    0    0    0    0  0.00000000000E+00  0.00000000000E+00  0.45593999997E+02  0.45594000000E+02  0.51100000000E-03 0.  1.
         11   -1    0    0    0    0 -0.00000000000E+00 -0.00000000000E+00 -0.45593999997E+02  0.45594000000E+02  0.51100000000E-03 0. -1.
    9900012    2    1    2    0    0 -0.30478738010E+02 -0.26872812068E+02  0.14369298590E+01  0.50528852609E+02  0.29999977990E+02 0.  0.
        -12    1    1    2    0    0  0.30478738010E+02  0.26872812068E+02 -0.14369298590E+01  0.40659147391E+02  0.00000000000E+00 0.  1.
         11    1    3    3    0    0 -0.32152799099E+01  0.21974584481E+01  0.20964786461E+01  0.44229030630E+01  0.51100000000E-03 0.  1.
        -11    1    3    3    0    0 -0.22671778545E+02 -0.12332855217E+02 -0.83449300135E+01  0.27124651470E+02  0.51100000000E-03 0. -1.
         12    1    3    3    0    0 -0.45916795551E+01 -0.16737415299E+02  0.76853812264E+01  0.18981298076E+02  0.00000000000E+00 0. -1.
</event>
<event>
 7    1  0.2835316E-011  0.5052889E+02  0.7816164E-02  0.1300439E+00
        -11   -1    0    0    0    0  0.00000000000E+00  0.00000000000E+00  0.45593999997E+02  0.45594000000E+02  0.51100000000E-03 0. -1.
         11   -1    0    0    0    0 -0.00000000000E+00 -0.00000000000E+00 -0.45593999997E+02  0.45594000000E+02  0.51100000000E-03 0.  1.
    9900012    2    1    2    0    0 -0.50370929327E+01 -0.18450073623E+02  0.35880160975E+02  0.50528886956E+02  0.30000082393E+02 0.  0.
        -12    1    1    2    0    0  0.50370929327E+01  0.18450073623E+02 -0.35880160975E+02  0.40659113044E+02  0.00000000000E+00 0.  1.
         11    1    3    3    0    0 -0.22077582407E+00 -0.38202402572E+01  0.10060660970E+02  0.10763822602E+02  0.51100000000E-03 0. -1.
        -11    1    3    3    0    0 -0.14896948900E+01 -0.17821135132E+02  0.51819638264E+01  0.18618936533E+02  0.51100000000E-03 0.  1.
         12    1    3    3    0    0 -0.33266222186E+01  0.31913017659E+01  0.20637536178E+02  0.21146127822E+02  0.00000000000E+00 0. -1.
</event>
<event>
 7    1  0.2835316E-011  0.5052885E+02  0.7816164E-02  0.1300439E+00
        -11   -1    0    0    0    0  0.00000000000E+00  0.00000000000E+00  0.45593999997E+02  0.45594000000E+02  0.51100000000E-03 0.  1.
         11   -1    0    0    0    0 -0.00000000000E+00 -0.00000000000E+00 -0.45593999997E+02  0.45594000000E+02  0.51100000000E-03 0. -1.
    9900012    2    1    2    0    0 -0.25578224724E+02 -0.15111582499E+02 -0.27758986303E+02  0.50528845727E+02  0.29999957071E+02 0.  0.
        -12    1    1    2    0    0  0.25578224724E+02  0.15111582499E+02  0.27758986303E+02  0.40659154273E+02  0.00000000000E+00 0.  1.
         11    1    3    3    0    0 -0.23454624711E+02  0.19366032511E+01 -0.16287981443E+02  0.28621114448E+02  0.51100000000E-03 0. -1.
        -11    1    3    3    0    0  0.97702666194E+00 -0.80041875384E+00 -0.31456779537E+01  0.33897700998E+01  0.51100000000E-03 0.  1.
         12    1    3    3    0    0 -0.31006266750E+01 -0.16247766996E+02 -0.83253269061E+01  0.18517961179E+02  0.00000000000E+00 0. -1.
</event>
<event>
 7    1  0.2835316E-011  0.5052886E+02  0.7816164E-02  0.1300439E+00
        -11   -1    0    0    0    0  0.00000000000E+00  0.00000000000E+00  0.45593999997E+02  0.45594000000E+02  0.51100000000E-03 0.  1.
         11   -1    0    0    0    0 -0.00000000000E+00 -0.00000000000E+00 -0.45593999997E+02  0.45594000000E+02  0.51100000000E-03 0. -1.
    9900012    2    1    2    0    0 -0.70466462214E+01  0.14467339580E+02 -0.37339080289E+02  0.50528855219E+02  0.29999985925E+02 0.  0.
        -12    1    1    2    0    0  0.70466462214E+01 -0.14467339580E+02  0.37339080289E+02  0.40659144781E+02  0.00000000000E+00 0.  1.
         11    1    3    3    0    0 -0.71038840447E+01  0.14814658044E+02 -0.11273368165E+02  0.19925563769E+02  0.51100000000E-03 0. -1.
        -11    1    3    3    0    0 -0.52031565097E+01 -0.14138306528E+01 -0.17001089638E+01  0.56535055964E+01  0.51100000000E-03 0.  1.
         12    1    3    3    0    0  0.52603943330E+01  0.10665121886E+01 -0.24365603160E+02  0.24949785854E+02  0.00000000000E+00 0. -1.
</event>
<event>
 7    1  0.2835316E-011  0.5052885E+02  0.7816164E-02  0.1300439E+00
        -11   -1    0    0    0    0  0.00000000000E+00  0.00000000000E+00  0.45593999997E+02  0.45594000000E+02  0.51100000000E-03 0. -1.
         11   -1    0    0    0    0 -0.00000000000E+00 -0.00000000000E+00 -0.45593999997E+02  0.45594000000E+02  0.51100000000E-03 0.  1.
    9900012    2    1    2    0    0  0.14395970358E+02 -0.27819986957E+02  0.25922395162E+02  0.50528853332E+02  0.29999980187E+02 0.  0.
        -12    1    1    2    0    0 -0.14395970358E+02  0.27819986957E+02 -0.25922395162E+02  0.40659146668E+02  0.00000000000E+00 0.  1.
         11    1    3    3    0    0  0.14661995256E+01 -0.12726316594E+02  0.46212603131E+01  0.13618550666E+02  0.51100000000E-03 0. -1.
        -11    1    3    3    0    0  0.69818248202E+01 -0.17431925985E+02  0.23563487215E+02  0.30130646381E+02  0.51100000000E-03 0.  1.
        -12    1    3    3    0    0  0.59479460120E+01  0.23382556214E+01 -0.22623523654E+01  0.67796562847E+01  0.00000000000E+00 0.  1.
</event>
<event>
 7    1  0.2835316E-011  0.5052886E+02  0.7816164E-02  0.1300439E+00
        -11   -1    0    0    0    0  0.00000000000E+00  0.00000000000E+00  0.45593999997E+02  0.45594000000E+02  0.51100000000E-03 0.  1.
         11   -1    0    0    0    0 -0.00000000000E+00 -0.00000000000E+00 -0.45593999997E+02  0.45594000000E+02  0.51100000000E-03 0. -1.
    9900012    2    1    2    0    0 -0.21908325305E+02  0.27967255300E+02 -0.19774320347E+02  0.50528857955E+02  0.29999994239E+02 0.  0.
        -12    1    1    2    0    0  0.21908325305E+02 -0.27967255300E+02  0.19774320347E+02  0.40659142045E+02  0.00000000000E+00 0.  1.
         11    1    3    3    0    0 -0.14060381905E+02  0.20924808235E+02 -0.32319395375E+01  0.25416281641E+02  0.51100000000E-03 0. -1.
        -11    1    3    3    0    0  0.44647957419E+01 -0.43645011460E+00 -0.37746279840E+01  0.58628240975E+01  0.51100000000E-03 0.  1.
         12    1    3    3    0    0 -0.12312739142E+02  0.74788971792E+01 -0.12767752825E+02  0.19249752217E+02  0.00000000000E+00 0. -1.
</event>
<event>
 7    1  0.2835316E-011  0.5052887E+02  0.7816164E-02  0.1300439E+00
        -11   -1    0    0    0    0  0.00000000000E+00  0.00000000000E+00  0.45593999997E+02  0.45594000000E+02  0.51100000000E-03 0.  1.
         11   -1    0    0    0    0 -0.00000000000E+00 -0.00000000000E+00 -0.45593999997E+02  0.45594000000E+02  0.51100000000E-03 0. -1.
    9900012    2    1    2    0    0  0.66298580557E+01 -0.14678314977E+02 -0.37333054206E+02  0.50528869602E+02  0.30000029642E+02 0.  0.
        -12    1    1    2    0    0 -0.66298580557E+01  0.14678314977E+02  0.37333054206E+02  0.40659130398E+02  0.00000000000E+00 0.  1.
         11    1    3    3    0    0 -0.36409814396E+01 -0.99924459724E+01 -0.17890638736E+02  0.20812992985E+02  0.51100000000E-03 0. -1.
        -11    1    3    3    0    0  0.74138953112E+01 -0.84227696349E+01 -0.21751930655E+02  0.24475607847E+02  0.51100000000E-03 0.  1.
        -12    1    3    3    0    0  0.28569441842E+01  0.37369006306E+01  0.23095151847E+01  0.52402687701E+01  0.00000000000E+00 0.  1.
</event>
<event>
 7    1  0.2835316E-011  0.5052887E+02  0.7816164E-02  0.1300439E+00
        -11   -1    0    0    0    0  0.00000000000E+00  0.00000000000E+00  0.45593999997E+02  0.45594000000E+02  0.51100000000E-03 0. -1.
         11   -1    0    0    0    0 -0.00000000000E+00 -0.00000000000E+00 -0.45593999997E+02  0.45594000000E+02  0.51100000000E-03 0.  1.
    9900012    2    1    2    0    0 -0.27689309812E+02 -0.52615640176E+01 -0.29304999140E+02  0.50528869311E+02  0.30000028757E+02 0.  0.
        -12    1    1    2    0    0  0.27689309812E+02  0.52615640176E+01  0.29304999140E+02  0.40659130689E+02  0.00000000000E+00 0.  1.
         11    1    3    3    0    0 -0.61953094096E+01  0.26563747738E+01 -0.57348382354E+00  0.67651363310E+01  0.51100000000E-03 0. -1.
        -11    1    3    3    0    0 -0.88067237044E+01 -0.13153307127E+02 -0.54566286995E+01  0.16743436559E+02  0.51100000000E-03 0.  1.
        -12    1    3    3    0    0 -0.12687276698E+02  0.52353683354E+01 -0.23274886617E+02  0.27020296421E+02  0.00000000000E+00 0.  1.
</event>
<event>
 7    1  0.2835316E-011  0.5052886E+02  0.7816164E-02  0.1300439E+00
        -11   -1    0    0    0    0  0.00000000000E+00  0.00000000000E+00  0.45593999997E+02  0.45594000000E+02  0.51100000000E-03 0.  1.
         11   -1    0    0    0    0 -0.00000000000E+00 -0.00000000000E+00 -0.45593999997E+02  0.45594000000E+02  0.51100000000E-03 0. -1.
    9900012    2    1    2    0    0 -0.39544015062E+02 -0.40387146573E+01 -0.85513470024E+01  0.50528857376E+02  0.29999992481E+02 0.  0.
        -12    1    1    2    0    0  0.39544015062E+02  0.40387146573E+01  0.85513470024E+01  0.40659142624E+02  0.00000000000E+00 0.  1.
         11    1    3    3    0    0 -0.83595548079E+00 -0.15366524426E+01 -0.15782717010E+01  0.23560696336E+01  0.51100000000E-03 0.  1.
        -11    1    3    3    0    0 -0.28987536683E+02 -0.14227948786E+01  0.81659550559E+01  0.30149368989E+02  0.51100000000E-03 0. -1.
         12    1    3    3    0    0 -0.97205228989E+01 -0.10792673362E+01 -0.15139030357E+02  0.18023418754E+02  0.00000000000E+00 0. -1.
</event>
<event>
 7    1  0.2835316E-011  0.5052886E+02  0.7816164E-02  0.1300439E+00
        -11   -1    0    0    0    0  0.00000000000E+00  0.00000000000E+00  0.45593999997E+02  0.45594000000E+02  0.51100000000E-03 0.  1.
         11   -1    0    0    0    0 -0.00000000000E+00 -0.00000000000E+00 -0.45593999997E+02  0.45594000000E+02  0.51100000000E-03 0. -1.
    9900012    2    1    2    0    0  0.29995176718E+02  0.13995196434E+02 -0.23613332927E+02  0.50528860296E+02  0.30000001354E+02 0.  0.
        -12    1    1    2    0    0 -0.29995176718E+02 -0.13995196434E+02  0.23613332927E+02  0.40659139704E+02  0.00000000000E+00 0.  1.
         11    1    3    3    0    0  0.49493888458E+01  0.11326527335E+02 -0.10206737908E+02  0.16030102009E+02  0.51100000000E-03 0. -1.
        -11    1    3    3    0    0  0.11134787474E+01  0.45520491587E+01 -0.89210255095E+01  0.10076987787E+02  0.51100000000E-03 0.  1.
        -12    1    3    3    0    0  0.23932309125E+02 -0.18833800599E+01 -0.44855695094E+01  0.24421770499E+02  0.00000000000E+00 0.  1.
</event>
<event>
 7    1  0.2835316E-011  0.5052886E+02  0.7816164E-02  0.1300439E+00
        -11   -1    0    0    0    0  0.00000000000E+00  0.00000000000E+00  0.45593999997E+02  0.45594000000E+02  0.51100000000E-03 0.  1.
         11   -1    0    0    0    0 -0.00000000000E+00 -0.00000000000E+00 -0.45593999997E+02  0.45594000000E+02  0.51100000000E-03 0. -1.
    9900012    2    1    2    0    0 -0.25552060851E+02 -0.23087814240E+02 -0.21615059531E+02  0.50528858610E+02  0.29999996230E+02 0.  0.
        -12    1    1    2    0    0  0.25552060851E+02  0.23087814240E+02  0.21615059531E+02  0.40659141390E+02  0.00000000000E+00 0.  1.
         11    1    3    3    0    0 -0.49517907483E+01 -0.97606890006E+01 -0.15221122852E+02  0.18747636185E+02  0.51100000000E-03 0. -1.
        -11    1    3    3    0    0 -0.25219731462E+01  0.44145111427E+01  0.14111414697E+01  0.52763223639E+01  0.51100000000E-03 0.  1.
         12    1    3    3    0    0 -0.18078296956E+02 -0.17741636382E+02 -0.78050781480E+01  0.26504900061E+02  0.00000000000E+00 0. -1.
</event>
<event>
 7    1  0.2835316E-011  0.5052885E+02  0.7816164E-02  0.1300439E+00
        -11   -1    0    0    0    0  0.00000000000E+00  0.00000000000E+00  0.45593999997E+02  0.45594000000E+02  0.51100000000E-03 0.  1.
         11   -1    0    0    0    0 -0.00000000000E+00 -0.00000000000E+00 -0.45593999997E+02  0.45594000000E+02  0.51100000000E-03 0. -1.
    9900012    2    1    2    0    0  0.31799088649E+02 -0.11111948301E+02  0.22770791655E+02  0.50528851133E+02  0.29999973504E+02 0.  0.
        -12    1    1    2    0    0 -0.31799088649E+02  0.11111948301E+02 -0.22770791655E+02  0.40659148867E+02  0.00000000000E+00 0.  1.
         11    1    3    3    0    0  0.16757548630E+02 -0.10426723872E+01  0.66435334585E+01  0.18056553904E+02  0.51100000000E-03 0. -1.
        -11    1    3    3    0    0  0.13494704350E+02 -0.95460155256E+01  0.21349537263E+02  0.27000670353E+02  0.51100000000E-03 0.  1.
         12    1    3    3    0    0  0.15468356688E+01 -0.52326038855E+00 -0.52222790665E+01  0.54716268759E+01  0.00000000000E+00 0. -1.
</event>
<event>
 7    1  0.2835316E-011  0.5052883E+02  0.7816164E-02  0.1300439E+00
        -11   -1    0    0    0    0  0.00000000000E+00  0.00000000000E+00  0.45593999997E+02  0.45594000000E+02  0.51100000000E-03 0.  1.
         11   -1    0    0    0    0 -0.00000000000E+00 -0.00000000000E+00 -0.45593999997E+02  0.45594000000E+02  0.51100000000E-03 0. -1.
    9900012    2    1    2    0    0 -0.92571681436E+01 -0.39583747897E+02  0.77453123833E+00  0.50528829347E+02  0.29999907282E+02 0.  0.
        -12    1    1    2    0    0  0.92571681436E+01  0.39583747897E+02 -0.77453123833E+00  0.40659170653E+02  0.00000000000E+00 0.  1.
         11    1    3    3    0    0 -0.40015157003E+01 -0.94912906574E+01 -0.74143859354E+01  0.12691329532E+02  0.51100000000E-03 0. -1.
        -11    1    3    3    0    0 -0.12659271652E+01 -0.25233726766E+00  0.76178345571E+01  0.77264253885E+01  0.51100000000E-03 0.  1.
         12    1    3    3    0    0 -0.39897252782E+01 -0.29840119972E+02  0.57108261663E+00  0.30111074426E+02  0.00000000000E+00 0. -1.
</event>
<event>
 7    1  0.2835316E-011  0.5052900E+02  0.7816164E-02  0.1300438E+00
        -11   -1    0    0    0    0  0.00000000000E+00  0.00000000000E+00  0.45593999997E+02  0.45594000000E+02  0.51100000000E-03 0.  1.
         11   -1    0    0    0    0 -0.00000000000E+00 -0.00000000000E+00 -0.45593999997E+02  0.45594000000E+02  0.51100000000E-03 0. -1.
    9900012    2    1    2    0    0  0.30579488581E+02 -0.13587710381E+02 -0.23095953771E+02  0.50529002522E+02  0.30000433664E+02 0.  0.
        -12    1    1    2    0    0 -0.30579488581E+02  0.13587710381E+02  0.23095953771E+02  0.40658997478E+02  0.00000000000E+00 0.  1.
         11    1    3    3    0    0  0.18669269550E+02 -0.74499754767E+01 -0.25239299940E+01  0.20258676734E+02  0.51100000000E-03 0. -1.
        -11    1    3    3    0    0  0.83747384641E+00 -0.68878826195E+00  0.32583780809E+01  0.34340675142E+01  0.51100000000E-03 0.  1.
         12    1    3    3    0    0  0.11072745184E+02 -0.54489466425E+01 -0.23830401858E+02  0.26836258274E+02  0.00000000000E+00 0. -1.
</event>
<event>
 7    1  0.2835316E-011  0.5052888E+02  0.7816164E-02  0.1300439E+00
        -11   -1    0    0    0    0  0.00000000000E+00  0.00000000000E+00  0.45593999997E+02  0.45594000000E+02  0.51100000000E-03 0.  1.
         11   -1    0    0    0    0 -0.00000000000E+00 -0.00000000000E+00 -0.45593999997E+02  0.45594000000E+02  0.51100000000E-03 0. -1.
    9900012    2    1    2    0    0 -0.48674578610E+01 -0.16890765726E+02 -0.36662977453E+02  0.50528880131E+02  0.30000061646E+02 0.  0.
        -12    1    1    2    0    0  0.48674578610E+01  0.16890765726E+02  0.36662977453E+02  0.40659119869E+02  0.00000000000E+00 0.  1.
         11    1    3    3    0    0  0.21405750847E+01  0.39819245294E+01 -0.66920991388E+00  0.45700795202E+01  0.51100000000E-03 0. -1.
        -11    1    3    3    0    0  0.32984833218E+01 -0.34143308885E+01 -0.11555071577E+00  0.47487893057E+01  0.51100000000E-03 0.  1.
         12    1    3    3    0    0 -0.10306516268E+02 -0.17458359366E+02 -0.35878216823E+02  0.41210011305E+02  0.00000000000E+00 0. -1.
</event>
<event>
 7    1  0.2835316E-011  0.5052886E+02  0.7816164E-02  0.1300439E+00
        -11   -1    0    0    0    0  0.00000000000E+00  0.00000000000E+00  0.45593999997E+02  0.45594000000E+02  0.51100000000E-03 0.  1.
         11   -1    0    0    0    0 -0.00000000000E+00 -0.00000000000E+00 -0.45593999997E+02  0.45594000000E+02  0.51100000000E-03 0. -1.
    9900012    2    1    2    0    0  0.32289973065E+02 -0.41039770235E+01 -0.24365561795E+02  0.50528860935E+02  0.30000003298E+02 0.  0.
        -12    1    1    2    0    0 -0.32289973065E+02  0.41039770235E+01  0.24365561795E+02  0.40659139065E+02  0.00000000000E+00 0.  1.
         11    1    3    3    0    0  0.25941422759E+01 -0.35428272497E+01 -0.83010980238E+00  0.44688121032E+01  0.51100000000E-03 0. -1.
        -11    1    3    3    0    0  0.28890447685E+02  0.67276201795E+01 -0.11195837242E+02  0.31705923934E+02  0.51100000000E-03 0.  1.
         12    1    3    3    0    0  0.80538310397E+00 -0.72887699533E+01 -0.12339614751E+02  0.14354124898E+02  0.00000000000E+00 0. -1.
</event>
<event>
 7    1  0.2835316E-011  0.5052886E+02  0.7816164E-02  0.1300439E+00
        -11   -1    0    0    0    0  0.00000000000E+00  0.00000000000E+00  0.45593999997E+02  0.45594000000E+02  0.51100000000E-03 0. -1.
         11   -1    0    0    0    0 -0.00000000000E+00 -0.00000000000E+00 -0.45593999997E+02  0.45594000000E+02  0.51100000000E-03 0.  1.
    9900012    2    1    2    0    0 -0.59906092269E+00  0.34406248990E+02  0.21656799050E+02  0.50528858486E+02  0.29999995854E+02 0.  0.
        -12    1    1    2    0    0  0.59906092269E+00 -0.34406248990E+02 -0.21656799050E+02  0.40659141514E+02  0.00000000000E+00 0.  1.
         11    1    3    3    0    0 -0.38905487015E+01  0.18323653854E+02  0.13305623801E+02  0.22976777075E+02  0.51100000000E-03 0. -1.
        -11    1    3    3    0    0 -0.72399026268E+01  0.98431633377E+01 -0.83517957300E+00  0.12247513205E+02  0.51100000000E-03 0.  1.
        -12    1    3    3    0    0  0.10531390406E+02  0.62394317984E+01  0.91863548215E+01  0.15304568205E+02  0.00000000000E+00 0.  1.
</event>
<event>
 7    1  0.2835316E-011  0.5052886E+02  0.7816164E-02  0.1300439E+00
        -11   -1    0    0    0    0  0.00000000000E+00  0.00000000000E+00  0.45593999997E+02  0.45594000000E+02  0.51100000000E-03 0.  1.
         11   -1    0    0    0    0 -0.00000000000E+00 -0.00000000000E+00 -0.45593999997E+02  0.45594000000E+02  0.51100000000E-03 0. -1.
    9900012    2    1    2    0    0 -0.16256461893E+02  0.34350835480E+01 -0.37109204917E+02  0.50528862751E+02  0.30000008818E+02 0.  0.
        -12    1    1    2    0    0  0.16256461893E+02 -0.34350835480E+01  0.37109204917E+02  0.40659137249E+02  0.00000000000E+00 0.  1.
         11    1    3    3    0    0  0.34910056303E+01  0.12078483582E-01  0.14718800726E+00  0.34941280416E+01  0.51100000000E-03 0. -1.
        -11    1    3    3    0    0 -0.83488783547E+01  0.65461396517E+00 -0.43020615093E+00  0.83855451115E+01  0.51100000000E-03 0.  1.
         12    1    3    3    0    0 -0.11398589169E+02  0.27683910992E+01 -0.36826186773E+02  0.38649189598E+02  0.00000000000E+00 0. -1.
</event>
<event>
 7    1  0.2835316E-011  0.5052886E+02  0.7816164E-02  0.1300439E+00
        -11   -1    0    0    0    0  0.00000000000E+00  0.00000000000E+00  0.45593999997E+02  0.45594000000E+02  0.51100000000E-03 0. -1.
         11   -1    0    0    0    0 -0.00000000000E+00 -0.00000000000E+00 -0.45593999997E+02  0.45594000000E+02  0.51100000000E-03 0.  1.
    9900012    2    1    2    0    0  0.27253155498E+02  0.23593889960E+02  0.18808491595E+02  0.50528862232E+02  0.30000007239E+02 0.  0.
        -12    1    1    2    0    0 -0.27253155498E+02 -0.23593889960E+02 -0.18808491595E+02  0.40659137768E+02  0.00000000000E+00 0.  1.
         11    1    3    3    0    0  0.16620691279E+02  0.18292646045E+02  0.30997508404E+01  0.24909370394E+02  0.51100000000E-03 0.  1.
        -11    1    3    3    0    0  0.73915633581E+01  0.10134716821E+02  0.15301321125E+02  0.19785806083E+02  0.51100000000E-03 0. -1.
         12    1    3    3    0    0  0.32409008610E+01 -0.48334729064E+01  0.40741962905E+00  0.58336857545E+01  0.00000000000E+00 0. -1.
</event>
<event>
 7    1  0.2835316E-011  0.5052886E+02  0.7816164E-02  0.1300439E+00
        -11   -1    0    0    0    0  0.00000000000E+00  0.00000000000E+00  0.45593999997E+02  0.45594000000E+02  0.51100000000E-03 0. -1.
         11   -1    0    0    0    0 -0.00000000000E+00 -0.00000000000E+00 -0.45593999997E+02  0.45594000000E+02  0.51100000000E-03 0.  1.
    9900012    2    1    2    0    0  0.36290634333E+02 -0.15121023034E+02 -0.10368708231E+02  0.50528860950E+02  0.30000003344E+02 0.  0.
        -12    1    1    2    0    0 -0.36290634333E+02  0.15121023034E+02  0.10368708231E+02  0.40659139050E+02  0.00000000000E+00 0.  1.
         11    1    3    3    0    0  0.11344522539E+02 -0.24236407889E+01  0.63109228225E+01  0.13206058210E+02  0.51100000000E-03 0. -1.
        -11    1    3    3    0    0 -0.23971232934E+01 -0.36926534504E+01 -0.89857888481E+00  0.44932542619E+01  0.51100000000E-03 0.  1.
         12    1    3    3    0    0  0.27343235087E+02 -0.90047287948E+01 -0.15781052168E+02  0.32829548478E+02  0.00000000000E+00 0. -1.
</event>
<event>
 7    1  0.2835316E-011  0.5052886E+02  0.7816164E-02  0.1300439E+00
        -11   -1    0    0    0    0  0.00000000000E+00  0.00000000000E+00  0.45593999997E+02  0.45594000000E+02  0.51100000000E-03 0.  1.
         11   -1    0    0    0    0 -0.00000000000E+00 -0.00000000000E+00 -0.45593999997E+02  0.45594000000E+02  0.51100000000E-03 0. -1.
    9900012    2    1    2    0    0 -0.26795086825E+02 -0.16720546946E+01 -0.30535119218E+02  0.50528856495E+02  0.29999989802E+02 0.  0.
        -12    1    1    2    0    0  0.26795086825E+02  0.16720546946E+01  0.30535119218E+02  0.40659143505E+02  0.00000000000E+00 0.  1.
         11    1    3    3    0    0 -0.68226028315E+01  0.74422298236E+01 -0.16363652962E+02  0.19227684017E+02  0.51100000000E-03 0. -1.
        -11    1    3    3    0    0 -0.65645184617E+01  0.23462906802E+01  0.21237920364E+01  0.72875562066E+01  0.51100000000E-03 0.  1.
        -12    1    3    3    0    0 -0.13407965532E+02 -0.11460575198E+02 -0.16295258293E+02  0.24013616271E+02  0.00000000000E+00 0.  1.
</event>
<event>
 7    1  0.2835316E-011  0.5052886E+02  0.7816164E-02  0.1300439E+00
        -11   -1    0    0    0    0  0.00000000000E+00  0.00000000000E+00  0.45593999997E+02  0.45594000000E+02  0.51100000000E-03 0. -1.
         11   -1    0    0    0    0 -0.00000000000E+00 -0.00000000000E+00 -0.45593999997E+02  0.45594000000E+02  0.51100000000E-03 0.  1.
    9900012    2    1    2    0    0  0.39681221387E+02 -0.87377706127E+01 -0.14891879078E+01  0.50528860232E+02  0.30000001162E+02 0.  0.
        -12    1    1    2    0    0 -0.39681221387E+02  0.87377706127E+01  0.14891879078E+01  0.40659139768E+02  0.00000000000E+00 0.  1.
         11    1    3    3    0    0  0.32217839554E+01 -0.14407784999E+01 -0.91390355721E+01  0.97968212187E+01  0.51100000000E-03 0. -1.
        -11    1    3    3    0    0  0.22287872975E+02 -0.75177293282E+01 -0.19676471349E+01  0.23603753336E+02  0.51100000000E-03 0.  1.
         12    1    3    3    0    0  0.14171564456E+02  0.22073721542E+00  0.96174947993E+01  0.17128285678E+02  0.00000000000E+00 0. -1.
</event>
<event>
 7    1  0.2835316E-011  0.5052884E+02  0.7816164E-02  0.1300439E+00
        -11   -1    0    0    0    0  0.00000000000E+00  0.00000000000E+00  0.45593999997E+02  0.45594000000E+02  0.51100000000E-03 0.  1.
         11   -1    0    0    0    0 -0.00000000000E+00 -0.00000000000E+00 -0.45593999997E+02  0.45594000000E+02  0.51100000000E-03 0. -1.
    9900012    2    1    2    0    0 -0.13525363928E+02 -0.29097942341E+02 -0.24970816920E+02  0.50528838480E+02  0.29999935044E+02 0.  0.
        -12    1    1    2    0    0  0.13525363928E+02  0.29097942341E+02  0.24970816920E+02  0.40659161520E+02  0.00000000000E+00 0.  1.
         11    1    3    3    0    0 -0.11905286239E+02 -0.89015979702E+01 -0.98002490764E+01  0.17805032128E+02  0.51100000000E-03 0. -1.
        -11    1    3    3    0    0 -0.34111590362E+00 -0.48446234053E+01 -0.16558949514E+02  0.17256463869E+02  0.51100000000E-03 0.  1.
         12    1    3    3    0    0 -0.12789617851E+01 -0.15351720965E+02  0.13883816698E+01  0.15467342483E+02  0.00000000000E+00 0. -1.
</event>
<event>
 7    1  0.2835316E-011  0.5052886E+02  0.7816164E-02  0.1300439E+00
        -11   -1    0    0    0    0  0.00000000000E+00  0.00000000000E+00  0.45593999997E+02  0.45594000000E+02  0.51100000000E-03 0.  1.
         11   -1    0    0    0    0 -0.00000000000E+00 -0.00000000000E+00 -0.45593999997E+02  0.45594000000E+02  0.51100000000E-03 0. -1.
    9900012    2    1    2    0    0  0.67744325865E+01  0.17269245396E+02 -0.36180743880E+02  0.50528855873E+02  0.29999987912E+02 0.  0.
        -12    1    1    2    0    0 -0.67744325865E+01 -0.17269245396E+02  0.36180743880E+02  0.40659144127E+02  0.00000000000E+00 0.  1.
         11    1    3    3    0    0  0.45765402992E+01 -0.41744489932E+01 -0.59625200648E+01  0.85978131692E+01  0.51100000000E-03 0. -1.
        -11    1    3    3    0    0 -0.39519931641E+01  0.14008726897E+01  0.10148630110E+01  0.43140052682E+01  0.51100000000E-03 0.  1.
         12    1    3    3    0    0  0.61498854513E+01  0.20042821699E+02 -0.31233086826E+02  0.37617037436E+02  0.00000000000E+00 0. -1.
</event>
<event>
 7    1  0.2835316E-011  0.5052886E+02  0.7816164E-02  0.1300439E+00
        -11   -1    0    0    0    0  0.00000000000E+00  0.00000000000E+00  0.45593999997E+02  0.45594000000E+02  0.51100000000E-03 0.  1.
         11   -1    0    0    0    0 -0.00000000000E+00 -0.00000000000E+00 -0.45593999997E+02  0.45594000000E+02  0.51100000000E-03 0. -1.
    9900012    2    1    2    0    0 -0.37377063976E+02 -0.12030269445E+02 -0.10554292863E+02  0.50528863361E+02  0.30000010671E+02 0.  0.
        -12    1    1    2    0    0  0.37377063976E+02  0.12030269445E+02  0.10554292863E+02  0.40659136639E+02  0.00000000000E+00 0.  1.
         11    1    3    3    0    0 -0.12484398453E+02  0.43231412290E+01  0.71794821363E+00  0.13231220833E+02  0.51100000000E-03 0. -1.
        -11    1    3    3    0    0 -0.63896493629E+01  0.38696995593E+01  0.45475753265E+00  0.74839159759E+01  0.51100000000E-03 0.  1.
        -12    1    3    3    0    0 -0.18503016160E+02 -0.20223110233E+02 -0.11726998610E+02  0.29813726552E+02  0.00000000000E+00 0.  1.
</event>
<event>
 7    1  0.2835316E-011  0.5052886E+02  0.7816164E-02  0.1300439E+00
        -11   -1    0    0    0    0  0.00000000000E+00  0.00000000000E+00  0.45593999997E+02  0.45594000000E+02  0.51100000000E-03 0. -1.
         11   -1    0    0    0    0 -0.00000000000E+00 -0.00000000000E+00 -0.45593999997E+02  0.45594000000E+02  0.51100000000E-03 0.  1.
    9900012    2    1    2    0    0 -0.35266962794E+02 -0.84701416624E+01  0.18375637299E+02  0.50528855756E+02  0.29999987556E+02 0.  0.
        -12    1    1    2    0    0  0.35266962794E+02  0.84701416624E+01 -0.18375637299E+02  0.40659144244E+02  0.00000000000E+00 0.  1.
         11    1    3    3    0    0 -0.75282879656E+01  0.42348858469E+01 -0.35134344755E+01  0.93248914151E+01  0.51100000000E-03 0. -1.
        -11    1    3    3    0    0  0.17285007843E+01 -0.36244607317E+01  0.33159885023E+01  0.52077068433E+01  0.51100000000E-03 0.  1.
         12    1    3    3    0    0 -0.29467175613E+02 -0.90805667776E+01  0.18573083272E+02  0.35996257498E+02  0.00000000000E+00 0. -1.
</event>
<event>
 7    1  0.2835316E-011  0.5052886E+02  0.7816164E-02  0.1300439E+00
        -11   -1    0    0    0    0  0.00000000000E+00  0.00000000000E+00  0.45593999997E+02  0.45594000000E+02  0.51100000000E-03 0.  1.
         11   -1    0    0    0    0 -0.00000000000E+00 -0.00000000000E+00 -0.45593999997E+02  0.45594000000E+02  0.51100000000E-03 0. -1.
    9900012    2    1    2    0    0 -0.55556944884E+00  0.37576129874E+02 -0.15520673709E+02  0.50528861960E+02  0.30000006414E+02 0.  0.
        -12    1    1    2    0    0  0.55556944884E+00 -0.37576129874E+02  0.15520673709E+02  0.40659138040E+02  0.00000000000E+00 0.  1.
         11    1    3    3    0    0 -0.34409448693E+01  0.15056055376E+02 -0.14288318702E+02  0.21039984711E+02  0.51100000000E-03 0. -1.
        -11    1    3    3    0    0 -0.30829165841E+01  0.21800156856E+02 -0.47502117872E+01  0.22523670347E+02  0.51100000000E-03 0.  1.
        -12    1    3    3    0    0  0.59682920046E+01  0.71991764307E+00  0.35178567802E+01  0.69652069022E+01  0.00000000000E+00 0.  1.
</event>
<event>
 7    1  0.2835316E-011  0.5052885E+02  0.7816164E-02  0.1300439E+00
        -11   -1    0    0    0    0  0.00000000000E+00  0.00000000000E+00  0.45593999997E+02  0.45594000000E+02  0.51100000000E-03 0. -1.
         11   -1    0    0    0    0 -0.00000000000E+00 -0.00000000000E+00 -0.45593999997E+02  0.45594000000E+02  0.51100000000E-03 0.  1.
    9900012    2    1    2    0    0  0.32102534680E+02 -0.24951305797E+02 -0.16054786128E+00  0.50528853803E+02  0.29999981619E+02 0.  0.
        -12    1    1    2    0    0 -0.32102534680E+02  0.24951305797E+02  0.16054786128E+00  0.40659146197E+02  0.00000000000E+00 0.  1.
         11    1    3    3    0    0  0.33275272884E+01  0.12260745506E+01  0.66533520911E+01  0.75394158240E+01  0.51100000000E-03 0. -1.
        -11    1    3    3    0    0  0.11066006366E+02 -0.28625806922E+00 -0.21483166624E+01  0.11276245178E+02  0.51100000000E-03 0.  1.
         12    1    3    3    0    0  0.17709001026E+02 -0.25891122278E+02 -0.46655832900E+01  0.31713192801E+02  0.00000000000E+00 0. -1.
</event>
<event>
 7    1  0.2835316E-011  0.5052886E+02  0.7816164E-02  0.1300439E+00
        -11   -1    0    0    0    0  0.00000000000E+00  0.00000000000E+00  0.45593999997E+02  0.45594000000E+02  0.51100000000E-03 0. -1.
         11   -1    0    0    0    0 -0.00000000000E+00 -0.00000000000E+00 -0.45593999997E+02  0.45594000000E+02  0.51100000000E-03 0.  1.
    9900012    2    1    2    0    0 -0.86066769451E+01 -0.12570681650E+02  0.37697063423E+02  0.50528861840E+02  0.30000006048E+02 0.  0.
        -12    1    1    2    0    0  0.86066769451E+01  0.12570681650E+02 -0.37697063423E+02  0.40659138160E+02  0.00000000000E+00 0.  1.
         11    1    3    3    0    0 -0.50948422547E+01 -0.14771826332E+02  0.13914480121E+02  0.20923121853E+02  0.51100000000E-03 0. -1.
        -11    1    3    3    0    0 -0.78783349048E+01 -0.84611345768E+00  0.22869606709E+02  0.24203367124E+02  0.51100000000E-03 0.  1.
         12    1    3    3    0    0  0.43665002145E+01  0.30472581397E+01  0.91297659411E+00  0.54023728633E+01  0.00000000000E+00 0. -1.
</event>
<event>
 7    1  0.2835316E-011  0.5052886E+02  0.7816164E-02  0.1300439E+00
        -11   -1    0    0    0    0  0.00000000000E+00  0.00000000000E+00  0.45593999997E+02  0.45594000000E+02  0.51100000000E-03 0.  1.
         11   -1    0    0    0    0 -0.00000000000E+00 -0.00000000000E+00 -0.45593999997E+02  0.45594000000E+02  0.51100000000E-03 0. -1.
    9900012    2    1    2    0    0  0.17345938076E+02 -0.36241945178E+02  0.62294000294E+01  0.50528861018E+02  0.30000003551E+02 0.  0.
        -12    1    1    2    0    0 -0.17345938076E+02  0.36241945178E+02 -0.62294000294E+01  0.40659138982E+02  0.00000000000E+00 0.  1.
         11    1    3    3    0    0  0.27208422583E+01 -0.12806382960E+02 -0.16478738236E+01  0.13195526344E+02  0.51100000000E-03 0. -1.
        -11    1    3    3    0    0 -0.66067377580E+01 -0.50780411047E+01  0.29310059273E+01  0.88332486251E+01  0.51100000000E-03 0.  1.
         12    1    3    3    0    0  0.21231833575E+02 -0.18357521113E+02  0.49462679257E+01  0.28500086049E+02  0.00000000000E+00 0. -1.
</event>
<event>
 7    1  0.2835316E-011  0.5052886E+02  0.7816164E-02  0.1300439E+00
        -11   -1    0    0    0    0  0.00000000000E+00  0.00000000000E+00  0.45593999997E+02  0.45594000000E+02  0.51100000000E-03 0.  1.
         11   -1    0    0    0    0 -0.00000000000E+00 -0.00000000000E+00 -0.45593999997E+02  0.45594000000E+02  0.51100000000E-03 0. -1.
    9900012    2    1    2    0    0  0.25748834031E+02  0.26800333390E+02 -0.16489560156E+02  0.50528856897E+02  0.29999991023E+02 0.  0.
        -12    1    1    2    0    0 -0.25748834031E+02 -0.26800333390E+02  0.16489560156E+02  0.40659143103E+02  0.00000000000E+00 0.  1.
         11    1    3    3    0    0  0.82954343548E+01  0.13954916718E+02 -0.15578083419E+02  0.22499569218E+02  0.51100000000E-03 0. -1.
        -11    1    3    3    0    0  0.17473005910E+02  0.16350116859E+02 -0.27227943490E+01  0.24084141383E+02  0.51100000000E-03 0.  1.
        -12    1    3    3    0    0 -0.19606233925E-01 -0.35047001868E+01  0.18113176115E+01  0.39451462956E+01  0.00000000000E+00 0.  1.
</event>
<event>
 7    1  0.2835316E-011  0.5052886E+02  0.7816164E-02  0.1300439E+00
        -11   -1    0    0    0    0  0.00000000000E+00  0.00000000000E+00  0.45593999997E+02  0.45594000000E+02  0.51100000000E-03 0. -1.
         11   -1    0    0    0    0 -0.00000000000E+00 -0.00000000000E+00 -0.45593999997E+02  0.45594000000E+02  0.51100000000E-03 0.  1.
    9900012    2    1    2    0    0  0.24361459953E+02  0.23745579714E+02 -0.22267297089E+02  0.50528858265E+02  0.29999995182E+02 0.  0.
        -12    1    1    2    0    0 -0.24361459953E+02 -0.23745579714E+02  0.22267297089E+02  0.40659141735E+02  0.00000000000E+00 0.  1.
         11    1    3    3    0    0  0.11251336251E+02  0.91009131768E+01 -0.19026475821E+02  0.23904517785E+02  0.51100000000E-03 0. -1.
        -11    1    3    3    0    0 -0.20365154853E+01  0.10731056320E+00 -0.51543652309E+01  0.55431391894E+01  0.51100000000E-03 0.  1.
         12    1    3    3    0    0  0.15146639187E+02  0.14537355974E+02  0.19135439626E+01  0.21081201291E+02  0.00000000000E+00 0. -1.
</event>
<event>
 7    1  0.2835316E-011  0.5052886E+02  0.7816164E-02  0.1300439E+00
        -11   -1    0    0    0    0  0.00000000000E+00  0.00000000000E+00  0.45593999997E+02  0.45594000000E+02  0.51100000000E-03 0.  1.
         11   -1    0    0    0    0 -0.00000000000E+00 -0.00000000000E+00 -0.45593999997E+02  0.45594000000E+02  0.51100000000E-03 0. -1.
    9900012    2    1    2    0    0 -0.28557192298E+01 -0.23790359274E+02 -0.32848587919E+02  0.50528855211E+02  0.29999985900E+02 0.  0.
        -12    1    1    2    0    0  0.28557192298E+01  0.23790359274E+02  0.32848587919E+02  0.40659144789E+02  0.00000000000E+00 0.  1.
         11    1    3    3    0    0  0.38841243234E+01 -0.84260398432E+01 -0.11606497567E+02  0.14859184205E+02  0.51100000000E-03 0. -1.
        -11    1    3    3    0    0  0.70477591395E+01  0.11396723322E+01 -0.57092499606E+01  0.91414056516E+01  0.51100000000E-03 0.  1.
         12    1    3    3    0    0 -0.13787602693E+02 -0.16503991763E+02 -0.15532840391E+02  0.26528265355E+02  0.00000000000E+00 0. -1.
</event>
<event>
 7    1  0.2835316E-011  0.5052886E+02  0.7816164E-02  0.1300439E+00
        -11   -1    0    0    0    0  0.00000000000E+00  0.00000000000E+00  0.45593999997E+02  0.45594000000E+02  0.51100000000E-03 0.  1.
         11   -1    0    0    0    0 -0.00000000000E+00 -0.00000000000E+00 -0.45593999997E+02  0.45594000000E+02  0.51100000000E-03 0. -1.
    9900012    2    1    2    0    0  0.33245673647E+02  0.15457504810E+02 -0.17577165640E+02  0.50528855603E+02  0.29999987091E+02 0.  0.
        -12    1    1    2    0    0 -0.33245673647E+02 -0.15457504810E+02  0.17577165640E+02  0.40659144397E+02  0.00000000000E+00 0.  1.
         11    1    3    3    0    0  0.23231964944E+02 -0.36809383169E+00 -0.18903869930E+02  0.29953563841E+02  0.51100000000E-03 0. -1.
        -11    1    3    3    0    0  0.42148134127E+01  0.79938893935E+00  0.12515162062E+01  0.44687769978E+01  0.51100000000E-03 0.  1.
        -12    1    3    3    0    0  0.57988952904E+01  0.15026209702E+02  0.75188083898E-01  0.16106514764E+02  0.00000000000E+00 0.  1.
</event>
<event>
 7    1  0.2835316E-011  0.5052886E+02  0.7816164E-02  0.1300439E+00
        -11   -1    0    0    0    0  0.00000000000E+00  0.00000000000E+00  0.45593999997E+02  0.45594000000E+02  0.51100000000E-03 0.  1.
         11   -1    0    0    0    0 -0.00000000000E+00 -0.00000000000E+00 -0.45593999997E+02  0.45594000000E+02  0.51100000000E-03 0. -1.
    9900012    2    1    2    0    0  0.22263252286E+02  0.23719638001E+02 -0.24390411515E+02  0.50528858308E+02  0.29999995313E+02 0.  0.
        -12    1    1    2    0    0 -0.22263252286E+02 -0.23719638001E+02  0.24390411515E+02  0.40659141692E+02  0.00000000000E+00 0.  1.
         11    1    3    3    0    0 -0.19809658086E+01  0.40199930426E+01  0.57533046854E+00  0.45183597695E+01  0.51100000000E-03 0. -1.
        -11    1    3    3    0    0  0.14774227353E+02  0.72114028435E+01  0.10896199677E+00  0.16440620360E+02  0.51100000000E-03 0.  1.
         12    1    3    3    0    0  0.94699907415E+01  0.12488242115E+02 -0.25074703980E+02  0.29569878178E+02  0.00000000000E+00 0. -1.
</event>
<event>
 7    1  0.2835316E-011  0.5052886E+02  0.7816164E-02  0.1300439E+00
        -11   -1    0    0    0    0  0.00000000000E+00  0.00000000000E+00  0.45593999997E+02  0.45594000000E+02  0.51100000000E-03 0. -1.
         11   -1    0    0    0    0 -0.00000000000E+00 -0.00000000000E+00 -0.45593999997E+02  0.45594000000E+02  0.51100000000E-03 0.  1.
    9900012    2    1    2    0    0 -0.10404834804E+01  0.38290819030E+02 -0.13634373089E+02  0.50528861330E+02  0.30000004499E+02 0.  0.
        -12    1    1    2    0    0  0.10404834804E+01 -0.38290819030E+02  0.13634373089E+02  0.40659138670E+02  0.00000000000E+00 0.  1.
         11    1    3    3    0    0 -0.11099894266E+02  0.23154880201E+02 -0.80465750891E+01  0.26909171313E+02  0.51100000000E-03 0. -1.
        -11    1    3    3    0    0  0.45883135541E+00  0.57650339755E+01 -0.81179809870E+01  0.99673345744E+01  0.51100000000E-03 0.  1.
         12    1    3    3    0    0  0.96005794303E+01  0.93709048538E+01  0.25301829876E+01  0.13652355442E+02  0.00000000000E+00 0. -1.
</event>
<event>
 7    1  0.2835316E-011  0.5052886E+02  0.7816164E-02  0.1300439E+00
        -11   -1    0    0    0    0  0.00000000000E+00  0.00000000000E+00  0.45593999997E+02  0.45594000000E+02  0.51100000000E-03 0.  1.
         11   -1    0    0    0    0 -0.00000000000E+00 -0.00000000000E+00 -0.45593999997E+02  0.45594000000E+02  0.51100000000E-03 0. -1.
    9900012    2    1    2    0    0 -0.26505556573E+01 -0.38611170542E+02 -0.12462651576E+02  0.50528860557E+02  0.30000002149E+02 0.  0.
        -12    1    1    2    0    0  0.26505556573E+01  0.38611170542E+02  0.12462651576E+02  0.40659139443E+02  0.00000000000E+00 0.  1.
         11    1    3    3    0    0  0.63972112321E+01 -0.56012207015E+01 -0.22055654492E+01  0.87842190380E+01  0.51100000000E-03 0. -1.
        -11    1    3    3    0    0 -0.22765984160E+01 -0.22312985425E+01  0.56164710724E+01  0.64580446810E+01  0.51100000000E-03 0.  1.
         12    1    3    3    0    0 -0.67711684735E+01 -0.30778651298E+02 -0.15873557200E+02  0.35286596838E+02  0.00000000000E+00 0. -1.
</event>
<event>
 7    1  0.2835316E-011  0.5052886E+02  0.7816164E-02  0.1300439E+00
        -11   -1    0    0    0    0  0.00000000000E+00  0.00000000000E+00  0.45593999997E+02  0.45594000000E+02  0.51100000000E-03 0.  1.
         11   -1    0    0    0    0 -0.00000000000E+00 -0.00000000000E+00 -0.45593999997E+02  0.45594000000E+02  0.51100000000E-03 0. -1.
    9900012    2    1    2    0    0 -0.15513829109E+02  0.14778013763E+02 -0.34555709871E+02  0.50528859957E+02  0.30000000324E+02 0.  0.
        -12    1    1    2    0    0  0.15513829109E+02 -0.14778013763E+02  0.34555709871E+02  0.40659140043E+02  0.00000000000E+00 0.  1.
         11    1    3    3    0    0  0.10716601260E+01 -0.37489135584E+01 -0.60866795684E+01  0.72284491230E+01  0.51100000000E-03 0. -1.
        -11    1    3    3    0    0  0.38637567187E+01  0.94799685356E+01 -0.97749741992E+01  0.14154453019E+02  0.51100000000E-03 0.  1.
        -12    1    3    3    0    0 -0.20449245953E+02  0.90469587857E+01 -0.18694056103E+02  0.29145957814E+02  0.00000000000E+00 0.  1.
</event>
<event>
 7    1  0.2835316E-011  0.5052882E+02  0.7816164E-02  0.1300439E+00
        -11   -1    0    0    0    0  0.00000000000E+00  0.00000000000E+00  0.45593999997E+02  0.45594000000E+02  0.51100000000E-03 0. -1.
         11   -1    0    0    0    0 -0.00000000000E+00 -0.00000000000E+00 -0.45593999997E+02  0.45594000000E+02  0.51100000000E-03 0.  1.
    9900012    2    1    2    0    0 -0.31144345690E+02 -0.21670800096E+02  0.14614199222E+02  0.50528823125E+02  0.29999888371E+02 0.  0.
        -12    1    1    2    0    0  0.31144345690E+02  0.21670800096E+02 -0.14614199222E+02  0.40659176875E+02  0.00000000000E+00 0.  1.
         11    1    3    3    0    0 -0.78009649886E+01  0.18318146228E+01  0.67203915598E+01  0.10458215074E+02  0.51100000000E-03 0. -1.
        -11    1    3    3    0    0 -0.11138687476E+02 -0.38110834886E+01 -0.58369996116E+01  0.13140216161E+02  0.51100000000E-03 0.  1.
        -12    1    3    3    0    0 -0.12204693225E+02 -0.19691531230E+02  0.13730807274E+02  0.26930391889E+02  0.00000000000E+00 0.  1.
</event>
<event>
 7    1  0.2835316E-011  0.5052885E+02  0.7816164E-02  0.1300439E+00
        -11   -1    0    0    0    0  0.00000000000E+00  0.00000000000E+00  0.45593999997E+02  0.45594000000E+02  0.51100000000E-03 0. -1.
         11   -1    0    0    0    0 -0.00000000000E+00 -0.00000000000E+00 -0.45593999997E+02  0.45594000000E+02  0.51100000000E-03 0.  1.
    9900012    2    1    2    0    0 -0.21051642882E+02  0.13693546318E+02  0.31976268720E+02  0.50528848016E+02  0.29999964029E+02 0.  0.
        -12    1    1    2    0    0  0.21051642882E+02 -0.13693546318E+02 -0.31976268720E+02  0.40659151984E+02  0.00000000000E+00 0.  1.
         11    1    3    3    0    0 -0.11340452245E+02  0.80900403546E+01  0.17035860417E+01  0.14034130387E+02  0.51100000000E-03 0. -1.
        -11    1    3    3    0    0  0.18171896958E+01 -0.11197498824E+01 -0.11001420944E+01  0.24013186125E+01  0.51100000000E-03 0.  1.
        -12    1    3    3    0    0 -0.11528380333E+02  0.67232558462E+01  0.31372824773E+02  0.34093399016E+02  0.00000000000E+00 0.  1.
</event>
<event>
 7    1  0.2835316E-011  0.5052886E+02  0.7816164E-02  0.1300439E+00
        -11   -1    0    0    0    0  0.00000000000E+00  0.00000000000E+00  0.45593999997E+02  0.45594000000E+02  0.51100000000E-03 0.  1.
         11   -1    0    0    0    0 -0.00000000000E+00 -0.00000000000E+00 -0.45593999997E+02  0.45594000000E+02  0.51100000000E-03 0. -1.
    9900012    2    1    2    0    0 -0.20458574978E+01  0.17966586472E+02 -0.36416775731E+02  0.50528864286E+02  0.30000013483E+02 0.  0.
        -12    1    1    2    0    0  0.20458574978E+01 -0.17966586472E+02  0.36416775731E+02  0.40659135714E+02  0.00000000000E+00 0.  1.
         11    1    3    3    0    0 -0.16192706313E+01 -0.90012065606E+00 -0.33420479112E+01  0.38211960267E+01  0.51100000000E-03 0. -1.
        -11    1    3    3    0    0  0.90745595781E+01  0.40248788603E+01 -0.83018119468E+00  0.99617509733E+01  0.51100000000E-03 0.  1.
         12    1    3    3    0    0 -0.95011464445E+01  0.14841828268E+02 -0.32244546625E+02  0.36745917286E+02  0.00000000000E+00 0. -1.
</event>
<event>
 7    1  0.2835316E-011  0.5052885E+02  0.7816164E-02  0.1300439E+00
        -11   -1    0    0    0    0  0.00000000000E+00  0.00000000000E+00  0.45593999997E+02  0.45594000000E+02  0.51100000000E-03 0.  1.
         11   -1    0    0    0    0 -0.00000000000E+00 -0.00000000000E+00 -0.45593999997E+02  0.45594000000E+02  0.51100000000E-03 0. -1.
    9900012    2    1    2    0    0  0.95306796256E+01  0.36314228936E+02 -0.15607983992E+02  0.50528852916E+02  0.29999978923E+02 0.  0.
        -12    1    1    2    0    0 -0.95306796256E+01 -0.36314228936E+02  0.15607983992E+02  0.40659147084E+02  0.00000000000E+00 0.  1.
         11    1    3    3    0    0  0.90366240775E+01  0.31988947759E+02 -0.30079178743E+01  0.33376652374E+02  0.51100000000E-03 0. -1.
        -11    1    3    3    0    0  0.50546200013E+01  0.40395118497E+01 -0.99529909248E+01  0.11871346510E+02  0.51100000000E-03 0.  1.
        -12    1    3    3    0    0 -0.45605644531E+01  0.28576932651E+00 -0.26470751929E+01  0.52808540328E+01  0.00000000000E+00 0.  1.
</event>
<event>
 7    1  0.2835316E-011  0.5052886E+02  0.7816164E-02  0.1300439E+00
        -11   -1    0    0    0    0  0.00000000000E+00  0.00000000000E+00  0.45593999997E+02  0.45594000000E+02  0.51100000000E-03 0.  1.
         11   -1    0    0    0    0 -0.00000000000E+00 -0.00000000000E+00 -0.45593999997E+02  0.45594000000E+02  0.51100000000E-03 0. -1.
    9900012    2    1    2    0    0 -0.16686982685E+02 -0.26840398514E+02 -0.25579357585E+02  0.50528856896E+02  0.29999991021E+02 0.  0.
        -12    1    1    2    0    0  0.16686982685E+02  0.26840398514E+02  0.25579357585E+02  0.40659143104E+02  0.00000000000E+00 0.  1.
         11    1    3    3    0    0  0.21277551534E+01 -0.11547558960E+02 -0.38000996531E+01  0.12341564632E+02  0.51100000000E-03 0. -1.
        -11    1    3    3    0    0 -0.21382269050E+02 -0.16272810920E+02 -0.14777742220E+02  0.30665737727E+02  0.51100000000E-03 0.  1.
         12    1    3    3    0    0  0.25675312119E+01  0.97997136564E+00 -0.70015157111E+01  0.75215545371E+01  0.00000000000E+00 0. -1.
</event>
<event>
 7    1  0.2835316E-011  0.5052891E+02  0.7816164E-02  0.1300439E+00
        -11   -1    0    0    0    0  0.00000000000E+00  0.00000000000E+00  0.45593999997E+02  0.45594000000E+02  0.51100000000E-03 0.  1.
         11   -1    0    0    0    0 -0.00000000000E+00 -0.00000000000E+00 -0.45593999997E+02  0.45594000000E+02  0.51100000000E-03 0. -1.
    9900012    2    1    2    0    0 -0.12502550657E+01  0.19996408127E+02 -0.35379966927E+02  0.50528910789E+02  0.30000154834E+02 0.  0.
        -12    1    1    2    0    0  0.12502550657E+01 -0.19996408127E+02  0.35379966927E+02  0.40659089211E+02  0.00000000000E+00 0.  1.
         11    1    3    3    0    0 -0.37915427600E+01  0.88392154497E+01 -0.30439278762E+02  0.31922675609E+02  0.51100000000E-03 0. -1.
        -11    1    3    3    0    0  0.47302154715E+01  0.99275865680E+01 -0.87436230235E+01  0.14049300954E+02  0.51100000000E-03 0.  1.
        -12    1    3    3    0    0 -0.21889277771E+01  0.12296061092E+01  0.38029348581E+01  0.45569342251E+01  0.00000000000E+00 0.  1.
</event>
<event>
 7    1  0.2835316E-011  0.5052887E+02  0.7816164E-02  0.1300439E+00
        -11   -1    0    0    0    0  0.00000000000E+00  0.00000000000E+00  0.45593999997E+02  0.45594000000E+02  0.51100000000E-03 0.  1.
         11   -1    0    0    0    0 -0.00000000000E+00 -0.00000000000E+00 -0.45593999997E+02  0.45594000000E+02  0.51100000000E-03 0. -1.
    9900012    2    1    2    0    0  0.29223625838E+02  0.49792511800E+01 -0.27827169372E+02  0.50528873046E+02  0.30000040110E+02 0.  0.
        -12    1    1    2    0    0 -0.29223625838E+02 -0.49792511800E+01  0.27827169372E+02  0.40659126954E+02  0.00000000000E+00 0.  1.
         11    1    3    3    0    0  0.35534450345E+01  0.64760233351E+00  0.19012897108E+01  0.40818210668E+01  0.51100000000E-03 0. -1.
        -11    1    3    3    0    0  0.11236719723E+02 -0.98679270876E+00  0.17465676602E+01  0.11414382543E+02  0.51100000000E-03 0.  1.
        -12    1    3    3    0    0  0.14433461080E+02  0.53184415552E+01 -0.31475026743E+02  0.35032669436E+02  0.00000000000E+00 0.  1.
</event>
<event>
 7    1  0.2835316E-011  0.5052887E+02  0.7816164E-02  0.1300439E+00
        -11   -1    0    0    0    0  0.00000000000E+00  0.00000000000E+00  0.45593999997E+02  0.45594000000E+02  0.51100000000E-03 0.  1.
         11   -1    0    0    0    0 -0.00000000000E+00 -0.00000000000E+00 -0.45593999997E+02  0.45594000000E+02  0.51100000000E-03 0. -1.
    9900012    2    1    2    0    0 -0.22702590754E+02 -0.30548290397E+02 -0.14302422278E+02  0.50528868724E+02  0.30000026974E+02 0.  0.
        -12    1    1    2    0    0  0.22702590754E+02  0.30548290397E+02  0.14302422278E+02  0.40659131276E+02  0.00000000000E+00 0.  1.
         11    1    3    3    0    0 -0.19201898577E+02 -0.13036813390E+02  0.22877409107E+01  0.23321774613E+02  0.51100000000E-03 0. -1.
        -11    1    3    3    0    0  0.18376605623E+01 -0.19489541309E+01  0.12349161530E+01  0.29496502695E+01  0.51100000000E-03 0.  1.
         12    1    3    3    0    0 -0.53383527392E+01 -0.15562522875E+02 -0.17825079341E+02  0.24257443842E+02  0.00000000000E+00 0. -1.
</event>
<event>
 7    1  0.2835316E-011  0.5052886E+02  0.7816164E-02  0.1300439E+00
        -11   -1    0    0    0    0  0.00000000000E+00  0.00000000000E+00  0.45593999997E+02  0.45594000000E+02  0.51100000000E-03 0.  1.
         11   -1    0    0    0    0 -0.00000000000E+00 -0.00000000000E+00 -0.45593999997E+02  0.45594000000E+02  0.51100000000E-03 0. -1.
    9900012    2    1    2    0    0  0.20486188453E+02  0.26478158159E+02  0.23073549065E+02  0.50528862733E+02  0.30000008763E+02 0.  0.
        -12    1    1    2    0    0 -0.20486188453E+02 -0.26478158159E+02 -0.23073549065E+02  0.40659137267E+02  0.00000000000E+00 0.  1.
         11    1    3    3    0    0  0.58389942524E+01  0.27271187920E+01 -0.23350955449E+01  0.68544658618E+01  0.51100000000E-03 0. -1.
        -11    1    3    3    0    0  0.64244050244E+01 -0.10921145935E+01  0.13361444924E+02  0.14865863746E+02  0.51100000000E-03 0.  1.
         12    1    3    3    0    0  0.82227891764E+01  0.24843153960E+02  0.12047199687E+02  0.28808533125E+02  0.00000000000E+00 0. -1.
</event>
<event>
 7    1  0.2835316E-011  0.5052889E+02  0.7816164E-02  0.1300439E+00
        -11   -1    0    0    0    0  0.00000000000E+00  0.00000000000E+00  0.45593999997E+02  0.45594000000E+02  0.51100000000E-03 0.  1.
         11   -1    0    0    0    0 -0.00000000000E+00 -0.00000000000E+00 -0.45593999997E+02  0.45594000000E+02  0.51100000000E-03 0. -1.
    9900012    2    1    2    0    0  0.20819914446E+01 -0.34026901583E+02 -0.22158490585E+02  0.50528887556E+02  0.30000084215E+02 0.  0.
        -12    1    1    2    0    0 -0.20819914446E+01  0.34026901583E+02  0.22158490585E+02  0.40659112444E+02  0.00000000000E+00 0.  1.
         11    1    3    3    0    0  0.49317176032E+01 -0.16837271091E+02 -0.32055617994E+01  0.17835110401E+02  0.51100000000E-03 0. -1.
        -11    1    3    3    0    0 -0.52841525110E+01 -0.69677356878E+01  0.22502655513E+01  0.90296901213E+01  0.51100000000E-03 0.  1.
        -12    1    3    3    0    0  0.24344263524E+01 -0.10221894805E+02 -0.21203194336E+02  0.23664087034E+02  0.00000000000E+00 0.  1.
</event>
<event>
 7    1  0.2835316E-011  0.5052886E+02  0.7816164E-02  0.1300439E+00
        -11   -1    0    0    0    0  0.00000000000E+00  0.00000000000E+00  0.45593999997E+02  0.45594000000E+02  0.51100000000E-03 0.  1.
         11   -1    0    0    0    0 -0.00000000000E+00 -0.00000000000E+00 -0.45593999997E+02  0.45594000000E+02  0.51100000000E-03 0. -1.
    9900012    2    1    2    0    0 -0.33644026605E+01  0.10161459087E+02 -0.39224877989E+02  0.50528861921E+02  0.30000006296E+02 0.  0.
        -12    1    1    2    0    0  0.33644026605E+01 -0.10161459087E+02  0.39224877989E+02  0.40659138079E+02  0.00000000000E+00 0.  1.
         11    1    3    3    0    0  0.40152407295E+01  0.23018410237E+01 -0.24681244585E+02  0.25111440913E+02  0.51100000000E-03 0. -1.
        -11    1    3    3    0    0 -0.90751064513E+01 -0.99816112866E-01 -0.14702283153E+02  0.17277865914E+02  0.51100000000E-03 0.  1.
         12    1    3    3    0    0  0.16954630613E+01  0.79594341764E+01  0.15864974833E+00  0.81395550949E+01  0.00000000000E+00 0. -1.
</event>
<event>
 7    1  0.2835316E-011  0.5052886E+02  0.7816164E-02  0.1300439E+00
        -11   -1    0    0    0    0  0.00000000000E+00  0.00000000000E+00  0.45593999997E+02  0.45594000000E+02  0.51100000000E-03 0.  1.
         11   -1    0    0    0    0 -0.00000000000E+00 -0.00000000000E+00 -0.45593999997E+02  0.45594000000E+02  0.51100000000E-03 0. -1.
    9900012    2    1    2    0    0 -0.26847338696E+01 -0.24345968711E+02 -0.32453530781E+02  0.50528860209E+02  0.30000001090E+02 0.  0.
        -12    1    1    2    0    0  0.26847338696E+01  0.24345968711E+02  0.32453530781E+02  0.40659139791E+02  0.00000000000E+00 0.  1.
         11    1    3    3    0    0 -0.10928442456E+00 -0.52642131221E+01 -0.14091315988E+02  0.15042907612E+02  0.51100000000E-03 0. -1.
        -11    1    3    3    0    0  0.85404820585E+01 -0.15766397143E+02 -0.15084217935E+02  0.23431874522E+02  0.51100000000E-03 0.  1.
         12    1    3    3    0    0 -0.11115931504E+02 -0.33153584460E+01 -0.32779968578E+01  0.12054078074E+02  0.00000000000E+00 0. -1.
</event>
<event>
 7    1  0.2835316E-011  0.5052886E+02  0.7816164E-02  0.1300439E+00
        -11   -1    0    0    0    0  0.00000000000E+00  0.00000000000E+00  0.45593999997E+02  0.45594000000E+02  0.51100000000E-03 0.  1.
         11   -1    0    0    0    0 -0.00000000000E+00 -0.00000000000E+00 -0.45593999997E+02  0.45594000000E+02  0.51100000000E-03 0. -1.
    9900012    2    1    2    0    0  0.40241895894E+02  0.47763618476E+01  0.33077952731E+01  0.50528864161E+02  0.30000013103E+02 0.  0.
        -12    1    1    2    0    0 -0.40241895894E+02 -0.47763618476E+01 -0.33077952731E+01  0.40659135839E+02  0.00000000000E+00 0.  1.
         11    1    3    3    0    0  0.26331117435E+01  0.87532755394E+00  0.82871782543E+01  0.87393820983E+01  0.51100000000E-03 0.  1.
        -11    1    3    3    0    0  0.11552176467E+02  0.93106005646E+01 -0.26896974617E+01  0.15078943487E+02  0.51100000000E-03 0. -1.
        -12    1    3    3    0    0  0.26056607684E+02 -0.54095662709E+01 -0.22896855195E+01  0.26710538576E+02  0.00000000000E+00 0.  1.
</event>
<event>
 7    1  0.2835316E-011  0.5052886E+02  0.7816164E-02  0.1300439E+00
        -11   -1    0    0    0    0  0.00000000000E+00  0.00000000000E+00  0.45593999997E+02  0.45594000000E+02  0.51100000000E-03 0.  1.
         11   -1    0    0    0    0 -0.00000000000E+00 -0.00000000000E+00 -0.45593999997E+02  0.45594000000E+02  0.51100000000E-03 0. -1.
    9900012    2    1    2    0    0 -0.29536237183E+02  0.26238720909E+02 -0.96075897560E+01  0.50528861264E+02  0.30000004297E+02 0.  0.
        -12    1    1    2    0    0  0.29536237183E+02 -0.26238720909E+02  0.96075897560E+01  0.40659138736E+02  0.00000000000E+00 0.  1.
         11    1    3    3    0    0 -0.54287679058E+01  0.11808077040E+01 -0.59077150617E+01  0.81096809629E+01  0.51100000000E-03 0. -1.
        -11    1    3    3    0    0  0.16130355203E+01  0.79071280279E+01  0.59583718158E+01  0.10031288661E+02  0.51100000000E-03 0.  1.
         12    1    3    3    0    0 -0.25720504797E+02  0.17150785177E+02 -0.96582465101E+01  0.32387891640E+02  0.00000000000E+00 0. -1.
</event>
<event>
 7    1  0.2835316E-011  0.5052886E+02  0.7816164E-02  0.1300439E+00
        -11   -1    0    0    0    0  0.00000000000E+00  0.00000000000E+00  0.45593999997E+02  0.45594000000E+02  0.51100000000E-03 0. -1.
         11   -1    0    0    0    0 -0.00000000000E+00 -0.00000000000E+00 -0.45593999997E+02  0.45594000000E+02  0.51100000000E-03 0.  1.
    9900012    2    1    2    0    0 -0.13833890371E+02 -0.18083759556E+02  0.33686300903E+02  0.50528858949E+02  0.29999997263E+02 0.  0.
        -12    1    1    2    0    0  0.13833890371E+02  0.18083759556E+02 -0.33686300903E+02  0.40659141051E+02  0.00000000000E+00 0.  1.
         11    1    3    3    0    0 -0.14768143867E+02  0.19356239005E+01  0.19193849819E+02  0.24295032091E+02  0.51100000000E-03 0. -1.
        -11    1    3    3    0    0  0.17394172771E+01 -0.20461125763E+00  0.14611563125E+00  0.17574948846E+01  0.51100000000E-03 0.  1.
        -12    1    3    3    0    0 -0.80516378127E+00 -0.19814772199E+02  0.14346335452E+02  0.24476331974E+02  0.00000000000E+00 0.  1.
</event>
<event>
 7    1  0.2835316E-011  0.5052886E+02  0.7816164E-02  0.1300439E+00
        -11   -1    0    0    0    0  0.00000000000E+00  0.00000000000E+00  0.45593999997E+02  0.45594000000E+02  0.51100000000E-03 0.  1.
         11   -1    0    0    0    0 -0.00000000000E+00 -0.00000000000E+00 -0.45593999997E+02  0.45594000000E+02  0.51100000000E-03 0. -1.
    9900012    2    1    2    0    0  0.52422352938E+01 -0.33346323809E+02 -0.22665116417E+02  0.50528857798E+02  0.29999993762E+02 0.  0.
        -12    1    1    2    0    0 -0.52422352938E+01  0.33346323809E+02  0.22665116417E+02  0.40659142202E+02  0.00000000000E+00 0.  1.
         11    1    3    3    0    0 -0.35128591752E+01 -0.28851331320E+02 -0.21719690416E+02  0.36283390836E+02  0.51100000000E-03 0. -1.
        -11    1    3    3    0    0  0.41777337282E+01 -0.67681986231E+01  0.21898147290E+01  0.82496824492E+01  0.51100000000E-03 0.  1.
        -12    1    3    3    0    0  0.45773607408E+01  0.22732061347E+01 -0.31352407299E+01  0.59957845122E+01  0.00000000000E+00 0.  1.
</event>
<event>
 7    1  0.2835316E-011  0.5052886E+02  0.7816164E-02  0.1300439E+00
        -11   -1    0    0    0    0  0.00000000000E+00  0.00000000000E+00  0.45593999997E+02  0.45594000000E+02  0.51100000000E-03 0.  1.
         11   -1    0    0    0    0 -0.00000000000E+00 -0.00000000000E+00 -0.45593999997E+02  0.45594000000E+02  0.51100000000E-03 0. -1.
    9900012    2    1    2    0    0 -0.27339122123E+02 -0.29951135552E+02 -0.29440095800E+01  0.50528864351E+02  0.30000013682E+02 0.  0.
        -12    1    1    2    0    0  0.27339122123E+02  0.29951135552E+02  0.29440095800E+01  0.40659135649E+02  0.00000000000E+00 0.  1.
         11    1    3    3    0    0 -0.15397151787E+02 -0.13740569362E+02  0.69297636495E+01  0.21769178993E+02  0.51100000000E-03 0. -1.
        -11    1    3    3    0    0  0.41226988884E+01 -0.53988022784E+01  0.46427003173E+00  0.68087634038E+01  0.51100000000E-03 0.  1.
         12    1    3    3    0    0 -0.16064669225E+02 -0.10811763911E+02 -0.10338043261E+02  0.21950921954E+02  0.00000000000E+00 0. -1.
</event>
<event>
 7    1  0.2835316E-011  0.5052887E+02  0.7816164E-02  0.1300439E+00
        -11   -1    0    0    0    0  0.00000000000E+00  0.00000000000E+00  0.45593999997E+02  0.45594000000E+02  0.51100000000E-03 0.  1.
         11   -1    0    0    0    0 -0.00000000000E+00 -0.00000000000E+00 -0.45593999997E+02  0.45594000000E+02  0.51100000000E-03 0. -1.
    9900012    2    1    2    0    0 -0.24759046464E+02 -0.19529390875E+02 -0.25666263630E+02  0.50528873368E+02  0.30000041090E+02 0.  0.
        -12    1    1    2    0    0  0.24759046464E+02  0.19529390875E+02  0.25666263630E+02  0.40659126632E+02  0.00000000000E+00 0.  1.
         11    1    3    3    0    0 -0.65269419001E+01  0.25574519444E+01 -0.55140551411E+01  0.89188752304E+01  0.51100000000E-03 0. -1.
        -11    1    3    3    0    0 -0.18666872972E+02 -0.79496661148E+01 -0.50282692484E+01  0.20902938305E+02  0.51100000000E-03 0.  1.
         12    1    3    3    0    0  0.43476840875E+00 -0.14137176705E+02 -0.15123939241E+02  0.20707059832E+02  0.00000000000E+00 0. -1.
</event>
<event>
 7    1  0.2835316E-011  0.5052888E+02  0.7816164E-02  0.1300439E+00
        -11   -1    0    0    0    0  0.00000000000E+00  0.00000000000E+00  0.45593999997E+02  0.45594000000E+02  0.51100000000E-03 0.  1.
         11   -1    0    0    0    0 -0.00000000000E+00 -0.00000000000E+00 -0.45593999997E+02  0.45594000000E+02  0.51100000000E-03 0. -1.
    9900012    2    1    2    0    0 -0.21698209345E+02 -0.40352332964E+01 -0.34147750375E+02  0.50528877381E+02  0.30000053286E+02 0.  0.
        -12    1    1    2    0    0  0.21698209345E+02  0.40352332964E+01  0.34147750375E+02  0.40659122619E+02  0.00000000000E+00 0.  1.
         11    1    3    3    0    0 -0.70766898781E+01  0.48799665170E+01 -0.13998354781E+01  0.87093715310E+01  0.51100000000E-03 0.  1.
        -11    1    3    3    0    0 -0.17958719135E+02 -0.34486887507E+01 -0.17631807033E+02  0.25402552363E+02  0.51100000000E-03 0. -1.
        -12    1    3    3    0    0  0.33371996680E+01 -0.54665110626E+01 -0.15116107864E+02  0.16416953486E+02  0.00000000000E+00 0.  1.
</event>
<event>
 7    1  0.2835316E-011  0.5052885E+02  0.7816164E-02  0.1300439E+00
        -11   -1    0    0    0    0  0.00000000000E+00  0.00000000000E+00  0.45593999997E+02  0.45594000000E+02  0.51100000000E-03 0. -1.
         11   -1    0    0    0    0 -0.00000000000E+00 -0.00000000000E+00 -0.45593999997E+02  0.45594000000E+02  0.51100000000E-03 0.  1.
    9900012    2    1    2    0    0  0.36751389231E+02  0.94875654790E+01  0.14576954778E+02  0.50528854414E+02  0.29999983478E+02 0.  0.
        -12    1    1    2    0    0 -0.36751389231E+02 -0.94875654790E+01 -0.14576954778E+02  0.40659145586E+02  0.00000000000E+00 0.  1.
         11    1    3    3    0    0  0.24385815913E+02 -0.49807678331E+01  0.16273308997E+02  0.29737125818E+02  0.51100000000E-03 0. -1.
        -11    1    3    3    0    0  0.53123777215E+01  0.63982198100E+01  0.33244975698E+01  0.89560514819E+01  0.51100000000E-03 0.  1.
        -12    1    3    3    0    0  0.70531955969E+01  0.80701135020E+01 -0.50208517889E+01  0.11835677114E+02  0.00000000000E+00 0.  1.
</event>
<event>
 7    1  0.2835316E-011  0.5052886E+02  0.7816164E-02  0.1300439E+00
        -11   -1    0    0    0    0  0.00000000000E+00  0.00000000000E+00  0.45593999997E+02  0.45594000000E+02  0.51100000000E-03 0.  1.
         11   -1    0    0    0    0 -0.00000000000E+00 -0.00000000000E+00 -0.45593999997E+02  0.45594000000E+02  0.51100000000E-03 0. -1.
    9900012    2    1    2    0    0 -0.32047752525E+01  0.36606388390E+02 -0.17403087454E+02  0.50528859473E+02  0.29999998856E+02 0.  0.
        -12    1    1    2    0    0  0.32047752525E+01 -0.36606388390E+02  0.17403087454E+02  0.40659140527E+02  0.00000000000E+00 0.  1.
         11    1    3    3    0    0  0.31681722954E+01  0.25925892864E+02  0.25630570860E+01  0.26244208854E+02  0.51100000000E-03 0.  1.
        -11    1    3    3    0    0 -0.62255990656E+01  0.69734146027E+01 -0.10190606096E+02  0.13828776078E+02  0.51100000000E-03 0. -1.
        -12    1    3    3    0    0 -0.14734848232E+00  0.37070809237E+01 -0.97755384445E+01  0.10455874542E+02  0.00000000000E+00 0.  1.
</event>
<event>
 7    1  0.2835316E-011  0.5052886E+02  0.7816164E-02  0.1300439E+00
        -11   -1    0    0    0    0  0.00000000000E+00  0.00000000000E+00  0.45593999997E+02  0.45594000000E+02  0.51100000000E-03 0.  1.
         11   -1    0    0    0    0 -0.00000000000E+00 -0.00000000000E+00 -0.45593999997E+02  0.45594000000E+02  0.51100000000E-03 0. -1.
    9900012    2    1    2    0    0  0.29709665460E+01  0.19462376009E+02 -0.35574640382E+02  0.50528858833E+02  0.29999996909E+02 0.  0.
        -12    1    1    2    0    0 -0.29709665460E+01 -0.19462376009E+02  0.35574640382E+02  0.40659141167E+02  0.00000000000E+00 0.  1.
         11    1    3    3    0    0  0.46066712671E+01  0.17127298513E+02 -0.19261338025E+02  0.26183294622E+02  0.51100000000E-03 0. -1.
        -11    1    3    3    0    0  0.58114083227E+01 -0.49614855476E+01 -0.71668408187E+01  0.10476278591E+02  0.51100000000E-03 0.  1.
         12    1    3    3    0    0 -0.74471130438E+01  0.72965630438E+01 -0.91464615382E+01  0.13869285620E+02  0.00000000000E+00 0. -1.
</event>
<event>
 7    1  0.2835316E-011  0.5052885E+02  0.7816164E-02  0.1300439E+00
        -11   -1    0    0    0    0  0.00000000000E+00  0.00000000000E+00  0.45593999997E+02  0.45594000000E+02  0.51100000000E-03 0.  1.
         11   -1    0    0    0    0 -0.00000000000E+00 -0.00000000000E+00 -0.45593999997E+02  0.45594000000E+02  0.51100000000E-03 0. -1.
    9900012    2    1    2    0    0  0.20949828154E+02 -0.12197962039E+02 -0.32641703113E+02  0.50528851463E+02  0.29999974508E+02 0.  0.
        -12    1    1    2    0    0 -0.20949828154E+02  0.12197962039E+02  0.32641703113E+02  0.40659148537E+02  0.00000000000E+00 0.  1.
         11    1    3    3    0    0  0.76526814301E+01  0.18545583330E+01 -0.66562135649E+01  0.10310581893E+02  0.51100000000E-03 0. -1.
        -11    1    3    3    0    0  0.18489100610E+02 -0.12727551755E+02 -0.12466038413E+02  0.25675660245E+02  0.51100000000E-03 0.  1.
         12    1    3    3    0    0 -0.51919538861E+01 -0.13249686169E+01 -0.13519451136E+02  0.14542609326E+02  0.00000000000E+00 0. -1.
</event>
<event>
 7    1  0.2835316E-011  0.5052886E+02  0.7816164E-02  0.1300439E+00
        -11   -1    0    0    0    0  0.00000000000E+00  0.00000000000E+00  0.45593999997E+02  0.45594000000E+02  0.51100000000E-03 0.  1.
         11   -1    0    0    0    0 -0.00000000000E+00 -0.00000000000E+00 -0.45593999997E+02  0.45594000000E+02  0.51100000000E-03 0. -1.
    9900012    2    1    2    0    0  0.18005217647E+02  0.29314701856E+02 -0.21670860471E+02  0.50528858335E+02  0.29999995395E+02 0.  0.
        -12    1    1    2    0    0 -0.18005217647E+02 -0.29314701856E+02  0.21670860471E+02  0.40659141665E+02  0.00000000000E+00 0.  1.
         11    1    3    3    0    0  0.94931726217E+01  0.82256049058E+01 -0.12682698578E+02  0.17850258989E+02  0.51100000000E-03 0. -1.
        -11    1    3    3    0    0  0.14373085411E+02  0.12180743767E+02 -0.16957665782E+00  0.18841041888E+02  0.51100000000E-03 0.  1.
        -12    1    3    3    0    0 -0.58610403859E+01  0.89083531836E+01 -0.88185852349E+01  0.13837557458E+02  0.00000000000E+00 0.  1.
</event>
<event>
 7    1  0.2835316E-011  0.5052887E+02  0.7816164E-02  0.1300439E+00
        -11   -1    0    0    0    0  0.00000000000E+00  0.00000000000E+00  0.45593999997E+02  0.45594000000E+02  0.51100000000E-03 0.  1.
         11   -1    0    0    0    0 -0.00000000000E+00 -0.00000000000E+00 -0.45593999997E+02  0.45594000000E+02  0.51100000000E-03 0. -1.
    9900012    2    1    2    0    0 -0.54568657608E+00 -0.27408412954E+02 -0.30027416482E+02  0.50528872918E+02  0.30000039720E+02 0.  0.
        -12    1    1    2    0    0  0.54568657608E+00  0.27408412954E+02  0.30027416482E+02  0.40659127082E+02  0.00000000000E+00 0.  1.
         11    1    3    3    0    0 -0.36094551745E+01 -0.54841733337E+01 -0.22396798888E+01  0.69368934024E+01  0.51100000000E-03 0.  1.
        -11    1    3    3    0    0  0.61152569183E+01 -0.13485556344E+02 -0.44454958594E+00  0.14813987366E+02  0.51100000000E-03 0. -1.
         12    1    3    3    0    0 -0.30514883199E+01 -0.84386832761E+01 -0.27343187007E+02  0.28777992149E+02  0.00000000000E+00 0. -1.
</event>
<event>
 7    1  0.2835316E-011  0.5052897E+02  0.7816164E-02  0.1300438E+00
        -11   -1    0    0    0    0  0.00000000000E+00  0.00000000000E+00  0.45593999997E+02  0.45594000000E+02  0.51100000000E-03 0. -1.
         11   -1    0    0    0    0 -0.00000000000E+00 -0.00000000000E+00 -0.45593999997E+02  0.45594000000E+02  0.51100000000E-03 0.  1.
    9900012    2    1    2    0    0  0.32336887287E+02 -0.17049875130E+02  0.17798426573E+02  0.50528972591E+02  0.30000342686E+02 0.  0.
        -12    1    1    2    0    0 -0.32336887287E+02  0.17049875130E+02 -0.17798426573E+02  0.40659027409E+02  0.00000000000E+00 0.  1.
         11    1    3    3    0    0  0.20952767396E+00 -0.15631975713E+00 -0.64525587685E+01  0.64578520140E+01  0.51100000000E-03 0.  1.
        -11    1    3    3    0    0  0.70525058292E+01 -0.63362938587E+01  0.78030173981E+01  0.12278987707E+02  0.51100000000E-03 0. -1.
        -12    1    3    3    0    0  0.25074853784E+02 -0.10557261514E+02  0.16447967944E+02  0.31792132870E+02  0.00000000000E+00 0.  1.
</event>
<event>
 7    1  0.2835316E-011  0.5052885E+02  0.7816164E-02  0.1300439E+00
        -11   -1    0    0    0    0  0.00000000000E+00  0.00000000000E+00  0.45593999997E+02  0.45594000000E+02  0.51100000000E-03 0.  1.
         11   -1    0    0    0    0 -0.00000000000E+00 -0.00000000000E+00 -0.45593999997E+02  0.45594000000E+02  0.51100000000E-03 0. -1.
    9900012    2    1    2    0    0 -0.34683763715E+02  0.45893314090E+01 -0.20715724840E+02  0.50528847477E+02  0.29999962392E+02 0.  0.
        -12    1    1    2    0    0  0.34683763715E+02 -0.45893314090E+01  0.20715724840E+02  0.40659152523E+02  0.00000000000E+00 0.  1.
         11    1    3    3    0    0 -0.55070088550E+01  0.11027372760E+02 -0.11408693743E+02  0.16795487182E+02  0.51100000000E-03 0. -1.
        -11    1    3    3    0    0 -0.14219662261E+01 -0.22681287979E+01  0.21352191626E+01  0.34242601136E+01  0.51100000000E-03 0.  1.
        -12    1    3    3    0    0 -0.27754788634E+02 -0.41699125531E+01 -0.11442250260E+02  0.30309100181E+02  0.00000000000E+00 0.  1.
</event>
<event>
 7    1  0.2835316E-011  0.5052886E+02  0.7816164E-02  0.1300439E+00
        -11   -1    0    0    0    0  0.00000000000E+00  0.00000000000E+00  0.45593999997E+02  0.45594000000E+02  0.51100000000E-03 0. -1.
         11   -1    0    0    0    0 -0.00000000000E+00 -0.00000000000E+00 -0.45593999997E+02  0.45594000000E+02  0.51100000000E-03 0.  1.
    9900012    2    1    2    0    0  0.14080037744E+02  0.36650593034E+02  0.10566555061E+02  0.50528861809E+02  0.30000005954E+02 0.  0.
        -12    1    1    2    0    0 -0.14080037744E+02 -0.36650593034E+02 -0.10566555061E+02  0.40659138191E+02  0.00000000000E+00 0.  1.
         11    1    3    3    0    0  0.15874901928E+02  0.79256594196E+01  0.33232701671E+01  0.18051944863E+02  0.51100000000E-03 0. -1.
        -11    1    3    3    0    0 -0.28008048779E+01  0.55032445909E+00  0.26840172040E+01  0.39180752401E+01  0.51100000000E-03 0.  1.
        -12    1    3    3    0    0  0.10059406940E+01  0.28174609155E+02  0.45592676898E+01  0.28558841706E+02  0.00000000000E+00 0.  1.
</event>
<event>
 7    1  0.2835316E-011  0.5052886E+02  0.7816164E-02  0.1300439E+00
        -11   -1    0    0    0    0  0.00000000000E+00  0.00000000000E+00  0.45593999997E+02  0.45594000000E+02  0.51100000000E-03 0.  1.
         11   -1    0    0    0    0 -0.00000000000E+00 -0.00000000000E+00 -0.45593999997E+02  0.45594000000E+02  0.51100000000E-03 0. -1.
    9900012    2    1    2    0    0  0.17933879957E+02  0.26597503886E+02 -0.24982280755E+02  0.50528860621E+02  0.30000002344E+02 0.  0.
        -12    1    1    2    0    0 -0.17933879957E+02 -0.26597503886E+02  0.24982280755E+02  0.40659139379E+02  0.00000000000E+00 0.  1.
         11    1    3    3    0    0  0.26872316162E+01 -0.17859193753E+01  0.91619776510E+00  0.33541228928E+01  0.51100000000E-03 0. -1.
        -11    1    3    3    0    0 -0.42396852338E+01  0.29617938480E+01 -0.10348499956E+02  0.11568863613E+02  0.51100000000E-03 0.  1.
         12    1    3    3    0    0  0.19486333574E+02  0.25421629414E+02 -0.15549978564E+02  0.35605874116E+02  0.00000000000E+00 0. -1.
</event>
<event>
 7    1  0.2835316E-011  0.5052884E+02  0.7816164E-02  0.1300439E+00
        -11   -1    0    0    0    0  0.00000000000E+00  0.00000000000E+00  0.45593999997E+02  0.45594000000E+02  0.51100000000E-03 0.  1.
         11   -1    0    0    0    0 -0.00000000000E+00 -0.00000000000E+00 -0.45593999997E+02  0.45594000000E+02  0.51100000000E-03 0. -1.
    9900012    2    1    2    0    0 -0.32081462760E+02  0.14717397413E+02 -0.20182793141E+02  0.50528841396E+02  0.29999943906E+02 0.  0.
        -12    1    1    2    0    0  0.32081462760E+02 -0.14717397413E+02  0.20182793141E+02  0.40659158604E+02  0.00000000000E+00 0.  1.
         11    1    3    3    0    0 -0.15945130031E+02 -0.69137250297E+01 -0.17972646909E+01  0.17472175770E+02  0.51100000000E-03 0. -1.
        -11    1    3    3    0    0 -0.37885943703E+01  0.78943527454E+01 -0.80314809293E+01  0.11881874379E+02  0.51100000000E-03 0.  1.
        -12    1    3    3    0    0 -0.12347738359E+02  0.13736769698E+02 -0.10354047521E+02  0.21174791247E+02  0.00000000000E+00 0.  1.
</event>
<event>
 7    1  0.2835316E-011  0.5052887E+02  0.7816164E-02  0.1300439E+00
        -11   -1    0    0    0    0  0.00000000000E+00  0.00000000000E+00  0.45593999997E+02  0.45594000000E+02  0.51100000000E-03 0. -1.
         11   -1    0    0    0    0 -0.00000000000E+00 -0.00000000000E+00 -0.45593999997E+02  0.45594000000E+02  0.51100000000E-03 0.  1.
    9900012    2    1    2    0    0  0.27396090544E+02  0.25896184546E+02  0.15231775550E+02  0.50528866494E+02  0.30000020194E+02 0.  0.
        -12    1    1    2    0    0 -0.27396090544E+02 -0.25896184546E+02 -0.15231775550E+02  0.40659133506E+02  0.00000000000E+00 0.  1.
         11    1    3    3    0    0 -0.18324528138E+01  0.53057960559E+01  0.72295420355E+01  0.91529030042E+01  0.51100000000E-03 0. -1.
        -11    1    3    3    0    0  0.18551513701E+02  0.89746914444E+01  0.13536180887E+02  0.24656275882E+02  0.51100000000E-03 0.  1.
        -12    1    3    3    0    0  0.10677029657E+02  0.11615697045E+02 -0.55339473734E+01  0.16719687607E+02  0.00000000000E+00 0.  1.
</event>
<event>
 7    1  0.2835316E-011  0.5052886E+02  0.7816164E-02  0.1300439E+00
        -11   -1    0    0    0    0  0.00000000000E+00  0.00000000000E+00  0.45593999997E+02  0.45594000000E+02  0.51100000000E-03 0.  1.
         11   -1    0    0    0    0 -0.00000000000E+00 -0.00000000000E+00 -0.45593999997E+02  0.45594000000E+02  0.51100000000E-03 0. -1.
    9900012    2    1    2    0    0  0.66846308164E+01 -0.35300387544E+02 -0.19035852619E+02  0.50528864067E+02  0.30000012817E+02 0.  0.
        -12    1    1    2    0    0 -0.66846308164E+01  0.35300387544E+02  0.19035852619E+02  0.40659135933E+02  0.00000000000E+00 0.  1.
         11    1    3    3    0    0  0.16385871935E+01 -0.76281080650E+01 -0.83199079778E+00  0.78463500808E+01  0.51100000000E-03 0. -1.
        -11    1    3    3    0    0 -0.69976641119E+01 -0.21930300328E+02 -0.43101882722E+01  0.23419716025E+02  0.51100000000E-03 0.  1.
        -12    1    3    3    0    0  0.12043707735E+02 -0.57419791507E+01 -0.13893673549E+02  0.19262797960E+02  0.00000000000E+00 0.  1.
</event>
<event>
 7    1  0.2835316E-011  0.5052886E+02  0.7816164E-02  0.1300439E+00
        -11   -1    0    0    0    0  0.00000000000E+00  0.00000000000E+00  0.45593999997E+02  0.45594000000E+02  0.51100000000E-03 0. -1.
         11   -1    0    0    0    0 -0.00000000000E+00 -0.00000000000E+00 -0.45593999997E+02  0.45594000000E+02  0.51100000000E-03 0.  1.
    9900012    2    1    2    0    0 -0.13163750320E+02  0.37172858862E+02 -0.99025142694E+01  0.50528861454E+02  0.30000004876E+02 0.  0.
        -12    1    1    2    0    0  0.13163750320E+02 -0.37172858862E+02  0.99025142694E+01  0.40659138546E+02  0.00000000000E+00 0.  1.
         11    1    3    3    0    0 -0.12844507207E+02  0.18094148986E+02  0.31106537388E+01  0.22406600809E+02  0.51100000000E-03 0. -1.
        -11    1    3    3    0    0 -0.75350258134E+01  0.14597055889E+02 -0.89318954323E+01  0.18698379900E+02  0.51100000000E-03 0.  1.
        -12    1    3    3    0    0  0.72157827004E+01  0.44816539877E+01 -0.40812725758E+01  0.94238807443E+01  0.00000000000E+00 0.  1.
</event>
<event>
 7    1  0.2835316E-011  0.5052887E+02  0.7816164E-02  0.1300439E+00
        -11   -1    0    0    0    0  0.00000000000E+00  0.00000000000E+00  0.45593999997E+02  0.45594000000E+02  0.51100000000E-03 0. -1.
         11   -1    0    0    0    0 -0.00000000000E+00 -0.00000000000E+00 -0.45593999997E+02  0.45594000000E+02  0.51100000000E-03 0.  1.
    9900012    2    1    2    0    0  0.17226566317E+02  0.36822372005E+02  0.72328639274E+00  0.50528870516E+02  0.30000032421E+02 0.  0.
        -12    1    1    2    0    0 -0.17226566317E+02 -0.36822372005E+02 -0.72328639274E+00  0.40659129484E+02  0.00000000000E+00 0.  1.
         11    1    3    3    0    0  0.81218823630E+01  0.95086419583E+00  0.26796535338E+01  0.86052111630E+01  0.51100000000E-03 0. -1.
        -11    1    3    3    0    0  0.90888784701E+01  0.58241030623E+01  0.35749455004E+01  0.11371373000E+02  0.51100000000E-03 0.  1.
         12    1    3    3    0    0  0.15805484287E-01  0.30047404747E+02 -0.55313126415E+01  0.30552286353E+02  0.00000000000E+00 0. -1.
</event>
<event>
 7    1  0.2835316E-011  0.5052886E+02  0.7816164E-02  0.1300439E+00
        -11   -1    0    0    0    0  0.00000000000E+00  0.00000000000E+00  0.45593999997E+02  0.45594000000E+02  0.51100000000E-03 0.  1.
         11   -1    0    0    0    0 -0.00000000000E+00 -0.00000000000E+00 -0.45593999997E+02  0.45594000000E+02  0.51100000000E-03 0. -1.
    9900012    2    1    2    0    0  0.49081282429E+01 -0.35539306348E+02 -0.19131999418E+02  0.50528863016E+02  0.30000009624E+02 0.  0.
        -12    1    1    2    0    0 -0.49081282429E+01  0.35539306348E+02  0.19131999418E+02  0.40659136984E+02  0.00000000000E+00 0.  1.
         11    1    3    3    0    0 -0.18896673873E+01 -0.83431370772E+01 -0.13069385820E+02  0.15620103236E+02  0.51100000000E-03 0. -1.
        -11    1    3    3    0    0 -0.51164998776E+01 -0.96754476233E+00  0.86784795287E+00  0.52790031440E+01  0.51100000000E-03 0.  1.
         12    1    3    3    0    0  0.11914295508E+02 -0.26228624508E+02 -0.69304615512E+01  0.29629756637E+02  0.00000000000E+00 0. -1.
</event>
<event>
 7    1  0.2835316E-011  0.5052885E+02  0.7816164E-02  0.1300439E+00
        -11   -1    0    0    0    0  0.00000000000E+00  0.00000000000E+00  0.45593999997E+02  0.45594000000E+02  0.51100000000E-03 0.  1.
         11   -1    0    0    0    0 -0.00000000000E+00 -0.00000000000E+00 -0.45593999997E+02  0.45594000000E+02  0.51100000000E-03 0. -1.
    9900012    2    1    2    0    0  0.33562331865E+02 -0.14649348302E+02  0.17667288484E+02  0.50528848407E+02  0.29999965217E+02 0.  0.
        -12    1    1    2    0    0 -0.33562331865E+02  0.14649348302E+02 -0.17667288484E+02  0.40659151593E+02  0.00000000000E+00 0.  1.
         11    1    3    3    0    0  0.20723965010E+02 -0.91274138851E+01  0.20420526528E+02  0.30492463232E+02  0.51100000000E-03 0. -1.
        -11    1    3    3    0    0  0.10894283217E+02 -0.74176881188E+01  0.31390901533E+01  0.13548482981E+02  0.51100000000E-03 0.  1.
        -12    1    3    3    0    0  0.19440836379E+01  0.18957537019E+01 -0.58923281975E+01  0.64879021938E+01  0.00000000000E+00 0.  1.
</event>
<event>
 7    1  0.2835316E-011  0.5052887E+02  0.7816164E-02  0.1300439E+00
        -11   -1    0    0    0    0  0.00000000000E+00  0.00000000000E+00  0.45593999997E+02  0.45594000000E+02  0.51100000000E-03 0.  1.
         11   -1    0    0    0    0 -0.00000000000E+00 -0.00000000000E+00 -0.45593999997E+02  0.45594000000E+02  0.51100000000E-03 0. -1.
    9900012    2    1    2    0    0  0.39972169449E+02  0.74150445832E+01  0.63863408679E+00  0.50528867322E+02  0.30000022713E+02 0.  0.
        -12    1    1    2    0    0 -0.39972169449E+02 -0.74150445832E+01 -0.63863408679E+00  0.40659132678E+02  0.00000000000E+00 0.  1.
         11    1    3    3    0    0  0.25994415811E+01  0.22426673871E+01  0.12031244311E+01  0.36378788050E+01  0.51100000000E-03 0. -1.
        -11    1    3    3    0    0  0.33870331439E+01  0.69286715756E+01  0.86952683766E+01  0.11622657860E+02  0.51100000000E-03 0.  1.
         12    1    3    3    0    0  0.33985694724E+02 -0.17562943794E+01 -0.92597587209E+01  0.35268330658E+02  0.00000000000E+00 0. -1.
</event>
<event>
 7    1  0.2835316E-011  0.5052886E+02  0.7816164E-02  0.1300439E+00
        -11   -1    0    0    0    0  0.00000000000E+00  0.00000000000E+00  0.45593999997E+02  0.45594000000E+02  0.51100000000E-03 0. -1.
         11   -1    0    0    0    0 -0.00000000000E+00 -0.00000000000E+00 -0.45593999997E+02  0.45594000000E+02  0.51100000000E-03 0.  1.
    9900012    2    1    2    0    0 -0.59875257190E+01  0.35476937571E+02  0.18939433113E+02  0.50528859696E+02  0.29999999531E+02 0.  0.
        -12    1    1    2    0    0  0.59875257190E+01 -0.35476937571E+02 -0.18939433113E+02  0.40659140304E+02  0.00000000000E+00 0.  1.
         11    1    3    3    0    0 -0.97073780397E+01  0.71781514580E+00  0.28727099401E+01  0.10148936380E+02  0.51100000000E-03 0. -1.
        -11    1    3    3    0    0  0.30837978762E+01  0.34719080161E+01  0.58323350900E+01  0.74552053946E+01  0.51100000000E-03 0.  1.
        -12    1    3    3    0    0  0.63605444452E+00  0.31287214409E+02  0.10234388083E+02  0.32924717921E+02  0.00000000000E+00 0.  1.
</event>
<event>
 7    1  0.3266919E-011  0.5052891E+02  0.7816164E-02  0.1300439E+00
        -11   -1    0    0    0    0  0.00000000000E+00  0.00000000000E+00  0.45593999997E+02  0.45594000000E+02  0.51100000000E-03 0.  1.
         11   -1    0    0    0    0 -0.00000000000E+00 -0.00000000000E+00 -0.45593999997E+02  0.45594000000E+02  0.51100000000E-03 0. -1.
    9900012    2    1    2    0    0  0.32115239721E+02 -0.20875004005E+02  0.13638436877E+02  0.50528912762E+02  0.30000160832E+02 0.  0.
        -12    1    1    2    0    0 -0.32115239721E+02  0.20875004005E+02 -0.13638436877E+02  0.40659087238E+02  0.00000000000E+00 0.  1.
         11    1    3    3    0    0  0.26232270714E+02 -0.77751730761E+01  0.12179301970E+02  0.29948635026E+02  0.51100000000E-03 0. -1.
        -11    1    3    3    0    0  0.10320103263E+02 -0.12084677396E+02  0.35079518431E+00  0.15895503032E+02  0.51100000000E-03 0.  1.
        -12    1    3    3    0    0 -0.44371342552E+01 -0.10151535329E+01  0.11083397225E+01  0.46847747048E+01  0.00000000000E+00 0.  1.
</event>
<event>
 7    1  0.2835316E-011  0.5052885E+02  0.7816164E-02  0.1300439E+00
        -11   -1    0    0    0    0  0.00000000000E+00  0.00000000000E+00  0.45593999997E+02  0.45594000000E+02  0.51100000000E-03 0. -1.
         11   -1    0    0    0    0 -0.00000000000E+00 -0.00000000000E+00 -0.45593999997E+02  0.45594000000E+02  0.51100000000E-03 0.  1.
    9900012    2    1    2    0    0  0.22922984647E+01 -0.39197145240E+02  0.10559131847E+02  0.50528854748E+02  0.29999984493E+02 0.  0.
        -12    1    1    2    0    0 -0.22922984647E+01  0.39197145240E+02 -0.10559131847E+02  0.40659145252E+02  0.00000000000E+00 0.  1.
         11    1    3    3    0    0  0.14435783159E+02 -0.18813031750E+02  0.81486508759E+01  0.25074339680E+02  0.51100000000E-03 0. -1.
        -11    1    3    3    0    0 -0.39988897420E+01 -0.50257043758E+01  0.46463250941E+01  0.79269893896E+01  0.51100000000E-03 0.  1.
        -12    1    3    3    0    0 -0.81445949522E+01 -0.15358409115E+02 -0.22358441233E+01  0.17527525679E+02  0.00000000000E+00 0.  1.
</event>
<event>
 7    1  0.2835316E-011  0.5052886E+02  0.7816164E-02  0.1300439E+00
        -11   -1    0    0    0    0  0.00000000000E+00  0.00000000000E+00  0.45593999997E+02  0.45594000000E+02  0.51100000000E-03 0.  1.
         11   -1    0    0    0    0 -0.00000000000E+00 -0.00000000000E+00 -0.45593999997E+02  0.45594000000E+02  0.51100000000E-03 0. -1.
    9900012    2    1    2    0    0  0.18253857278E+02  0.34026578212E+02  0.12733993907E+02  0.50528856733E+02  0.29999990527E+02 0.  0.
        -12    1    1    2    0    0 -0.18253857278E+02 -0.34026578212E+02 -0.12733993907E+02  0.40659143267E+02  0.00000000000E+00 0.  1.
         11    1    3    3    0    0  0.23904769245E+01  0.21209776096E+02  0.80285702367E+01  0.22804098804E+02  0.51100000000E-03 0. -1.
        -11    1    3    3    0    0  0.18093195236E+02  0.15360124661E+02  0.52262977939E+01  0.24302496422E+02  0.51100000000E-03 0.  1.
        -12    1    3    3    0    0 -0.22298148828E+01 -0.25433225442E+01 -0.52087412328E+00  0.34222615078E+01  0.00000000000E+00 0.  1.
</event>
<event>
 7    1  0.2835316E-011  0.5052885E+02  0.7816164E-02  0.1300439E+00
        -11   -1    0    0    0    0  0.00000000000E+00  0.00000000000E+00  0.45593999997E+02  0.45594000000E+02  0.51100000000E-03 0. -1.
         11   -1    0    0    0    0 -0.00000000000E+00 -0.00000000000E+00 -0.45593999997E+02  0.45594000000E+02  0.51100000000E-03 0.  1.
    9900012    2    1    2    0    0  0.22771780846E+02 -0.19159753565E+02  0.27704087663E+02  0.50528848106E+02  0.29999964301E+02 0.  0.
        -12    1    1    2    0    0 -0.22771780846E+02  0.19159753565E+02 -0.27704087663E+02  0.40659151894E+02  0.00000000000E+00 0.  1.
         11    1    3    3    0    0  0.15991012621E+02 -0.24015902466E+01  0.14461505991E+02  0.21693669034E+02  0.51100000000E-03 0. -1.
        -11    1    3    3    0    0  0.11753551628E+02 -0.11893503811E+02  0.38704178989E+01  0.17163377982E+02  0.51100000000E-03 0.  1.
         12    1    3    3    0    0 -0.49727834032E+01 -0.48646595068E+01  0.93721637729E+01  0.11671801090E+02  0.00000000000E+00 0. -1.
</event>
<event>
 7    1  0.2835316E-011  0.5052886E+02  0.7816164E-02  0.1300439E+00
        -11   -1    0    0    0    0  0.00000000000E+00  0.00000000000E+00  0.45593999997E+02  0.45594000000E+02  0.51100000000E-03 0. -1.
         11   -1    0    0    0    0 -0.00000000000E+00 -0.00000000000E+00 -0.45593999997E+02  0.45594000000E+02  0.51100000000E-03 0.  1.
    9900012    2    1    2    0    0 -0.15873605806E+02  0.21249682533E+02  0.30816311752E+02  0.50528862786E+02  0.30000008923E+02 0.  0.
        -12    1    1    2    0    0  0.15873605806E+02 -0.21249682533E+02 -0.30816311752E+02  0.40659137214E+02  0.00000000000E+00 0.  1.
         11    1    3    3    0    0  0.73393943152E+00  0.15080091227E+01  0.16227212306E+02  0.16313650054E+02  0.51100000000E-03 0. -1.
        -11    1    3    3    0    0 -0.16591367152E+02  0.16420131587E+02  0.17982804857E+02  0.29466514149E+02  0.51100000000E-03 0.  1.
         12    1    3    3    0    0 -0.16178085473E-01  0.33215418230E+01 -0.33937054109E+01  0.47486985825E+01  0.00000000000E+00 0. -1.
</event>
<event>
 7    1  0.2963343E-011  0.5052887E+02  0.7816164E-02  0.1300439E+00
        -11   -1    0    0    0    0  0.00000000000E+00  0.00000000000E+00  0.45593999997E+02  0.45594000000E+02  0.51100000000E-03 0. -1.
         11   -1    0    0    0    0 -0.00000000000E+00 -0.00000000000E+00 -0.45593999997E+02  0.45594000000E+02  0.51100000000E-03 0.  1.
    9900012    2    1    2    0    0 -0.76762113751E+01 -0.22320250744E+02  0.33106602018E+02  0.50528869272E+02  0.30000028640E+02 0.  0.
        -12    1    1    2    0    0  0.76762113751E+01  0.22320250744E+02 -0.33106602018E+02  0.40659130728E+02  0.00000000000E+00 0.  1.
         11    1    3    3    0    0 -0.10307088879E+02 -0.18608758811E+02  0.17759180216E+02  0.27711197518E+02  0.51100000000E-03 0. -1.
        -11    1    3    3    0    0  0.32213639127E+01 -0.72553284773E+01  0.17075820048E+02  0.18830841918E+02  0.51100000000E-03 0.  1.
        -12    1    3    3    0    0 -0.59048640841E+00  0.35438365444E+01 -0.17283982455E+01  0.39868298367E+01  0.00000000000E+00 0.  1.
</event>
<event>
 7    1  0.2835316E-011  0.5052885E+02  0.7816164E-02  0.1300439E+00
        -11   -1    0    0    0    0  0.00000000000E+00  0.00000000000E+00  0.45593999997E+02  0.45594000000E+02  0.51100000000E-03 0.  1.
         11   -1    0    0    0    0 -0.00000000000E+00 -0.00000000000E+00 -0.45593999997E+02  0.45594000000E+02  0.51100000000E-03 0. -1.
    9900012    2    1    2    0    0  0.41773306884E+01  0.29281198524E+02 -0.27898522576E+02  0.50528852928E+02  0.29999978959E+02 0.  0.
        -12    1    1    2    0    0 -0.41773306884E+01 -0.29281198524E+02  0.27898522576E+02  0.40659147072E+02  0.00000000000E+00 0.  1.
         11    1    3    3    0    0 -0.11291666044E+01  0.84565307458E+00 -0.86805329397E+01  0.87944186119E+01  0.51100000000E-03 0. -1.
        -11    1    3    3    0    0 -0.41574540358E+01  0.24937425955E+02 -0.19029299910E+02  0.31642912203E+02  0.51100000000E-03 0.  1.
        -12    1    3    3    0    0  0.94639513285E+01  0.34981194944E+01 -0.18868972661E+00  0.10091522113E+02  0.00000000000E+00 0.  1.
</event>
<event>
 7    1  0.2835316E-011  0.5052884E+02  0.7816164E-02  0.1300439E+00
        -11   -1    0    0    0    0  0.00000000000E+00  0.00000000000E+00  0.45593999997E+02  0.45594000000E+02  0.51100000000E-03 0.  1.
         11   -1    0    0    0    0 -0.00000000000E+00 -0.00000000000E+00 -0.45593999997E+02  0.45594000000E+02  0.51100000000E-03 0. -1.
    9900012    2    1    2    0    0 -0.19839733680E+02 -0.91394145128E+01 -0.34293196511E+02  0.50528840429E+02  0.29999940967E+02 0.  0.
        -12    1    1    2    0    0  0.19839733680E+02  0.91394145128E+01  0.34293196511E+02  0.40659159571E+02  0.00000000000E+00 0.  1.
         11    1    3    3    0    0 -0.10796084774E+02 -0.15225126372E+02 -0.61023254202E+01  0.19636656927E+02  0.51100000000E-03 0. -1.
        -11    1    3    3    0    0 -0.87321624607E+00  0.41097564514E+01 -0.84820072999E+01  0.94655719742E+01  0.51100000000E-03 0.  1.
        -12    1    3    3    0    0 -0.81704326598E+01  0.19759554075E+01 -0.19708863791E+02  0.21426611527E+02  0.00000000000E+00 0.  1.
</event>
<event>
 7    1  0.2835316E-011  0.5052885E+02  0.7816164E-02  0.1300439E+00
        -11   -1    0    0    0    0  0.00000000000E+00  0.00000000000E+00  0.45593999997E+02  0.45594000000E+02  0.51100000000E-03 0. -1.
         11   -1    0    0    0    0 -0.00000000000E+00 -0.00000000000E+00 -0.45593999997E+02  0.45594000000E+02  0.51100000000E-03 0.  1.
    9900012    2    1    2    0    0 -0.93655282297E+00 -0.10225532462E+02  0.39341168512E+02  0.50528853609E+02  0.29999981031E+02 0.  0.
        -12    1    1    2    0    0  0.93655282297E+00  0.10225532462E+02 -0.39341168512E+02  0.40659146391E+02  0.00000000000E+00 0.  1.
         11    1    3    3    0    0  0.95316813550E+01  0.17284246531E+01  0.55377381606E+01  0.11158268030E+02  0.51100000000E-03 0. -1.
        -11    1    3    3    0    0 -0.24595668668E+01 -0.11697899881E+02  0.22989828981E+02  0.25911822932E+02  0.51100000000E-03 0.  1.
        -12    1    3    3    0    0 -0.80086673112E+01 -0.25605723405E+00  0.10813601370E+02  0.13458762648E+02  0.00000000000E+00 0.  1.
</event>
<event>
 7    1  0.2835316E-011  0.5052886E+02  0.7816164E-02  0.1300439E+00
        -11   -1    0    0    0    0  0.00000000000E+00  0.00000000000E+00  0.45593999997E+02  0.45594000000E+02  0.51100000000E-03 0. -1.
         11   -1    0    0    0    0 -0.00000000000E+00 -0.00000000000E+00 -0.45593999997E+02  0.45594000000E+02  0.51100000000E-03 0.  1.
    9900012    2    1    2    0    0  0.43849243499E+01  0.36610966067E+02 -0.17134044686E+02  0.50528857299E+02  0.29999992245E+02 0.  0.
        -12    1    1    2    0    0 -0.43849243499E+01 -0.36610966067E+02  0.17134044686E+02  0.40659142701E+02  0.00000000000E+00 0.  1.
         11    1    3    3    0    0 -0.21009408786E+01  0.93629066022E+01 -0.39565632605E+00  0.96038802995E+01  0.51100000000E-03 0. -1.
        -11    1    3    3    0    0 -0.25034500950E+01  0.23287174347E+02 -0.19764376397E+02  0.30646212263E+02  0.51100000000E-03 0.  1.
        -12    1    3    3    0    0  0.89893153234E+01  0.39608851178E+01  0.30259880373E+01  0.10278764736E+02  0.00000000000E+00 0.  1.
</event>
<event>
 7    1  0.2835316E-011  0.5052882E+02  0.7816164E-02  0.1300439E+00
        -11   -1    0    0    0    0  0.00000000000E+00  0.00000000000E+00  0.45593999997E+02  0.45594000000E+02  0.51100000000E-03 0.  1.
         11   -1    0    0    0    0 -0.00000000000E+00 -0.00000000000E+00 -0.45593999997E+02  0.45594000000E+02  0.51100000000E-03 0. -1.
    9900012    2    1    2    0    0 -0.51332369208E+00  0.43593467218E+01 -0.40421551446E+02  0.50528816211E+02  0.29999867355E+02 0.  0.
        -12    1    1    2    0    0  0.51332369208E+00 -0.43593467218E+01  0.40421551446E+02  0.40659183789E+02  0.00000000000E+00 0.  1.
         11    1    3    3    0    0 -0.10473887117E+01  0.85439081868E+01 -0.50981844041E+01  0.10004342792E+02  0.51100000000E-03 0. -1.
        -11    1    3    3    0    0 -0.55278904760E+01  0.30304208096E+01 -0.32442489528E+01  0.70898642390E+01  0.51100000000E-03 0.  1.
         12    1    3    3    0    0  0.60619554956E+01 -0.72149822746E+01 -0.32079118089E+02  0.33434609180E+02  0.00000000000E+00 0. -1.
</event>
<event>
 7    1  0.2835316E-011  0.5052883E+02  0.7816164E-02  0.1300439E+00
        -11   -1    0    0    0    0  0.00000000000E+00  0.00000000000E+00  0.45593999997E+02  0.45594000000E+02  0.51100000000E-03 0.  1.
         11   -1    0    0    0    0 -0.00000000000E+00 -0.00000000000E+00 -0.45593999997E+02  0.45594000000E+02  0.51100000000E-03 0. -1.
    9900012    2    1    2    0    0 -0.28660567105E+02  0.92507499651E+01 -0.27315996056E+02  0.50528829789E+02  0.29999908627E+02 0.  0.
        -12    1    1    2    0    0  0.28660567105E+02 -0.92507499651E+01  0.27315996056E+02  0.40659170211E+02  0.00000000000E+00 0.  1.
         11    1    3    3    0    0 -0.44541080669E+00  0.10774005136E+01 -0.11286910584E+02  0.11346961419E+02  0.51100000000E-03 0. -1.
        -11    1    3    3    0    0 -0.59033367280E+01 -0.18373998014E+01  0.41752707964E+01  0.74604496539E+01  0.51100000000E-03 0.  1.
         12    1    3    3    0    0 -0.22311819571E+02  0.10010749253E+02 -0.20204356268E+02  0.31721418716E+02  0.00000000000E+00 0. -1.
</event>
<event>
 7    1  0.2835316E-011  0.5052887E+02  0.7816164E-02  0.1300439E+00
        -11   -1    0    0    0    0  0.00000000000E+00  0.00000000000E+00  0.45593999997E+02  0.45594000000E+02  0.51100000000E-03 0. -1.
         11   -1    0    0    0    0 -0.00000000000E+00 -0.00000000000E+00 -0.45593999997E+02  0.45594000000E+02  0.51100000000E-03 0.  1.
    9900012    2    1    2    0    0 -0.13626390934E+02  0.15825327165E+02  0.34886175194E+02  0.50528871511E+02  0.30000035445E+02 0.  0.
        -12    1    1    2    0    0  0.13626390934E+02 -0.15825327165E+02 -0.34886175194E+02  0.40659128489E+02  0.00000000000E+00 0.  1.
         11    1    3    3    0    0  0.28633723877E+01  0.49981942691E+01  0.17032881758E+01  0.60068326307E+01  0.51100000000E-03 0. -1.
        -11    1    3    3    0    0 -0.57383117706E+01 -0.61581586819E+01  0.46418747910E+01  0.96123952355E+01  0.51100000000E-03 0.  1.
         12    1    3    3    0    0 -0.10751451551E+02  0.16985291578E+02  0.28541012228E+02  0.34909643645E+02  0.00000000000E+00 0. -1.
</event>
<event>
 7    1  0.2835316E-011  0.5052885E+02  0.7816164E-02  0.1300439E+00
        -11   -1    0    0    0    0  0.00000000000E+00  0.00000000000E+00  0.45593999997E+02  0.45594000000E+02  0.51100000000E-03 0. -1.
         11   -1    0    0    0    0 -0.00000000000E+00 -0.00000000000E+00 -0.45593999997E+02  0.45594000000E+02  0.51100000000E-03 0.  1.
    9900012    2    1    2    0    0  0.35510702371E+02 -0.11360733310E+02 -0.16220048712E+02  0.50528853126E+02  0.29999979563E+02 0.  0.
        -12    1    1    2    0    0 -0.35510702371E+02  0.11360733310E+02  0.16220048712E+02  0.40659146874E+02  0.00000000000E+00 0.  1.
         11    1    3    3    0    0  0.41910820995E+01 -0.45762530421E+01  0.84100271376E+00  0.62621519381E+01  0.51100000000E-03 0. -1.
        -11    1    3    3    0    0  0.14338150560E+02 -0.11265063427E+02 -0.19312393986E+02  0.26560361014E+02  0.51100000000E-03 0.  1.
        -12    1    3    3    0    0  0.16981469712E+02  0.44805831593E+01  0.22513425596E+01  0.17706340174E+02  0.00000000000E+00 0.  1.
</event>
<event>
 7    1  0.2835316E-011  0.5052883E+02  0.7816164E-02  0.1300439E+00
        -11   -1    0    0    0    0  0.00000000000E+00  0.00000000000E+00  0.45593999997E+02  0.45594000000E+02  0.51100000000E-03 0.  1.
         11   -1    0    0    0    0 -0.00000000000E+00 -0.00000000000E+00 -0.45593999997E+02  0.45594000000E+02  0.51100000000E-03 0. -1.
    9900012    2    1    2    0    0 -0.12690073572E+02 -0.36710724360E+02 -0.12018866489E+02  0.50528826349E+02  0.29999898171E+02 0.  0.
        -12    1    1    2    0    0  0.12690073572E+02  0.36710724360E+02  0.12018866489E+02  0.40659173651E+02  0.00000000000E+00 0.  1.
         11    1    3    3    0    0  0.49050230027E+01 -0.17412132203E+01 -0.15968422581E+01  0.54443530005E+01  0.51100000000E-03 0. -1.
        -11    1    3    3    0    0  0.27764236641E+01 -0.62741115698E+01 -0.68784560831E+01  0.97152541244E+01  0.51100000000E-03 0.  1.
        -12    1    3    3    0    0 -0.20371520239E+02 -0.28695399570E+02 -0.35435681474E+01  0.35369219224E+02  0.00000000000E+00 0.  1.
</event>
<event>
 7    1  0.2835316E-011  0.5052886E+02  0.7816164E-02  0.1300439E+00
        -11   -1    0    0    0    0  0.00000000000E+00  0.00000000000E+00  0.45593999997E+02  0.45594000000E+02  0.51100000000E-03 0. -1.
         11   -1    0    0    0    0 -0.00000000000E+00 -0.00000000000E+00 -0.45593999997E+02  0.45594000000E+02  0.51100000000E-03 0.  1.
    9900012    2    1    2    0    0  0.88517123234E+01  0.20296806341E+02  0.34100627792E+02  0.50528856201E+02  0.29999988908E+02 0.  0.
        -12    1    1    2    0    0 -0.88517123234E+01 -0.20296806341E+02 -0.34100627792E+02  0.40659143799E+02  0.00000000000E+00 0.  1.
         11    1    3    3    0    0  0.10963456767E+02  0.66709253682E+01  0.80802702043E+01  0.15165401293E+02  0.51100000000E-03 0. -1.
        -11    1    3    3    0    0  0.42733054364E+00  0.58850570271E+01 -0.19628952032E+01  0.62184777435E+01  0.51100000000E-03 0.  1.
         12    1    3    3    0    0 -0.25390749873E+01  0.77408239453E+01  0.27983252791E+02  0.29144977164E+02  0.00000000000E+00 0. -1.
</event>
<event>
 7    1  0.2835316E-011  0.5052885E+02  0.7816164E-02  0.1300439E+00
        -11   -1    0    0    0    0  0.00000000000E+00  0.00000000000E+00  0.45593999997E+02  0.45594000000E+02  0.51100000000E-03 0. -1.
         11   -1    0    0    0    0 -0.00000000000E+00 -0.00000000000E+00 -0.45593999997E+02  0.45594000000E+02  0.51100000000E-03 0.  1.
    9900012    2    1    2    0    0 -0.26982399543E+02 -0.18416356323E+02  0.24206503504E+02  0.50528845099E+02  0.29999955164E+02 0.  0.
        -12    1    1    2    0    0  0.26982399543E+02  0.18416356323E+02 -0.24206503504E+02  0.40659154901E+02  0.00000000000E+00 0.  1.
         11    1    3    3    0    0 -0.19282876463E+01 -0.31435562142E+01 -0.49092755481E+01  0.61401323753E+01  0.51100000000E-03 0. -1.
        -11    1    3    3    0    0 -0.88874109906E+01  0.19960545367E+01  0.41944347401E+01  0.10028139951E+02  0.51100000000E-03 0.  1.
         12    1    3    3    0    0 -0.16166700907E+02 -0.17268854646E+02  0.24921344312E+02  0.34360572773E+02  0.00000000000E+00 0. -1.
</event>
<event>
 7    1  0.2835316E-011  0.5052875E+02  0.7816164E-02  0.1300439E+00
        -11   -1    0    0    0    0  0.00000000000E+00  0.00000000000E+00  0.45593999997E+02  0.45594000000E+02  0.51100000000E-03 0.  1.
         11   -1    0    0    0    0 -0.00000000000E+00 -0.00000000000E+00 -0.45593999997E+02  0.45594000000E+02  0.51100000000E-03 0. -1.
    9900012    2    1    2    0    0  0.81968174960E+01 -0.13916879130E+02 -0.37313628715E+02  0.50528754684E+02  0.29999680337E+02 0.  0.
        -12    1    1    2    0    0 -0.81968174960E+01  0.13916879130E+02  0.37313628715E+02  0.40659245316E+02  0.00000000000E+00 0.  1.
         11    1    3    3    0    0 -0.17506794959E+01 -0.95389867581E+01 -0.14620953506E+02  0.17545068502E+02  0.51100000000E-03 0. -1.
        -11    1    3    3    0    0 -0.33877852331E+01  0.31776546505E+01 -0.15256805839E+02  0.15948188064E+02  0.51100000000E-03 0.  1.
        -12    1    3    3    0    0  0.13335282225E+02 -0.75555470225E+01 -0.74358693696E+01  0.17035498117E+02  0.00000000000E+00 0.  1.
</event>
<event>
 7    1  0.2835316E-011  0.5052882E+02  0.7816164E-02  0.1300439E+00
        -11   -1    0    0    0    0  0.00000000000E+00  0.00000000000E+00  0.45593999997E+02  0.45594000000E+02  0.51100000000E-03 0.  1.
         11   -1    0    0    0    0 -0.00000000000E+00 -0.00000000000E+00 -0.45593999997E+02  0.45594000000E+02  0.51100000000E-03 0. -1.
    9900012    2    1    2    0    0  0.17428095855E+02 -0.16365398850E+02 -0.32887751924E+02  0.50528818611E+02  0.29999874649E+02 0.  0.
        -12    1    1    2    0    0 -0.17428095855E+02  0.16365398850E+02  0.32887751924E+02  0.40659181389E+02  0.00000000000E+00 0.  1.
         11    1    3    3    0    0  0.38860878875E+01 -0.82901378378E+01 -0.88877481898E+01  0.12760099239E+02  0.51100000000E-03 0. -1.
        -11    1    3    3    0    0  0.80791330593E+01 -0.98328226710E+01 -0.28011578105E+02  0.30766951439E+02  0.51100000000E-03 0.  1.
        -12    1    3    3    0    0  0.54628749083E+01  0.17575616591E+01  0.40115743708E+01  0.70017679326E+01  0.00000000000E+00 0.  1.
</event>
<event>
 7    1  0.2835316E-011  0.5052886E+02  0.7816164E-02  0.1300439E+00
        -11   -1    0    0    0    0  0.00000000000E+00  0.00000000000E+00  0.45593999997E+02  0.45594000000E+02  0.51100000000E-03 0.  1.
         11   -1    0    0    0    0 -0.00000000000E+00 -0.00000000000E+00 -0.45593999997E+02  0.45594000000E+02  0.51100000000E-03 0. -1.
    9900012    2    1    2    0    0 -0.15447678369E+02 -0.76008772717E+01 -0.36834246284E+02  0.50528858327E+02  0.29999995371E+02 0.  0.
        -12    1    1    2    0    0  0.15447678369E+02  0.76008772717E+01  0.36834246284E+02  0.40659141673E+02  0.00000000000E+00 0.  1.
         11    1    3    3    0    0 -0.28521576937E+01  0.40644886539E+01  0.68335960262E+00  0.50121704016E+01  0.51100000000E-03 0.  1.
        -11    1    3    3    0    0  0.13349564801E+01 -0.91947288291E+00 -0.21993955217E+02  0.22053607540E+02  0.51100000000E-03 0. -1.
        -12    1    3    3    0    0 -0.13930477156E+02 -0.10745893043E+02 -0.15523650669E+02  0.23463080385E+02  0.00000000000E+00 0.  1.
</event>
<event>
 7    1  0.2835316E-011  0.5052889E+02  0.7816164E-02  0.1300439E+00
        -11   -1    0    0    0    0  0.00000000000E+00  0.00000000000E+00  0.45593999997E+02  0.45594000000E+02  0.51100000000E-03 0.  1.
         11   -1    0    0    0    0 -0.00000000000E+00 -0.00000000000E+00 -0.45593999997E+02  0.45594000000E+02  0.51100000000E-03 0. -1.
    9900012    2    1    2    0    0 -0.72698500567E+01 -0.37728815682E+02  0.13298444488E+02  0.50528894275E+02  0.30000104637E+02 0.  0.
        -12    1    1    2    0    0  0.72698500567E+01  0.37728815682E+02 -0.13298444488E+02  0.40659105725E+02  0.00000000000E+00 0.  1.
         11    1    3    3    0    0 -0.13741946097E+02 -0.28632424188E+02  0.41432162179E+01  0.32028472307E+02  0.51100000000E-03 0. -1.
        -11    1    3    3    0    0 -0.17928684557E+01 -0.65137798712E+01  0.14508540443E+01  0.69100422016E+01  0.51100000000E-03 0.  1.
        -12    1    3    3    0    0  0.82649644961E+01 -0.25826116223E+01  0.77043742253E+01  0.11590379766E+02  0.00000000000E+00 0.  1.
</event>
<event>
 7    1  0.2835316E-011  0.5052886E+02  0.7816164E-02  0.1300439E+00
        -11   -1    0    0    0    0  0.00000000000E+00  0.00000000000E+00  0.45593999997E+02  0.45594000000E+02  0.51100000000E-03 0.  1.
         11   -1    0    0    0    0 -0.00000000000E+00 -0.00000000000E+00 -0.45593999997E+02  0.45594000000E+02  0.51100000000E-03 0. -1.
    9900012    2    1    2    0    0  0.25246648904E+02 -0.12627688147E+00 -0.31870933767E+02  0.50528860242E+02  0.30000001191E+02 0.  0.
        -12    1    1    2    0    0 -0.25246648904E+02  0.12627688147E+00  0.31870933767E+02  0.40659139758E+02  0.00000000000E+00 0.  1.
         11    1    3    3    0    0  0.52646864870E+01  0.83378573342E+00 -0.96246101404E+01  0.11002056311E+02  0.51100000000E-03 0. -1.
        -11    1    3    3    0    0  0.21328329955E+02 -0.98895697273E+01 -0.14441001948E+02  0.27590646705E+02  0.51100000000E-03 0.  1.
         12    1    3    3    0    0 -0.13463675386E+01  0.89295071124E+01 -0.78053216785E+01  0.11936157226E+02  0.00000000000E+00 0. -1.
</event>
<event>
 7    1  0.2835316E-011  0.5052886E+02  0.7816164E-02  0.1300439E+00
        -11   -1    0    0    0    0  0.00000000000E+00  0.00000000000E+00  0.45593999997E+02  0.45594000000E+02  0.51100000000E-03 0.  1.
         11   -1    0    0    0    0 -0.00000000000E+00 -0.00000000000E+00 -0.45593999997E+02  0.45594000000E+02  0.51100000000E-03 0. -1.
    9900012    2    1    2    0    0 -0.62821602929E+01 -0.19070597840E+02 -0.35355512281E+02  0.50528862176E+02  0.30000007072E+02 0.  0.
        -12    1    1    2    0    0  0.62821602929E+01  0.19070597840E+02  0.35355512281E+02  0.40659137824E+02  0.00000000000E+00 0.  1.
         11    1    3    3    0    0  0.22773214956E+01  0.28294446644E+01 -0.16954105661E+01  0.40082873590E+01  0.51100000000E-03 0. -1.
        -11    1    3    3    0    0  0.27345567299E+01  0.20157749789E+01  0.37415049221E+00  0.34177680037E+01  0.51100000000E-03 0.  1.
         12    1    3    3    0    0 -0.11294038518E+02 -0.23915817483E+02 -0.34034252207E+02  0.43102806814E+02  0.00000000000E+00 0. -1.
</event>
<event>
 7    1  0.2835316E-011  0.5052886E+02  0.7816164E-02  0.1300439E+00
        -11   -1    0    0    0    0  0.00000000000E+00  0.00000000000E+00  0.45593999997E+02  0.45594000000E+02  0.51100000000E-03 0.  1.
         11   -1    0    0    0    0 -0.00000000000E+00 -0.00000000000E+00 -0.45593999997E+02  0.45594000000E+02  0.51100000000E-03 0. -1.
    9900012    2    1    2    0    0 -0.14194671570E+02 -0.34547409138E+02 -0.16067158938E+02  0.50528858648E+02  0.29999996347E+02 0.  0.
        -12    1    1    2    0    0  0.14194671570E+02  0.34547409138E+02  0.16067158938E+02  0.40659141352E+02  0.00000000000E+00 0.  1.
         11    1    3    3    0    0 -0.16024012231E+01 -0.67451820984E+01 -0.78705652904E+01  0.10488611418E+02  0.51100000000E-03 0. -1.
        -11    1    3    3    0    0  0.72342708187E+01 -0.11110157266E+02 -0.33325783075E+01  0.13670272389E+02  0.51100000000E-03 0.  1.
        -12    1    3    3    0    0 -0.19826541165E+02 -0.16692069773E+02 -0.48640153399E+01  0.26369974841E+02  0.00000000000E+00 0.  1.
</event>
<event>
 7    1  0.2835316E-011  0.5052889E+02  0.7816164E-02  0.1300439E+00
        -11   -1    0    0    0    0  0.00000000000E+00  0.00000000000E+00  0.45593999997E+02  0.45594000000E+02  0.51100000000E-03 0.  1.
         11   -1    0    0    0    0 -0.00000000000E+00 -0.00000000000E+00 -0.45593999997E+02  0.45594000000E+02  0.51100000000E-03 0. -1.
    9900012    2    1    2    0    0 -0.89221848282E+01  0.39043929422E+02 -0.70092596818E+01  0.50528886285E+02  0.30000080352E+02 0.  0.
        -12    1    1    2    0    0  0.89221848282E+01 -0.39043929422E+02  0.70092596818E+01  0.40659113715E+02  0.00000000000E+00 0.  1.
         11    1    3    3    0    0  0.70735817514E+00 -0.22933841279E+00  0.54866824710E+01  0.55368435497E+01  0.51100000000E-03 0. -1.
        -11    1    3    3    0    0 -0.59796785583E+01  0.30033348695E+01 -0.29285922665E+01  0.73043294643E+01  0.51100000000E-03 0.  1.
         12    1    3    3    0    0 -0.36498644450E+01  0.36269932965E+02 -0.95673498863E+01  0.37687713271E+02  0.00000000000E+00 0. -1.
</event>
<event>
 7    1  0.2835316E-011  0.5052885E+02  0.7816164E-02  0.1300439E+00
        -11   -1    0    0    0    0  0.00000000000E+00  0.00000000000E+00  0.45593999997E+02  0.45594000000E+02  0.51100000000E-03 0.  1.
         11   -1    0    0    0    0 -0.00000000000E+00 -0.00000000000E+00 -0.45593999997E+02  0.45594000000E+02  0.51100000000E-03 0. -1.
    9900012    2    1    2    0    0  0.93148491879E+01 -0.11691211801E+02 -0.37811582636E+02  0.50528848137E+02  0.29999964398E+02 0.  0.
        -12    1    1    2    0    0 -0.93148491879E+01  0.11691211801E+02  0.37811582636E+02  0.40659151863E+02  0.00000000000E+00 0.  1.
         11    1    3    3    0    0 -0.28498468736E+01  0.35111836925E+01 -0.12082615938E+01  0.46808048951E+01  0.51100000000E-03 0. -1.
        -11    1    3    3    0    0  0.31901602038E+01 -0.70011458443E+01 -0.45170139090E+00  0.77069578737E+01  0.51100000000E-03 0.  1.
         12    1    3    3    0    0  0.89745358577E+01 -0.82012496490E+01 -0.36151619651E+02  0.38141085368E+02  0.00000000000E+00 0. -1.
</event>
<event>
 7    1  0.2835316E-011  0.5052886E+02  0.7816164E-02  0.1300439E+00
        -11   -1    0    0    0    0  0.00000000000E+00  0.00000000000E+00  0.45593999997E+02  0.45594000000E+02  0.51100000000E-03 0.  1.
         11   -1    0    0    0    0 -0.00000000000E+00 -0.00000000000E+00 -0.45593999997E+02  0.45594000000E+02  0.51100000000E-03 0. -1.
    9900012    2    1    2    0    0  0.60933084778E+01 -0.39927246364E+02 -0.46746191606E+01  0.50528862347E+02  0.30000007590E+02 0.  0.
        -12    1    1    2    0    0 -0.60933084778E+01  0.39927246364E+02  0.46746191606E+01  0.40659137653E+02  0.00000000000E+00 0.  1.
         11    1    3    3    0    0  0.93851903123E+01 -0.17006567268E+02 -0.54188001521E+01  0.20166023971E+02  0.51100000000E-03 0. -1.
        -11    1    3    3    0    0  0.37594169335E+01 -0.10573682394E+02  0.85815806306E+01  0.14127260931E+02  0.51100000000E-03 0.  1.
         12    1    3    3    0    0 -0.70512987680E+01 -0.12346996702E+02 -0.78373996391E+01  0.16235577445E+02  0.00000000000E+00 0. -1.
</event>
<event>
 7    1  0.2835316E-011  0.5052887E+02  0.7816164E-02  0.1300439E+00
        -11   -1    0    0    0    0  0.00000000000E+00  0.00000000000E+00  0.45593999997E+02  0.45594000000E+02  0.51100000000E-03 0.  1.
         11   -1    0    0    0    0 -0.00000000000E+00 -0.00000000000E+00 -0.45593999997E+02  0.45594000000E+02  0.51100000000E-03 0. -1.
    9900012    2    1    2    0    0 -0.15513491526E+01  0.39935645122E+02 -0.74767779384E+01  0.50528872565E+02  0.30000038647E+02 0.  0.
        -12    1    1    2    0    0  0.15513491526E+01 -0.39935645122E+02  0.74767779384E+01  0.40659127435E+02  0.00000000000E+00 0.  1.
         11    1    3    3    0    0  0.12845208284E+01  0.88871841676E+01 -0.13138209002E+02  0.15913659926E+02  0.51100000000E-03 0. -1.
        -11    1    3    3    0    0  0.97000001963E+00  0.51056302760E+01  0.65724643739E+01  0.83788811162E+01  0.51100000000E-03 0.  1.
        -12    1    3    3    0    0 -0.38058700006E+01  0.25942830678E+02 -0.91103330975E+00  0.26236331522E+02  0.00000000000E+00 0.  1.
</event>
<event>
 7    1  0.2835316E-011  0.5052886E+02  0.7816164E-02  0.1300439E+00
        -11   -1    0    0    0    0  0.00000000000E+00  0.00000000000E+00  0.45593999997E+02  0.45594000000E+02  0.51100000000E-03 0. -1.
         11   -1    0    0    0    0 -0.00000000000E+00 -0.00000000000E+00 -0.45593999997E+02  0.45594000000E+02  0.51100000000E-03 0.  1.
    9900012    2    1    2    0    0 -0.53011329843E+01  0.40201780797E+02 -0.29800663396E+01  0.50528856065E+02  0.29999988494E+02 0.  0.
        -12    1    1    2    0    0  0.53011329843E+01 -0.40201780797E+02  0.29800663396E+01  0.40659143935E+02  0.00000000000E+00 0.  1.
         11    1    3    3    0    0  0.54468266782E+01  0.33939363458E+02  0.27043378168E-01  0.34373667892E+02  0.51100000000E-03 0. -1.
        -11    1    3    3    0    0  0.16014804642E+01 -0.49618432341E+00  0.27696061285E+00  0.16993075067E+01  0.51100000000E-03 0.  1.
         12    1    3    3    0    0 -0.12349440127E+02  0.67586016630E+01 -0.32840703306E+01  0.14455880666E+02  0.00000000000E+00 0. -1.
</event>
<event>
 7    1  0.2835316E-011  0.5052883E+02  0.7816164E-02  0.1300439E+00
        -11   -1    0    0    0    0  0.00000000000E+00  0.00000000000E+00  0.45593999997E+02  0.45594000000E+02  0.51100000000E-03 0. -1.
         11   -1    0    0    0    0 -0.00000000000E+00 -0.00000000000E+00 -0.45593999997E+02  0.45594000000E+02  0.51100000000E-03 0.  1.
    9900012    2    1    2    0    0 -0.35952601751E+02 -0.25735381018E+01  0.18813695449E+02  0.50528833660E+02  0.29999920392E+02 0.  0.
        -12    1    1    2    0    0  0.35952601751E+02  0.25735381018E+01 -0.18813695449E+02  0.40659166340E+02  0.00000000000E+00 0.  1.
         11    1    3    3    0    0 -0.31763308293E+02  0.44356808955E+01  0.83554026492E+01  0.33142054438E+02  0.51100000000E-03 0. -1.
        -11    1    3    3    0    0 -0.46764203570E+01  0.98257696023E+00  0.80616162915E+00  0.48460563009E+01  0.51100000000E-03 0.  1.
        -12    1    3    3    0    0  0.48712689818E+00 -0.79917959575E+01  0.96521311704E+01  0.12540722921E+02  0.00000000000E+00 0.  1.
</event>
<event>
 7    1  0.2835316E-011  0.5052885E+02  0.7816164E-02  0.1300439E+00
        -11   -1    0    0    0    0  0.00000000000E+00  0.00000000000E+00  0.45593999997E+02  0.45594000000E+02  0.51100000000E-03 0. -1.
         11   -1    0    0    0    0 -0.00000000000E+00 -0.00000000000E+00 -0.45593999997E+02  0.45594000000E+02  0.51100000000E-03 0.  1.
    9900012    2    1    2    0    0  0.39988394268E+02  0.67333467531E+01  0.29591437680E+01  0.50528853840E+02  0.29999981732E+02 0.  0.
        -12    1    1    2    0    0 -0.39988394268E+02 -0.67333467531E+01 -0.29591437680E+01  0.40659146160E+02  0.00000000000E+00 0.  1.
         11    1    3    3    0    0  0.26436473520E+02  0.15602802205E+02  0.21046428926E+01  0.30769531858E+02  0.51100000000E-03 0. -1.
        -11    1    3    3    0    0  0.11473009542E+02 -0.32038099591E+01  0.44713382866E+01  0.12723490580E+02  0.51100000000E-03 0.  1.
        -12    1    3    3    0    0  0.20789112060E+01 -0.56656454930E+01 -0.36168374111E+01  0.70358314017E+01  0.00000000000E+00 0.  1.
</event>
<event>
 7    1  0.2835316E-011  0.5052885E+02  0.7816164E-02  0.1300439E+00
        -11   -1    0    0    0    0  0.00000000000E+00  0.00000000000E+00  0.45593999997E+02  0.45594000000E+02  0.51100000000E-03 0. -1.
         11   -1    0    0    0    0 -0.00000000000E+00 -0.00000000000E+00 -0.45593999997E+02  0.45594000000E+02  0.51100000000E-03 0.  1.
    9900012    2    1    2    0    0  0.28712224716E+02  0.28675673807E+02  0.25456451443E+01  0.50528850653E+02  0.29999972043E+02 0.  0.
        -12    1    1    2    0    0 -0.28712224716E+02 -0.28675673807E+02 -0.25456451443E+01  0.40659149347E+02  0.00000000000E+00 0.  1.
         11    1    3    3    0    0  0.13744521119E+02  0.92397534398E+01  0.88103479204E+01  0.18759188020E+02  0.51100000000E-03 0. -1.
        -11    1    3    3    0    0  0.31619930139E+01 -0.38779389874E+01 -0.71767153528E+00  0.50548653102E+01  0.51100000000E-03 0.  1.
         12    1    3    3    0    0  0.11805710583E+02  0.23313859355E+02 -0.55470312407E+01  0.26714797322E+02  0.00000000000E+00 0. -1.
</event>
<event>
 7    1  0.2835316E-011  0.5052885E+02  0.7816164E-02  0.1300439E+00
        -11   -1    0    0    0    0  0.00000000000E+00  0.00000000000E+00  0.45593999997E+02  0.45594000000E+02  0.51100000000E-03 0.  1.
         11   -1    0    0    0    0 -0.00000000000E+00 -0.00000000000E+00 -0.45593999997E+02  0.45594000000E+02  0.51100000000E-03 0. -1.
    9900012    2    1    2    0    0 -0.39543862663E+02 -0.84675561763E+01  0.42130516685E+01  0.50528851137E+02  0.29999973516E+02 0.  0.
        -12    1    1    2    0    0  0.39543862663E+02  0.84675561763E+01 -0.42130516685E+01  0.40659148863E+02  0.00000000000E+00 0.  1.
         11    1    3    3    0    0 -0.42010658613E+01 -0.32712598673E+01  0.62755931026E+01  0.82300160717E+01  0.51100000000E-03 0. -1.
        -11    1    3    3    0    0 -0.62801943225E+01  0.81264792697E+01 -0.16291534993E+00  0.10271662364E+02  0.51100000000E-03 0.  1.
         12    1    3    3    0    0 -0.29062602479E+02 -0.13322775579E+02 -0.18996260841E+01  0.32027172701E+02  0.00000000000E+00 0. -1.
</event>
<event>
 7    1  0.2835316E-011  0.5052881E+02  0.7816164E-02  0.1300439E+00
        -11   -1    0    0    0    0  0.00000000000E+00  0.00000000000E+00  0.45593999997E+02  0.45594000000E+02  0.51100000000E-03 0.  1.
         11   -1    0    0    0    0 -0.00000000000E+00 -0.00000000000E+00 -0.45593999997E+02  0.45594000000E+02  0.51100000000E-03 0. -1.
    9900012    2    1    2    0    0 -0.12669628452E+02 -0.16501179169E+02 -0.34933673158E+02  0.50528807689E+02  0.29999841450E+02 0.  0.
        -12    1    1    2    0    0  0.12669628452E+02  0.16501179169E+02  0.34933673158E+02  0.40659192311E+02  0.00000000000E+00 0.  1.
         11    1    3    3    0    0 -0.15273823808E+02 -0.14835255561E+02 -0.20128355343E+02  0.29300600511E+02  0.51100000000E-03 0. -1.
        -11    1    3    3    0    0 -0.29261675975E+01  0.43035034900E+01 -0.11462055643E+01  0.53288260015E+01  0.51100000000E-03 0.  1.
        -12    1    3    3    0    0  0.55303629534E+01 -0.59694270979E+01 -0.13659112251E+02  0.15899381176E+02  0.00000000000E+00 0.  1.
</event>
<event>
 7    1  0.2835316E-011  0.5052886E+02  0.7816164E-02  0.1300439E+00
        -11   -1    0    0    0    0  0.00000000000E+00  0.00000000000E+00  0.45593999997E+02  0.45594000000E+02  0.51100000000E-03 0.  1.
         11   -1    0    0    0    0 -0.00000000000E+00 -0.00000000000E+00 -0.45593999997E+02  0.45594000000E+02  0.51100000000E-03 0. -1.
    9900012    2    1    2    0    0 -0.12241609172E+02 -0.10067968446E+02 -0.37442553127E+02  0.50528858735E+02  0.29999996612E+02 0.  0.
        -12    1    1    2    0    0  0.12241609172E+02  0.10067968446E+02  0.37442553127E+02  0.40659141265E+02  0.00000000000E+00 0.  1.
         11    1    3    3    0    0 -0.87781148962E+00 -0.67318047277E+01 -0.17315296968E+02  0.18598582130E+02  0.51100000000E-03 0. -1.
        -11    1    3    3    0    0  0.63224187222E+01 -0.13668419055E+01 -0.26581517959E+01  0.69933544544E+01  0.51100000000E-03 0.  1.
        -12    1    3    3    0    0 -0.17686216405E+02 -0.19693218126E+01 -0.17469104363E+02  0.24936922151E+02  0.00000000000E+00 0.  1.
</event>
<event>
 7    1  0.2835316E-011  0.5052885E+02  0.7816164E-02  0.1300439E+00
        -11   -1    0    0    0    0  0.00000000000E+00  0.00000000000E+00  0.45593999997E+02  0.45594000000E+02  0.51100000000E-03 0.  1.
         11   -1    0    0    0    0 -0.00000000000E+00 -0.00000000000E+00 -0.45593999997E+02  0.45594000000E+02  0.51100000000E-03 0. -1.
    9900012    2    1    2    0    0  0.24485047343E+01 -0.16662603912E+02 -0.37007150446E+02  0.50528846926E+02  0.29999960715E+02 0.  0.
        -12    1    1    2    0    0 -0.24485047343E+01  0.16662603912E+02  0.37007150446E+02  0.40659153074E+02  0.00000000000E+00 0.  1.
         11    1    3    3    0    0 -0.13082681291E+01  0.46694241915E+01 -0.60196750252E+01  0.77299143234E+01  0.51100000000E-03 0.  1.
        -11    1    3    3    0    0 -0.70419593571E+01 -0.43274691655E+01 -0.41670381983E+01  0.92563701618E+01  0.51100000000E-03 0. -1.
         12    1    3    3    0    0  0.10798732221E+02 -0.17004558938E+02 -0.26820437223E+02  0.33542562440E+02  0.00000000000E+00 0. -1.
</event>
<event>
 7    1  0.2835316E-011  0.5052887E+02  0.7816164E-02  0.1300439E+00
        -11   -1    0    0    0    0  0.00000000000E+00  0.00000000000E+00  0.45593999997E+02  0.45594000000E+02  0.51100000000E-03 0.  1.
         11   -1    0    0    0    0 -0.00000000000E+00 -0.00000000000E+00 -0.45593999997E+02  0.45594000000E+02  0.51100000000E-03 0. -1.
    9900012    2    1    2    0    0  0.34749542346E+02 -0.17188606414E+02 -0.12255027871E+02  0.50528873204E+02  0.30000040592E+02 0.  0.
        -12    1    1    2    0    0 -0.34749542346E+02  0.17188606414E+02  0.12255027871E+02  0.40659126796E+02  0.00000000000E+00 0.  1.
         11    1    3    3    0    0  0.15600687246E+01 -0.51520402170E+01 -0.58722938888E+00  0.54149950544E+01  0.51100000000E-03 0. -1.
        -11    1    3    3    0    0 -0.74140601320E+00  0.52609072889E+01 -0.28167292934E+01  0.60133844507E+01  0.51100000000E-03 0.  1.
         12    1    3    3    0    0  0.33930879634E+02 -0.17297473486E+02 -0.88510691887E+01  0.39100493699E+02  0.00000000000E+00 0. -1.
</event>
<event>
 7    1  0.2835316E-011  0.5052886E+02  0.7816164E-02  0.1300439E+00
        -11   -1    0    0    0    0  0.00000000000E+00  0.00000000000E+00  0.45593999997E+02  0.45594000000E+02  0.51100000000E-03 0.  1.
         11   -1    0    0    0    0 -0.00000000000E+00 -0.00000000000E+00 -0.45593999997E+02  0.45594000000E+02  0.51100000000E-03 0. -1.
    9900012    2    1    2    0    0  0.33795080428E+02  0.20806285369E+02 -0.88406337793E+01  0.50528858622E+02  0.29999996267E+02 0.  0.
        -12    1    1    2    0    0 -0.33795080428E+02 -0.20806285369E+02  0.88406337793E+01  0.40659141378E+02  0.00000000000E+00 0.  1.
         11    1    3    3    0    0  0.19603476765E+02 -0.26105600444E+01 -0.20093724261E+01  0.19878352619E+02  0.51100000000E-03 0. -1.
        -11    1    3    3    0    0 -0.21767746927E+01  0.29048526791E+01 -0.10506409156E+01  0.37789368537E+01  0.51100000000E-03 0.  1.
        -12    1    3    3    0    0  0.16368378356E+02  0.20511992734E+02 -0.57806204376E+01  0.26871569149E+02  0.00000000000E+00 0.  1.
</event>
<event>
 7    1  0.2835316E-011  0.5052886E+02  0.7816164E-02  0.1300439E+00
        -11   -1    0    0    0    0  0.00000000000E+00  0.00000000000E+00  0.45593999997E+02  0.45594000000E+02  0.51100000000E-03 0.  1.
         11   -1    0    0    0    0 -0.00000000000E+00 -0.00000000000E+00 -0.45593999997E+02  0.45594000000E+02  0.51100000000E-03 0. -1.
    9900012    2    1    2    0    0  0.14819199921E+02  0.56260137505E+01 -0.37442018681E+02  0.50528862282E+02  0.30000007393E+02 0.  0.
        -12    1    1    2    0    0 -0.14819199921E+02 -0.56260137505E+01  0.37442018681E+02  0.40659137718E+02  0.00000000000E+00 0.  1.
         11    1    3    3    0    0  0.14753527627E+02 -0.16284756675E+01 -0.14752402937E+02  0.20927300426E+02  0.51100000000E-03 0. -1.
        -11    1    3    3    0    0  0.88078412077E+01  0.39188211310E+01 -0.12085400181E+02  0.15459370090E+02  0.51100000000E-03 0.  1.
        -12    1    3    3    0    0 -0.87421689135E+01  0.33356682871E+01 -0.10604215563E+02  0.14142191766E+02  0.00000000000E+00 0.  1.
</event>
<event>
 7    1  0.2835316E-011  0.5052886E+02  0.7816164E-02  0.1300439E+00
        -11   -1    0    0    0    0  0.00000000000E+00  0.00000000000E+00  0.45593999997E+02  0.45594000000E+02  0.51100000000E-03 0. -1.
         11   -1    0    0    0    0 -0.00000000000E+00 -0.00000000000E+00 -0.45593999997E+02  0.45594000000E+02  0.51100000000E-03 0.  1.
    9900012    2    1    2    0    0  0.37831379922E+02  0.77226355971E+01  0.12740233310E+02  0.50528856475E+02  0.29999989741E+02 0.  0.
        -12    1    1    2    0    0 -0.37831379922E+02 -0.77226355971E+01 -0.12740233310E+02  0.40659143525E+02  0.00000000000E+00 0.  1.
         11    1    3    3    0    0  0.26222657398E+02  0.49369145411E+01  0.10013919510E+02  0.28500517020E+02  0.51100000000E-03 0. -1.
        -11    1    3    3    0    0  0.14637141733E+01 -0.25930158603E+01  0.86211903022E+01  0.91209162325E+01  0.51100000000E-03 0.  1.
         12    1    3    3    0    0  0.10145008351E+02  0.53787369162E+01 -0.58948765022E+01  0.12907423222E+02  0.00000000000E+00 0. -1.
</event>
<event>
 7    1  0.2835316E-011  0.5052885E+02  0.7816164E-02  0.1300439E+00
        -11   -1    0    0    0    0  0.00000000000E+00  0.00000000000E+00  0.45593999997E+02  0.45594000000E+02  0.51100000000E-03 0. -1.
         11   -1    0    0    0    0 -0.00000000000E+00 -0.00000000000E+00 -0.45593999997E+02  0.45594000000E+02  0.51100000000E-03 0.  1.
    9900012    2    1    2    0    0  0.39228408694E+02  0.28848144043E+01  0.10294479193E+02  0.50528849681E+02  0.29999969090E+02 0.  0.
        -12    1    1    2    0    0 -0.39228408694E+02 -0.28848144043E+01 -0.10294479193E+02  0.40659150319E+02  0.00000000000E+00 0.  1.
         11    1    3    3    0    0  0.22186330508E+02 -0.89059457463E+01 -0.58381967595E+00  0.23914221223E+02  0.51100000000E-03 0. -1.
        -11    1    3    3    0    0  0.47319704887E+01 -0.78135367219E+00  0.71804923729E+01  0.86349018087E+01  0.51100000000E-03 0.  1.
        -12    1    3    3    0    0  0.12310107698E+02  0.12572113823E+02  0.36978064963E+01  0.17979726649E+02  0.00000000000E+00 0.  1.
</event>
<event>
 7    1  0.2835316E-011  0.5052884E+02  0.7816164E-02  0.1300439E+00
        -11   -1    0    0    0    0  0.00000000000E+00  0.00000000000E+00  0.45593999997E+02  0.45594000000E+02  0.51100000000E-03 0.  1.
         11   -1    0    0    0    0 -0.00000000000E+00 -0.00000000000E+00 -0.45593999997E+02  0.45594000000E+02  0.51100000000E-03 0. -1.
    9900012    2    1    2    0    0  0.68263785936E+01  0.39722156611E+02 -0.53589597910E+01  0.50528835958E+02  0.29999927379E+02 0.  0.
        -12    1    1    2    0    0 -0.68263785936E+01 -0.39722156611E+02  0.53589597910E+01  0.40659164042E+02  0.00000000000E+00 0.  1.
         11    1    3    3    0    0  0.96348720271E+01  0.40504901007E+02 -0.40766979033E+01  0.41834163438E+02  0.51100000000E-03 0. -1.
        -11    1    3    3    0    0 -0.36512472505E+01  0.29990381733E+01 -0.71626013993E+00  0.47790025422E+01  0.51100000000E-03 0.  1.
        -12    1    3    3    0    0  0.84275381710E+00 -0.37817825691E+01 -0.56600174772E+00  0.39156699778E+01  0.00000000000E+00 0.  1.
</event>
<event>
 7    1  0.2835316E-011  0.5052886E+02  0.7816164E-02  0.1300439E+00
        -11   -1    0    0    0    0  0.00000000000E+00  0.00000000000E+00  0.45593999997E+02  0.45594000000E+02  0.51100000000E-03 0. -1.
         11   -1    0    0    0    0 -0.00000000000E+00 -0.00000000000E+00 -0.45593999997E+02  0.45594000000E+02  0.51100000000E-03 0.  1.
    9900012    2    1    2    0    0 -0.10737119416E+02  0.13995842528E+02  0.36633272133E+02  0.50528856273E+02  0.29999989128E+02 0.  0.
        -12    1    1    2    0    0  0.10737119416E+02 -0.13995842528E+02 -0.36633272133E+02  0.40659143727E+02  0.00000000000E+00 0.  1.
         11    1    3    3    0    0 -0.69728194057E+01  0.80682699450E+01 -0.79696786578E+00  0.10693565748E+02  0.51100000000E-03 0. -1.
        -11    1    3    3    0    0 -0.62160643565E+01  0.25649562565E+01  0.97503391341E+01  0.11844305390E+02  0.51100000000E-03 0.  1.
        -12    1    3    3    0    0  0.24517643461E+01  0.33626163268E+01  0.27679900864E+02  0.27990985135E+02  0.00000000000E+00 0.  1.
</event>
<event>
 7    1  0.2835316E-011  0.5052882E+02  0.7816164E-02  0.1300439E+00
        -11   -1    0    0    0    0  0.00000000000E+00  0.00000000000E+00  0.45593999997E+02  0.45594000000E+02  0.51100000000E-03 0.  1.
         11   -1    0    0    0    0 -0.00000000000E+00 -0.00000000000E+00 -0.45593999997E+02  0.45594000000E+02  0.51100000000E-03 0. -1.
    9900012    2    1    2    0    0  0.30702607873E+02  0.15472167393E+02 -0.21705554499E+02  0.50528816656E+02  0.29999868708E+02 0.  0.
        -12    1    1    2    0    0 -0.30702607873E+02 -0.15472167393E+02  0.21705554499E+02  0.40659183344E+02  0.00000000000E+00 0.  1.
         11    1    3    3    0    0  0.77402624206E+01  0.46188829280E+01 -0.42818778968E+01  0.99789889482E+01  0.51100000000E-03 0. -1.
        -11    1    3    3    0    0  0.39252229725E+01  0.75229742185E+01  0.58436768913E+01  0.10302964445E+02  0.51100000000E-03 0.  1.
         12    1    3    3    0    0  0.19037122480E+02  0.33303102469E+01 -0.23267353494E+02  0.30246863263E+02  0.00000000000E+00 0. -1.
</event>
<event>
 7    1  0.2835316E-011  0.5052878E+02  0.7816164E-02  0.1300439E+00
        -11   -1    0    0    0    0  0.00000000000E+00  0.00000000000E+00  0.45593999997E+02  0.45594000000E+02  0.51100000000E-03 0. -1.
         11   -1    0    0    0    0 -0.00000000000E+00 -0.00000000000E+00 -0.45593999997E+02  0.45594000000E+02  0.51100000000E-03 0.  1.
    9900012    2    1    2    0    0 -0.77725862210E+01 -0.39693111080E+02  0.41492195027E+01  0.50528779813E+02  0.29999756717E+02 0.  0.
        -12    1    1    2    0    0  0.77725862210E+01  0.39693111080E+02 -0.41492195027E+01  0.40659220187E+02  0.00000000000E+00 0.  1.
         11    1    3    3    0    0 -0.24476088232E+01 -0.19104298785E+02  0.81478919611E+00  0.19277678872E+02  0.51100000000E-03 0. -1.
        -11    1    3    3    0    0 -0.11691105571E+02 -0.15596628455E+02 -0.44833099847E+01  0.20000920912E+02  0.51100000000E-03 0.  1.
        -12    1    3    3    0    0  0.63661281733E+01 -0.49921838406E+01  0.78177402913E+01  0.11250180029E+02  0.00000000000E+00 0.  1.
</event>
<event>
 7    1  0.2835316E-011  0.5052886E+02  0.7816164E-02  0.1300439E+00
        -11   -1    0    0    0    0  0.00000000000E+00  0.00000000000E+00  0.45593999997E+02  0.45594000000E+02  0.51100000000E-03 0. -1.
         11   -1    0    0    0    0 -0.00000000000E+00 -0.00000000000E+00 -0.45593999997E+02  0.45594000000E+02  0.51100000000E-03 0.  1.
    9900012    2    1    2    0    0  0.33498319193E+02  0.23043077728E+02  0.21128373765E+00  0.50528862518E+02  0.30000008110E+02 0.  0.
        -12    1    1    2    0    0 -0.33498319193E+02 -0.23043077728E+02 -0.21128373765E+00  0.40659137482E+02  0.00000000000E+00 0.  1.
         11    1    3    3    0    0  0.10699322650E+02  0.59146652785E+01 -0.25687199409E+01  0.12492281334E+02  0.51100000000E-03 0. -1.
        -11    1    3    3    0    0 -0.40929688801E+01  0.74815047769E+01 -0.27014581622E+01  0.89455678659E+01  0.51100000000E-03 0.  1.
         12    1    3    3    0    0  0.26891965424E+02  0.96469076727E+01  0.54814618408E+01  0.29091013319E+02  0.00000000000E+00 0. -1.
</event>
<event>
 7    1  0.2835316E-011  0.5052885E+02  0.7816164E-02  0.1300439E+00
        -11   -1    0    0    0    0  0.00000000000E+00  0.00000000000E+00  0.45593999997E+02  0.45594000000E+02  0.51100000000E-03 0.  1.
         11   -1    0    0    0    0 -0.00000000000E+00 -0.00000000000E+00 -0.45593999997E+02  0.45594000000E+02  0.51100000000E-03 0. -1.
    9900012    2    1    2    0    0  0.96282867344E+01  0.94119825302E+01 -0.38365050836E+02  0.50528850399E+02  0.29999971273E+02 0.  0.
        -12    1    1    2    0    0 -0.96282867344E+01 -0.94119825302E+01  0.38365050836E+02  0.40659149601E+02  0.00000000000E+00 0.  1.
         11    1    3    3    0    0  0.74456414363E+01  0.10034700395E+02 -0.12569256844E+02  0.17723402785E+02  0.51100000000E-03 0. -1.
        -11    1    3    3    0    0  0.43757284365E+01 -0.89018597916E+01 -0.69705264666E+01  0.12123462648E+02  0.51100000000E-03 0.  1.
         12    1    3    3    0    0 -0.21930831384E+01  0.82791419268E+01 -0.18825267526E+02  0.20681984966E+02  0.00000000000E+00 0. -1.
</event>
<event>
 7    1  0.2835316E-011  0.5052886E+02  0.7816164E-02  0.1300439E+00
        -11   -1    0    0    0    0  0.00000000000E+00  0.00000000000E+00  0.45593999997E+02  0.45594000000E+02  0.51100000000E-03 0.  1.
         11   -1    0    0    0    0 -0.00000000000E+00 -0.00000000000E+00 -0.45593999997E+02  0.45594000000E+02  0.51100000000E-03 0. -1.
    9900012    2    1    2    0    0 -0.78552755947E+01  0.11874747399E+02 -0.38084784239E+02  0.50528858703E+02  0.29999996514E+02 0.  0.
        -12    1    1    2    0    0  0.78552755947E+01 -0.11874747399E+02  0.38084784239E+02  0.40659141297E+02  0.00000000000E+00 0.  1.
         11    1    3    3    0    0  0.58808843688E+01  0.88446769919E+01 -0.24412660451E+02  0.26623130969E+02  0.51100000000E-03 0. -1.
        -11    1    3    3    0    0 -0.27693998153E+00 -0.31496427724E+01 -0.69621691472E+01  0.76464857838E+01  0.51100000000E-03 0.  1.
        -12    1    3    3    0    0 -0.13459219982E+02  0.61797131796E+01 -0.67099546413E+01  0.16259241950E+02  0.00000000000E+00 0.  1.
</event>
<event>
 7    1  0.2835316E-011  0.5052886E+02  0.7816164E-02  0.1300439E+00
        -11   -1    0    0    0    0  0.00000000000E+00  0.00000000000E+00  0.45593999997E+02  0.45594000000E+02  0.51100000000E-03 0.  1.
         11   -1    0    0    0    0 -0.00000000000E+00 -0.00000000000E+00 -0.45593999997E+02  0.45594000000E+02  0.51100000000E-03 0. -1.
    9900012    2    1    2    0    0  0.49637351378E+01 -0.15385109415E+02 -0.37307176966E+02  0.50528859436E+02  0.29999998742E+02 0.  0.
        -12    1    1    2    0    0 -0.49637351378E+01  0.15385109415E+02  0.37307176966E+02  0.40659140564E+02  0.00000000000E+00 0.  1.
         11    1    3    3    0    0  0.34457837813E+01 -0.15521147948E+01 -0.16050109559E+02  0.16489041917E+02  0.51100000000E-03 0. -1.
        -11    1    3    3    0    0 -0.61567268339E+01 -0.13692472501E+02 -0.21658935003E+02  0.26353340475E+02  0.51100000000E-03 0.  1.
        -12    1    3    3    0    0  0.76746781905E+01 -0.14052211932E+00  0.40186759584E+00  0.76864770447E+01  0.00000000000E+00 0.  1.
</event>
<event>
 7    1  0.2835316E-011  0.5052886E+02  0.7816164E-02  0.1300439E+00
        -11   -1    0    0    0    0  0.00000000000E+00  0.00000000000E+00  0.45593999997E+02  0.45594000000E+02  0.51100000000E-03 0. -1.
         11   -1    0    0    0    0 -0.00000000000E+00 -0.00000000000E+00 -0.45593999997E+02  0.45594000000E+02  0.51100000000E-03 0.  1.
    9900012    2    1    2    0    0  0.32270486033E+02  0.24717368948E+02 -0.91266233063E+00  0.50528861433E+02  0.30000004810E+02 0.  0.
        -12    1    1    2    0    0 -0.32270486033E+02 -0.24717368948E+02  0.91266233063E+00  0.40659138567E+02  0.00000000000E+00 0.  1.
         11    1    3    3    0    0  0.44554298377E+01  0.23378769503E+01 -0.27699681222E+01  0.57436266707E+01  0.51100000000E-03 0. -1.
        -11    1    3    3    0    0 -0.46666337442E+01  0.68355338559E+01  0.28743606410E+01  0.87615034642E+01  0.51100000000E-03 0.  1.
        -12    1    3    3    0    0  0.32481689939E+02  0.15543958142E+02 -0.10170548494E+01  0.36023731298E+02  0.00000000000E+00 0.  1.
</event>
<event>
 7    1  0.2835316E-011  0.5052886E+02  0.7816164E-02  0.1300439E+00
        -11   -1    0    0    0    0  0.00000000000E+00  0.00000000000E+00  0.45593999997E+02  0.45594000000E+02  0.51100000000E-03 0.  1.
         11   -1    0    0    0    0 -0.00000000000E+00 -0.00000000000E+00 -0.45593999997E+02  0.45594000000E+02  0.51100000000E-03 0. -1.
    9900012    2    1    2    0    0 -0.12267918495E+02  0.16807790208E+02 -0.34930814591E+02  0.50528862726E+02  0.30000008742E+02 0.  0.
        -12    1    1    2    0    0  0.12267918495E+02 -0.16807790208E+02  0.34930814591E+02  0.40659137274E+02  0.00000000000E+00 0.  1.
         11    1    3    3    0    0 -0.18208337206E+00  0.55235548931E+01 -0.66668569440E+01  0.86596648194E+01  0.51100000000E-03 0. -1.
        -11    1    3    3    0    0 -0.18741680049E+02  0.89734974712E+01 -0.27935255786E+02  0.34815984030E+02  0.51100000000E-03 0.  1.
         12    1    3    3    0    0  0.66558449267E+01  0.23107378435E+01 -0.32870186147E+00  0.70532138762E+01  0.00000000000E+00 0. -1.
</event>
<event>
 7    1  0.2835316E-011  0.5052886E+02  0.7816164E-02  0.1300439E+00
        -11   -1    0    0    0    0  0.00000000000E+00  0.00000000000E+00  0.45593999997E+02  0.45594000000E+02  0.51100000000E-03 0. -1.
         11   -1    0    0    0    0 -0.00000000000E+00 -0.00000000000E+00 -0.45593999997E+02  0.45594000000E+02  0.51100000000E-03 0.  1.
    9900012    2    1    2    0    0  0.91201263968E+01 -0.16817821483E+02  0.35876867133E+02  0.50528863017E+02  0.30000009626E+02 0.  0.
        -12    1    1    2    0    0 -0.91201263968E+01  0.16817821483E+02 -0.35876867133E+02  0.40659136983E+02  0.00000000000E+00 0.  1.
         11    1    3    3    0    0 -0.98440481721E+00 -0.16420444566E+01  0.25804781037E+02  0.25875704579E+02  0.51100000000E-03 0. -1.
        -11    1    3    3    0    0  0.39921824744E+01 -0.76741493965E+01  0.11993575992E+02  0.14787696075E+02  0.51100000000E-03 0.  1.
        -12    1    3    3    0    0  0.61123487396E+01 -0.75016276304E+01 -0.19214898958E+01  0.98654623632E+01  0.00000000000E+00 0.  1.
</event>
<event>
 7    1  0.2835316E-011  0.5052885E+02  0.7816164E-02  0.1300439E+00
        -11   -1    0    0    0    0  0.00000000000E+00  0.00000000000E+00  0.45593999997E+02  0.45594000000E+02  0.51100000000E-03 0.  1.
         11   -1    0    0    0    0 -0.00000000000E+00 -0.00000000000E+00 -0.45593999997E+02  0.45594000000E+02  0.51100000000E-03 0. -1.
    9900012    2    1    2    0    0  0.69219169928E+01  0.17734706421E+02 -0.35926781886E+02  0.50528850927E+02  0.29999972877E+02 0.  0.
        -12    1    1    2    0    0 -0.69219169928E+01 -0.17734706421E+02  0.35926781886E+02  0.40659149073E+02  0.00000000000E+00 0.  1.
         11    1    3    3    0    0  0.70377566848E+01  0.15687202069E+02 -0.68612377984E+01  0.18512020751E+02  0.51100000000E-03 0. -1.
        -11    1    3    3    0    0 -0.41628768136E+01  0.31770252513E+01 -0.39686222856E+01  0.65706160989E+01  0.51100000000E-03 0.  1.
         12    1    3    3    0    0  0.40470371215E+01 -0.11295208992E+01 -0.25096921802E+02  0.25446214077E+02  0.00000000000E+00 0. -1.
</event>
<event>
 7    1  0.2835316E-011  0.5052886E+02  0.7816164E-02  0.1300439E+00
        -11   -1    0    0    0    0  0.00000000000E+00  0.00000000000E+00  0.45593999997E+02  0.45594000000E+02  0.51100000000E-03 0.  1.
         11   -1    0    0    0    0 -0.00000000000E+00 -0.00000000000E+00 -0.45593999997E+02  0.45594000000E+02  0.51100000000E-03 0. -1.
    9900012    2    1    2    0    0  0.22168184662E+02  0.29584840210E+02 -0.16925550571E+02  0.50528862729E+02  0.30000008752E+02 0.  0.
        -12    1    1    2    0    0 -0.22168184662E+02 -0.29584840210E+02  0.16925550571E+02  0.40659137271E+02  0.00000000000E+00 0.  1.
         11    1    3    3    0    0  0.28265113766E+01 -0.27666790980E+01  0.49261230987E+01  0.63174653808E+01  0.51100000000E-03 0.  1.
        -11    1    3    3    0    0  0.46065717742E+01  0.66175953521E+01 -0.84177348564E+01  0.11656385895E+02  0.51100000000E-03 0. -1.
        -12    1    3    3    0    0  0.14735101512E+02  0.25733923955E+02 -0.13433938814E+02  0.32555011454E+02  0.00000000000E+00 0.  1.
</event>
<event>
 7    1  0.2835316E-011  0.5052886E+02  0.7816164E-02  0.1300439E+00
        -11   -1    0    0    0    0  0.00000000000E+00  0.00000000000E+00  0.45593999997E+02  0.45594000000E+02  0.51100000000E-03 0.  1.
         11   -1    0    0    0    0 -0.00000000000E+00 -0.00000000000E+00 -0.45593999997E+02  0.45594000000E+02  0.51100000000E-03 0. -1.
    9900012    2    1    2    0    0  0.30560416692E+02 -0.39411509702E+01 -0.26527234217E+02  0.50528857184E+02  0.29999991895E+02 0.  0.
        -12    1    1    2    0    0 -0.30560416692E+02  0.39411509702E+01  0.26527234217E+02  0.40659142816E+02  0.00000000000E+00 0.  1.
         11    1    3    3    0    0 -0.19285159242E+00  0.19773295559E+01  0.90745195122E+00  0.21841458776E+01  0.51100000000E-03 0. -1.
        -11    1    3    3    0    0  0.22978468955E+01 -0.36521967701E+01 -0.17648436886E+02  0.18168268118E+02  0.51100000000E-03 0.  1.
         12    1    3    3    0    0  0.28455421389E+02 -0.22662837561E+01 -0.97862492820E+01  0.30176443188E+02  0.00000000000E+00 0. -1.
</event>
<event>
 7    1  0.2835316E-011  0.5052888E+02  0.7816164E-02  0.1300439E+00
        -11   -1    0    0    0    0  0.00000000000E+00  0.00000000000E+00  0.45593999997E+02  0.45594000000E+02  0.51100000000E-03 0.  1.
         11   -1    0    0    0    0 -0.00000000000E+00 -0.00000000000E+00 -0.45593999997E+02  0.45594000000E+02  0.51100000000E-03 0. -1.
    9900012    2    1    2    0    0  0.96539080680E+01  0.57898451013E+00 -0.39492161229E+02  0.50528880942E+02  0.30000064110E+02 0.  0.
        -12    1    1    2    0    0 -0.96539080680E+01 -0.57898451013E+00  0.39492161229E+02  0.40659119058E+02  0.00000000000E+00 0.  1.
         11    1    3    3    0    0  0.99311527128E+01 -0.34732140888E+01 -0.22043864560E+02  0.24425866930E+02  0.51100000000E-03 0. -1.
        -11    1    3    3    0    0  0.38340634660E+01 -0.62597609719E+01 -0.31169922361E+01  0.79749790562E+01  0.51100000000E-03 0.  1.
         12    1    3    3    0    0 -0.41113081108E+01  0.10311959571E+02 -0.14331304434E+02  0.18128034955E+02  0.00000000000E+00 0. -1.
</event>
<event>
 7    1  0.2835316E-011  0.5052886E+02  0.7816164E-02  0.1300439E+00
        -11   -1    0    0    0    0  0.00000000000E+00  0.00000000000E+00  0.45593999997E+02  0.45594000000E+02  0.51100000000E-03 0.  1.
         11   -1    0    0    0    0 -0.00000000000E+00 -0.00000000000E+00 -0.45593999997E+02  0.45594000000E+02  0.51100000000E-03 0. -1.
    9900012    2    1    2    0    0  0.15764988244E+02  0.23214309172E+02 -0.29423231124E+02  0.50528861612E+02  0.30000005356E+02 0.  0.
        -12    1    1    2    0    0 -0.15764988244E+02 -0.23214309172E+02  0.29423231124E+02  0.40659138388E+02  0.00000000000E+00 0.  1.
         11    1    3    3    0    0 -0.46144805795E+00 -0.17818478515E+01 -0.56400656509E+01  0.59328118868E+01  0.51100000000E-03 0. -1.
        -11    1    3    3    0    0 -0.10435026075E+01  0.93258227026E+01 -0.18412410823E+02  0.20665835075E+02  0.51100000000E-03 0.  1.
        -12    1    3    3    0    0  0.17269938910E+02  0.15670334321E+02 -0.53707546495E+01  0.23930214650E+02  0.00000000000E+00 0.  1.
</event>
<event>
 7    1  0.2835316E-011  0.5052897E+02  0.7816164E-02  0.1300438E+00
        -11   -1    0    0    0    0  0.00000000000E+00  0.00000000000E+00  0.45593999997E+02  0.45594000000E+02  0.51100000000E-03 0.  1.
         11   -1    0    0    0    0 -0.00000000000E+00 -0.00000000000E+00 -0.45593999997E+02  0.45594000000E+02  0.51100000000E-03 0. -1.
    9900012    2    1    2    0    0 -0.25088940952E+02 -0.27235066117E+02 -0.16791462796E+02  0.50528966473E+02  0.30000324090E+02 0.  0.
        -12    1    1    2    0    0  0.25088940952E+02  0.27235066117E+02  0.16791462796E+02  0.40659033527E+02  0.00000000000E+00 0.  1.
         11    1    3    3    0    0 -0.19278877238E+02 -0.40240000263E+01 -0.57676540496E+01  0.20521537887E+02  0.51100000000E-03 0. -1.
        -11    1    3    3    0    0 -0.10339818219E+02 -0.17653384023E+02 -0.99766418633E+01  0.22761528758E+02  0.51100000000E-03 0.  1.
        -12    1    3    3    0    0  0.45297545045E+01 -0.55576820676E+01 -0.10471668828E+01  0.72458998279E+01  0.00000000000E+00 0.  1.
</event>
<event>
 7    1  0.2835316E-011  0.5052879E+02  0.7816164E-02  0.1300439E+00
        -11   -1    0    0    0    0  0.00000000000E+00  0.00000000000E+00  0.45593999997E+02  0.45594000000E+02  0.51100000000E-03 0. -1.
         11   -1    0    0    0    0 -0.00000000000E+00 -0.00000000000E+00 -0.45593999997E+02  0.45594000000E+02  0.51100000000E-03 0.  1.
    9900012    2    1    2    0    0 -0.13349605670E+02 -0.13682293637E+00  0.38404956797E+02  0.50528789498E+02  0.29999786158E+02 0.  0.
        -12    1    1    2    0    0  0.13349605670E+02  0.13682293637E+00 -0.38404956797E+02  0.40659210502E+02  0.00000000000E+00 0.  1.
         11    1    3    3    0    0 -0.20086782124E+02 -0.85430788326E-01  0.20754361270E+02  0.28883033540E+02  0.51100000000E-03 0. -1.
        -11    1    3    3    0    0 -0.20603222704E+01 -0.14032323260E+01  0.85122007336E+00  0.26341155428E+01  0.51100000000E-03 0.  1.
        -12    1    3    3    0    0  0.87974987238E+01  0.13518401780E+01  0.16799375453E+02  0.19011640415E+02  0.00000000000E+00 0.  1.
</event>
<event>
 7    1  0.2835316E-011  0.5052886E+02  0.7816164E-02  0.1300439E+00
        -11   -1    0    0    0    0  0.00000000000E+00  0.00000000000E+00  0.45593999997E+02  0.45594000000E+02  0.51100000000E-03 0. -1.
         11   -1    0    0    0    0 -0.00000000000E+00 -0.00000000000E+00 -0.45593999997E+02  0.45594000000E+02  0.51100000000E-03 0.  1.
    9900012    2    1    2    0    0 -0.98958787596E+01 -0.20575630080E+02  0.33643440510E+02  0.50528855162E+02  0.29999985750E+02 0.  0.
        -12    1    1    2    0    0  0.98958787596E+01  0.20575630080E+02 -0.33643440510E+02  0.40659144838E+02  0.00000000000E+00 0.  1.
         11    1    3    3    0    0  0.57548554612E+01 -0.67317125688E+01  0.20359560807E+01  0.90873226481E+01  0.51100000000E-03 0. -1.
        -11    1    3    3    0    0 -0.11242638676E+02 -0.31592798471E+01  0.55380026078E+01  0.12924683621E+02  0.51100000000E-03 0.  1.
         12    1    3    3    0    0 -0.44080955448E+01 -0.10684637664E+02  0.26069481822E+02  0.28516848893E+02  0.00000000000E+00 0. -1.
</event>
<event>
 7    1  0.2835316E-011  0.5052886E+02  0.7816164E-02  0.1300439E+00
        -11   -1    0    0    0    0  0.00000000000E+00  0.00000000000E+00  0.45593999997E+02  0.45594000000E+02  0.51100000000E-03 0.  1.
         11   -1    0    0    0    0 -0.00000000000E+00 -0.00000000000E+00 -0.45593999997E+02  0.45594000000E+02  0.51100000000E-03 0. -1.
    9900012    2    1    2    0    0 -0.68615201513E+01 -0.17361045322E+02 -0.36120346759E+02  0.50528858304E+02  0.29999995301E+02 0.  0.
        -12    1    1    2    0    0  0.68615201513E+01  0.17361045322E+02  0.36120346759E+02  0.40659141696E+02  0.00000000000E+00 0.  1.
         11    1    3    3    0    0 -0.68869198014E+01 -0.10773587090E+02 -0.29317591207E+01  0.13118500484E+02  0.51100000000E-03 0. -1.
        -11    1    3    3    0    0  0.37026354942E+01 -0.10793300315E+02 -0.19022285707E+02  0.22182249550E+02  0.51100000000E-03 0.  1.
        -12    1    3    3    0    0 -0.36772358442E+01  0.42058420838E+01 -0.14166301931E+02  0.15228108270E+02  0.00000000000E+00 0.  1.
</event>
<event>
 7    1  0.2835316E-011  0.5052887E+02  0.7816164E-02  0.1300439E+00
        -11   -1    0    0    0    0  0.00000000000E+00  0.00000000000E+00  0.45593999997E+02  0.45594000000E+02  0.51100000000E-03 0.  1.
         11   -1    0    0    0    0 -0.00000000000E+00 -0.00000000000E+00 -0.45593999997E+02  0.45594000000E+02  0.51100000000E-03 0. -1.
    9900012    2    1    2    0    0 -0.43741628202E+01  0.15856020037E+02 -0.37183577261E+02  0.50528867082E+02  0.30000021981E+02 0.  0.
        -12    1    1    2    0    0  0.43741628202E+01 -0.15856020037E+02  0.37183577261E+02  0.40659132918E+02  0.00000000000E+00 0.  1.
         11    1    3    3    0    0  0.74999698719E+01  0.48824141297E+01 -0.11082998904E+02  0.14245012488E+02  0.51100000000E-03 0. -1.
        -11    1    3    3    0    0 -0.11591818115E+02  0.11584001570E+02 -0.81172386787E+01  0.18287944215E+02  0.51100000000E-03 0.  1.
         12    1    3    3    0    0 -0.28231457680E+00 -0.61039566228E+00 -0.17983339678E+02  0.17995910379E+02  0.00000000000E+00 0. -1.
</event>
<event>
 7    1  0.2835316E-011  0.5052884E+02  0.7816164E-02  0.1300439E+00
        -11   -1    0    0    0    0  0.00000000000E+00  0.00000000000E+00  0.45593999997E+02  0.45594000000E+02  0.51100000000E-03 0. -1.
         11   -1    0    0    0    0 -0.00000000000E+00 -0.00000000000E+00 -0.45593999997E+02  0.45594000000E+02  0.51100000000E-03 0.  1.
    9900012    2    1    2    0    0  0.21934885332E+01  0.40509126910E+02  0.27140961365E+01  0.50528842694E+02  0.29999947854E+02 0.  0.
        -12    1    1    2    0    0 -0.21934885332E+01 -0.40509126910E+02 -0.27140961365E+01  0.40659157306E+02  0.00000000000E+00 0.  1.
         11    1    3    3    0    0 -0.64652874851E+01  0.46048031772E+01  0.85126703870E+01  0.11639145671E+02  0.51100000000E-03 0. -1.
        -11    1    3    3    0    0  0.22460057489E+01  0.89877912037E+01  0.31875168521E+01  0.97972035034E+01  0.51100000000E-03 0.  1.
         12    1    3    3    0    0  0.64127702695E+01  0.26916532529E+02 -0.89860911025E+01  0.29092493520E+02  0.00000000000E+00 0. -1.
</event>
<event>
 7    1  0.2835316E-011  0.5052886E+02  0.7816164E-02  0.1300439E+00
        -11   -1    0    0    0    0  0.00000000000E+00  0.00000000000E+00  0.45593999997E+02  0.45594000000E+02  0.51100000000E-03 0.  1.
         11   -1    0    0    0    0 -0.00000000000E+00 -0.00000000000E+00 -0.45593999997E+02  0.45594000000E+02  0.51100000000E-03 0. -1.
    9900012    2    1    2    0    0 -0.14858932227E+02 -0.12645250502E+02 -0.35671774486E+02  0.50528859304E+02  0.29999998341E+02 0.  0.
        -12    1    1    2    0    0  0.14858932227E+02  0.12645250502E+02  0.35671774486E+02  0.40659140696E+02  0.00000000000E+00 0.  1.
         11    1    3    3    0    0 -0.12117194380E+02 -0.41625288713E+00 -0.17179075587E+02  0.21026656996E+02  0.51100000000E-03 0. -1.
        -11    1    3    3    0    0  0.19508553115E+00  0.51514426090E+01 -0.59256304913E+01  0.78542037342E+01  0.51100000000E-03 0.  1.
        -12    1    3    3    0    0 -0.29368233776E+01 -0.17380440224E+02 -0.12567068407E+02  0.21647998574E+02  0.00000000000E+00 0.  1.
</event>
<event>
 7    1  0.2835316E-011  0.5052884E+02  0.7816164E-02  0.1300439E+00
        -11   -1    0    0    0    0  0.00000000000E+00  0.00000000000E+00  0.45593999997E+02  0.45594000000E+02  0.51100000000E-03 0.  1.
         11   -1    0    0    0    0 -0.00000000000E+00 -0.00000000000E+00 -0.45593999997E+02  0.45594000000E+02  0.51100000000E-03 0. -1.
    9900012    2    1    2    0    0 -0.15570042101E+02 -0.93071504254E+01 -0.36388428469E+02  0.50528843755E+02  0.29999951079E+02 0.  0.
        -12    1    1    2    0    0  0.15570042101E+02  0.93071504254E+01  0.36388428469E+02  0.40659156245E+02  0.00000000000E+00 0.  1.
         11    1    3    3    0    0 -0.47117150905E+01 -0.82314661068E+01 -0.17492705740E+02  0.19898543860E+02  0.51100000000E-03 0. -1.
        -11    1    3    3    0    0 -0.93654664370E+01 -0.99463839390E+01 -0.60337495265E+01  0.14934813312E+02  0.51100000000E-03 0.  1.
         12    1    3    3    0    0 -0.14928605734E+01  0.88706996204E+01 -0.12861973202E+02  0.15695486584E+02  0.00000000000E+00 0. -1.
</event>
<event>
 7    1  0.2835316E-011  0.5052886E+02  0.7816164E-02  0.1300439E+00
        -11   -1    0    0    0    0  0.00000000000E+00  0.00000000000E+00  0.45593999997E+02  0.45594000000E+02  0.51100000000E-03 0.  1.
         11   -1    0    0    0    0 -0.00000000000E+00 -0.00000000000E+00 -0.45593999997E+02  0.45594000000E+02  0.51100000000E-03 0. -1.
    9900012    2    1    2    0    0  0.36385263195E+02  0.13690370177E+02 -0.11910169492E+02  0.50528858953E+02  0.29999997274E+02 0.  0.
        -12    1    1    2    0    0 -0.36385263195E+02 -0.13690370177E+02  0.11910169492E+02  0.40659141047E+02  0.00000000000E+00 0.  1.
         11    1    3    3    0    0  0.12201327980E+02  0.10680467341E+02 -0.98892150176E+01  0.18993192491E+02  0.51100000000E-03 0. -1.
        -11    1    3    3    0    0  0.16505049692E+02 -0.14571623054E+00 -0.10584973585E+02  0.19608150463E+02  0.51100000000E-03 0.  1.
         12    1    3    3    0    0  0.76788855234E+01  0.31556190668E+01  0.85640191102E+01  0.11927515999E+02  0.00000000000E+00 0. -1.
</event>
<event>
 7    1  0.2835316E-011  0.5052886E+02  0.7816164E-02  0.1300439E+00
        -11   -1    0    0    0    0  0.00000000000E+00  0.00000000000E+00  0.45593999997E+02  0.45594000000E+02  0.51100000000E-03 0.  1.
         11   -1    0    0    0    0 -0.00000000000E+00 -0.00000000000E+00 -0.45593999997E+02  0.45594000000E+02  0.51100000000E-03 0. -1.
    9900012    2    1    2    0    0  0.10605791196E+02 -0.98554955694E+01 -0.37994110951E+02  0.50528855066E+02  0.29999985460E+02 0.  0.
        -12    1    1    2    0    0 -0.10605791196E+02  0.98554955694E+01  0.37994110951E+02  0.40659144934E+02  0.00000000000E+00 0.  1.
         11    1    3    3    0    0  0.25091466027E+01 -0.13992553794E+02 -0.17661979535E+02  0.22672293658E+02  0.51100000000E-03 0. -1.
        -11    1    3    3    0    0 -0.34381950135E+01  0.15483450335E+01  0.59869100337E+00  0.38179822514E+01  0.51100000000E-03 0.  1.
         12    1    3    3    0    0  0.11534839607E+02  0.25887131915E+01 -0.20930822419E+02  0.24038579157E+02  0.00000000000E+00 0. -1.
</event>
<event>
 7    1  0.2835316E-011  0.5052884E+02  0.7816164E-02  0.1300439E+00
        -11   -1    0    0    0    0  0.00000000000E+00  0.00000000000E+00  0.45593999997E+02  0.45594000000E+02  0.51100000000E-03 0.  1.
         11   -1    0    0    0    0 -0.00000000000E+00 -0.00000000000E+00 -0.45593999997E+02  0.45594000000E+02  0.51100000000E-03 0. -1.
    9900012    2    1    2    0    0 -0.10394651328E+02 -0.96664126989E+01 -0.38100905010E+02  0.50528840229E+02  0.29999940361E+02 0.  0.
        -12    1    1    2    0    0  0.10394651328E+02  0.96664126989E+01  0.38100905010E+02  0.40659159771E+02  0.00000000000E+00 0.  1.
         11    1    3    3    0    0 -0.97044785726E+01 -0.11521443060E+02 -0.16490045337E+02  0.22334774457E+02  0.51100000000E-03 0. -1.
        -11    1    3    3    0    0  0.54706019693E+01 -0.59749601903E+01 -0.87296304864E+01  0.11909411567E+02  0.51100000000E-03 0.  1.
        -12    1    3    3    0    0 -0.61607747245E+01  0.78299905514E+01 -0.12881229186E+02  0.16284654205E+02  0.00000000000E+00 0.  1.
</event>
<event>
 7    1  0.2835316E-011  0.5052886E+02  0.7816164E-02  0.1300439E+00
        -11   -1    0    0    0    0  0.00000000000E+00  0.00000000000E+00  0.45593999997E+02  0.45594000000E+02  0.51100000000E-03 0.  1.
         11   -1    0    0    0    0 -0.00000000000E+00 -0.00000000000E+00 -0.45593999997E+02  0.45594000000E+02  0.51100000000E-03 0. -1.
    9900012    2    1    2    0    0  0.34876591326E+02 -0.19175343177E+02 -0.83123418080E+01  0.50528862838E+02  0.30000009082E+02 0.  0.
        -12    1    1    2    0    0 -0.34876591326E+02  0.19175343177E+02  0.83123418080E+01  0.40659137162E+02  0.00000000000E+00 0.  1.
         11    1    3    3    0    0  0.61560026846E+01 -0.41681012056E+01 -0.94529031883E+01  0.12026088960E+02  0.51100000000E-03 0. -1.
        -11    1    3    3    0    0  0.10909237705E+02 -0.15692309206E+02 -0.48161417629E+01  0.19709268309E+02  0.51100000000E-03 0.  1.
        -12    1    3    3    0    0  0.17811350936E+02  0.68506723464E+00  0.59567031432E+01  0.18793505570E+02  0.00000000000E+00 0.  1.
</event>
<event>
 7    1  0.2835316E-011  0.5052886E+02  0.7816164E-02  0.1300439E+00
        -11   -1    0    0    0    0  0.00000000000E+00  0.00000000000E+00  0.45593999997E+02  0.45594000000E+02  0.51100000000E-03 0.  1.
         11   -1    0    0    0    0 -0.00000000000E+00 -0.00000000000E+00 -0.45593999997E+02  0.45594000000E+02  0.51100000000E-03 0. -1.
    9900012    2    1    2    0    0 -0.19451254577E+02 -0.25929866767E+02 -0.24544993579E+02  0.50528855826E+02  0.29999987768E+02 0.  0.
        -12    1    1    2    0    0  0.19451254577E+02  0.25929866767E+02  0.24544993579E+02  0.40659144174E+02  0.00000000000E+00 0.  1.
         11    1    3    3    0    0 -0.13306379301E+02 -0.14245774385E+02 -0.12056895608E+02  0.22920963110E+02  0.51100000000E-03 0. -1.
        -11    1    3    3    0    0  0.48999998199E+01 -0.69713770074E+01 -0.13050919658E+02  0.15586423573E+02  0.51100000000E-03 0.  1.
         12    1    3    3    0    0 -0.11044875096E+02 -0.47127153742E+01  0.56282168688E+00  0.12021469142E+02  0.00000000000E+00 0. -1.
</event>
<event>
 7    1  0.2835316E-011  0.5052886E+02  0.7816164E-02  0.1300439E+00
        -11   -1    0    0    0    0  0.00000000000E+00  0.00000000000E+00  0.45593999997E+02  0.45594000000E+02  0.51100000000E-03 0.  1.
         11   -1    0    0    0    0 -0.00000000000E+00 -0.00000000000E+00 -0.45593999997E+02  0.45594000000E+02  0.51100000000E-03 0. -1.
    9900012    2    1    2    0    0 -0.21659471943E+02 -0.49495041035E+01 -0.34051946999E+02  0.50528863141E+02  0.30000010002E+02 0.  0.
        -12    1    1    2    0    0  0.21659471943E+02  0.49495041035E+01  0.34051946999E+02  0.40659136859E+02  0.00000000000E+00 0.  1.
         11    1    3    3    0    0  0.30129776359E+01 -0.60188039183E+00 -0.13307101919E+02  0.13657205278E+02  0.51100000000E-03 0. -1.
        -11    1    3    3    0    0 -0.11188773947E+02 -0.10726621441E+02 -0.11781540032E+02  0.19469302909E+02  0.51100000000E-03 0.  1.
         12    1    3    3    0    0 -0.13483675632E+02  0.63789977291E+01 -0.89633050477E+01  0.17402354954E+02  0.00000000000E+00 0. -1.
</event>
<event>
 7    1  0.2835316E-011  0.5052886E+02  0.7816164E-02  0.1300439E+00
        -11   -1    0    0    0    0  0.00000000000E+00  0.00000000000E+00  0.45593999997E+02  0.45594000000E+02  0.51100000000E-03 0. -1.
         11   -1    0    0    0    0 -0.00000000000E+00 -0.00000000000E+00 -0.45593999997E+02  0.45594000000E+02  0.51100000000E-03 0.  1.
    9900012    2    1    2    0    0  0.39624752362E+02 -0.33970817770E+01 -0.84560447201E+01  0.50528857650E+02  0.29999993313E+02 0.  0.
        -12    1    1    2    0    0 -0.39624752362E+02  0.33970817770E+01  0.84560447201E+01  0.40659142350E+02  0.00000000000E+00 0.  1.
         11    1    3    3    0    0  0.10853687886E+02 -0.11946966039E+02 -0.53291986038E+01  0.16998026247E+02  0.51100000000E-03 0.  1.
        -11    1    3    3    0    0  0.19981984563E+02  0.18080473596E+01 -0.77759136169E+01  0.21517750235E+02  0.51100000000E-03 0. -1.
         12    1    3    3    0    0  0.87890799124E+01  0.67418369025E+01  0.46490675006E+01  0.12013081168E+02  0.00000000000E+00 0. -1.
</event>
<event>
 7    1  0.2835316E-011  0.5052885E+02  0.7816164E-02  0.1300439E+00
        -11   -1    0    0    0    0  0.00000000000E+00  0.00000000000E+00  0.45593999997E+02  0.45594000000E+02  0.51100000000E-03 0.  1.
         11   -1    0    0    0    0 -0.00000000000E+00 -0.00000000000E+00 -0.45593999997E+02  0.45594000000E+02  0.51100000000E-03 0. -1.
    9900012    2    1    2    0    0 -0.29125636959E+02  0.27040882181E+02  0.85822035768E+01  0.50528852744E+02  0.29999978400E+02 0.  0.
        -12    1    1    2    0    0  0.29125636959E+02 -0.27040882181E+02 -0.85822035768E+01  0.40659147256E+02  0.00000000000E+00 0.  1.
         11    1    3    3    0    0 -0.11008545110E+02 -0.42402023040E+00 -0.39599716516E+01  0.11706802908E+02  0.51100000000E-03 0.  1.
        -11    1    3    3    0    0 -0.14635941184E+02  0.26592106093E+02  0.54020629795E+01  0.30830717888E+02  0.51100000000E-03 0. -1.
         12    1    3    3    0    0 -0.34811506654E+01  0.87279631817E+00  0.71401122489E+01  0.79913319475E+01  0.00000000000E+00 0. -1.
</event>
<event>
 7    1  0.2835316E-011  0.5052886E+02  0.7816164E-02  0.1300439E+00
        -11   -1    0    0    0    0  0.00000000000E+00  0.00000000000E+00  0.45593999997E+02  0.45594000000E+02  0.51100000000E-03 0.  1.
         11   -1    0    0    0    0 -0.00000000000E+00 -0.00000000000E+00 -0.45593999997E+02  0.45594000000E+02  0.51100000000E-03 0. -1.
    9900012    2    1    2    0    0 -0.26756118610E+02  0.27688995262E+02  0.13061219038E+02  0.50528858538E+02  0.29999996011E+02 0.  0.
        -12    1    1    2    0    0  0.26756118610E+02 -0.27688995262E+02 -0.13061219038E+02  0.40659141462E+02  0.00000000000E+00 0.  1.
         11    1    3    3    0    0 -0.77498052691E+00  0.49497388139E+01 -0.22693506565E+01  0.55000419823E+01  0.51100000000E-03 0. -1.
        -11    1    3    3    0    0 -0.72227710253E+00  0.13979846662E+02  0.11303983592E+02  0.17992716365E+02  0.51100000000E-03 0.  1.
        -12    1    3    3    0    0 -0.25258860980E+02  0.87594097865E+01  0.40265861030E+01  0.27036100190E+02  0.00000000000E+00 0.  1.
</event>
<event>
 7    1  0.2835316E-011  0.5052886E+02  0.7816164E-02  0.1300439E+00
        -11   -1    0    0    0    0  0.00000000000E+00  0.00000000000E+00  0.45593999997E+02  0.45594000000E+02  0.51100000000E-03 0.  1.
         11   -1    0    0    0    0 -0.00000000000E+00 -0.00000000000E+00 -0.45593999997E+02  0.45594000000E+02  0.51100000000E-03 0. -1.
    9900012    2    1    2    0    0 -0.37196212704E+01  0.22053203753E+02 -0.33955649955E+02  0.50528861519E+02  0.30000005072E+02 0.  0.
        -12    1    1    2    0    0  0.37196212704E+01 -0.22053203753E+02  0.33955649955E+02  0.40659138481E+02  0.00000000000E+00 0.  1.
         11    1    3    3    0    0 -0.51918586315E+01  0.19560361220E+02 -0.16596607310E+02  0.26172705278E+02  0.51100000000E-03 0. -1.
        -11    1    3    3    0    0 -0.43418211774E+01  0.51311758160E+01 -0.16621335491E+02  0.17929003601E+02  0.51100000000E-03 0.  1.
        -12    1    3    3    0    0  0.58140585385E+01 -0.26383332830E+01 -0.73770715443E+00  0.64271526392E+01  0.00000000000E+00 0.  1.
</event>
<event>
 7    1  0.2835316E-011  0.5052885E+02  0.7816164E-02  0.1300439E+00
        -11   -1    0    0    0    0  0.00000000000E+00  0.00000000000E+00  0.45593999997E+02  0.45594000000E+02  0.51100000000E-03 0. -1.
         11   -1    0    0    0    0 -0.00000000000E+00 -0.00000000000E+00 -0.45593999997E+02  0.45594000000E+02  0.51100000000E-03 0.  1.
    9900012    2    1    2    0    0  0.36687318368E+02  0.14981502227E+02 -0.90973287621E+01  0.50528854306E+02  0.29999983147E+02 0.  0.
        -12    1    1    2    0    0 -0.36687318368E+02 -0.14981502227E+02  0.90973287621E+01  0.40659145694E+02  0.00000000000E+00 0.  1.
         11    1    3    3    0    0  0.65454253012E+01 -0.80943179751E+00  0.15318193128E+01  0.67708376790E+01  0.51100000000E-03 0. -1.
        -11    1    3    3    0    0  0.86553437309E+01  0.16904207451E+02  0.15155970843E+01  0.19051620389E+02  0.51100000000E-03 0.  1.
         12    1    3    3    0    0  0.21486549336E+02 -0.11132734264E+01 -0.12144745159E+02  0.24706396238E+02  0.00000000000E+00 0. -1.
</event>
<event>
 7    1  0.2835316E-011  0.5052888E+02  0.7816164E-02  0.1300439E+00
        -11   -1    0    0    0    0  0.00000000000E+00  0.00000000000E+00  0.45593999997E+02  0.45594000000E+02  0.51100000000E-03 0.  1.
         11   -1    0    0    0    0 -0.00000000000E+00 -0.00000000000E+00 -0.45593999997E+02  0.45594000000E+02  0.51100000000E-03 0. -1.
    9900012    2    1    2    0    0  0.32524918513E+02 -0.17329149901E+02 -0.17175407592E+02  0.50528875729E+02  0.30000048265E+02 0.  0.
        -12    1    1    2    0    0 -0.32524918513E+02  0.17329149901E+02  0.17175407592E+02  0.40659124271E+02  0.00000000000E+00 0.  1.
         11    1    3    3    0    0  0.82678259806E+01 -0.31972863668E+01  0.45253844966E+01  0.99528233010E+01  0.51100000000E-03 0. -1.
        -11    1    3    3    0    0  0.24374862841E+02 -0.94215628884E+01 -0.10031865617E+02  0.27991750817E+02  0.51100000000E-03 0.  1.
         12    1    3    3    0    0 -0.11777030931E+00 -0.47103006460E+01 -0.11668926472E+02  0.12584301611E+02  0.00000000000E+00 0. -1.
</event>
<event>
 7    1  0.2835316E-011  0.5052884E+02  0.7816164E-02  0.1300439E+00
        -11   -1    0    0    0    0  0.00000000000E+00  0.00000000000E+00  0.45593999997E+02  0.45594000000E+02  0.51100000000E-03 0. -1.
         11   -1    0    0    0    0 -0.00000000000E+00 -0.00000000000E+00 -0.45593999997E+02  0.45594000000E+02  0.51100000000E-03 0.  1.
    9900012    2    1    2    0    0  0.15678591404E+02 -0.14296805666E+02  0.34683571049E+02  0.50528843818E+02  0.29999951270E+02 0.  0.
        -12    1    1    2    0    0 -0.15678591404E+02  0.14296805666E+02 -0.34683571049E+02  0.40659156182E+02  0.00000000000E+00 0.  1.
         11    1    3    3    0    0  0.31831407322E+01 -0.11916399504E+02  0.83896927680E+01  0.14917101161E+02  0.51100000000E-03 0. -1.
        -11    1    3    3    0    0  0.13847790131E+00 -0.45262148156E+01  0.21836851768E+02  0.22301432512E+02  0.51100000000E-03 0.  1.
         12    1    3    3    0    0  0.12356972770E+02  0.21458086532E+01  0.44570265138E+01  0.13310310145E+02  0.00000000000E+00 0. -1.
</event>
<event>
 7    1  0.2835316E-011  0.5052889E+02  0.7816164E-02  0.1300439E+00
        -11   -1    0    0    0    0  0.00000000000E+00  0.00000000000E+00  0.45593999997E+02  0.45594000000E+02  0.51100000000E-03 0.  1.
         11   -1    0    0    0    0 -0.00000000000E+00 -0.00000000000E+00 -0.45593999997E+02  0.45594000000E+02  0.51100000000E-03 0. -1.
    9900012    2    1    2    0    0  0.20832031593E+02 -0.30436900065E+02  0.17110953574E+02  0.50528890835E+02  0.30000094182E+02 0.  0.
        -12    1    1    2    0    0 -0.20832031593E+02  0.30436900065E+02 -0.17110953574E+02  0.40659109165E+02  0.00000000000E+00 0.  1.
         11    1    3    3    0    0 -0.40831902166E+01 -0.43032155190E+01  0.15038523655E+01  0.61197776387E+01  0.51100000000E-03 0. -1.
        -11    1    3    3    0    0  0.16661833601E+02 -0.30932679764E+01  0.82841390270E+01  0.18862978699E+02  0.51100000000E-03 0.  1.
         12    1    3    3    0    0  0.82533882083E+01 -0.23040416570E+02  0.73229621816E+01  0.25546134497E+02  0.00000000000E+00 0. -1.
</event>
<event>
 7    1  0.2835316E-011  0.5052880E+02  0.7816164E-02  0.1300439E+00
        -11   -1    0    0    0    0  0.00000000000E+00  0.00000000000E+00  0.45593999997E+02  0.45594000000E+02  0.51100000000E-03 0. -1.
         11   -1    0    0    0    0 -0.00000000000E+00 -0.00000000000E+00 -0.45593999997E+02  0.45594000000E+02  0.51100000000E-03 0.  1.
    9900012    2    1    2    0    0 -0.16644739421E+02 -0.15354178726E+02  0.33769395256E+02  0.50528804106E+02  0.29999830562E+02 0.  0.
        -12    1    1    2    0    0  0.16644739421E+02  0.15354178726E+02 -0.33769395256E+02  0.40659195894E+02  0.00000000000E+00 0.  1.
         11    1    3    3    0    0 -0.54458185541E+01 -0.72712956131E+01  0.17511330197E+02  0.19727528105E+02  0.51100000000E-03 0.  1.
        -11    1    3    3    0    0 -0.11465630947E+02 -0.55718988798E+01 -0.15260125811E+01  0.12838826458E+02  0.51100000000E-03 0. -1.
         12    1    3    3    0    0  0.26671008068E+00 -0.25109842328E+01  0.17784077640E+02  0.17962449544E+02  0.00000000000E+00 0. -1.
</event>
<event>
 7    1  0.2835316E-011  0.5052886E+02  0.7816164E-02  0.1300439E+00
        -11   -1    0    0    0    0  0.00000000000E+00  0.00000000000E+00  0.45593999997E+02  0.45594000000E+02  0.51100000000E-03 0. -1.
         11   -1    0    0    0    0 -0.00000000000E+00 -0.00000000000E+00 -0.45593999997E+02  0.45594000000E+02  0.51100000000E-03 0.  1.
    9900012    2    1    2    0    0 -0.17383730601E+02 -0.34499282029E+02 -0.12679564202E+02  0.50528857135E+02  0.29999991748E+02 0.  0.
        -12    1    1    2    0    0  0.17383730601E+02  0.34499282029E+02  0.12679564202E+02  0.40659142865E+02  0.00000000000E+00 0.  1.
         11    1    3    3    0    0 -0.29620570236E+01 -0.36205964785E+01 -0.71048693502E+01  0.85065662529E+01  0.51100000000E-03 0.  1.
        -11    1    3    3    0    0  0.10231599223E+01 -0.19909211488E+01  0.66820096882E+01  0.70469764426E+01  0.51100000000E-03 0. -1.
         12    1    3    3    0    0 -0.15444833499E+02 -0.28887764402E+02 -0.12256704540E+02  0.34975314440E+02  0.00000000000E+00 0. -1.
</event>
<event>
 7    1  0.2835316E-011  0.5052887E+02  0.7816164E-02  0.1300439E+00
        -11   -1    0    0    0    0  0.00000000000E+00  0.00000000000E+00  0.45593999997E+02  0.45594000000E+02  0.51100000000E-03 0.  1.
         11   -1    0    0    0    0 -0.00000000000E+00 -0.00000000000E+00 -0.45593999997E+02  0.45594000000E+02  0.51100000000E-03 0. -1.
    9900012    2    1    2    0    0  0.12602385550E+02 -0.31685236635E+02 -0.22144771465E+02  0.50528865167E+02  0.30000016161E+02 0.  0.
        -12    1    1    2    0    0 -0.12602385550E+02  0.31685236635E+02  0.22144771465E+02  0.40659134833E+02  0.00000000000E+00 0.  1.
         11    1    3    3    0    0  0.55257620991E+01 -0.19430858492E+02 -0.44018424480E+01  0.20675311986E+02  0.51100000000E-03 0. -1.
        -11    1    3    3    0    0 -0.49599264402E+01 -0.85535625961E+01 -0.27279093002E+01  0.10256987510E+02  0.51100000000E-03 0.  1.
         12    1    3    3    0    0  0.12036549891E+02 -0.37008155465E+01 -0.15015019716E+02  0.19596565671E+02  0.00000000000E+00 0. -1.
</event>
<event>
 7    1  0.2835316E-011  0.5052887E+02  0.7816164E-02  0.1300439E+00
        -11   -1    0    0    0    0  0.00000000000E+00  0.00000000000E+00  0.45593999997E+02  0.45594000000E+02  0.51100000000E-03 0. -1.
         11   -1    0    0    0    0 -0.00000000000E+00 -0.00000000000E+00 -0.45593999997E+02  0.45594000000E+02  0.51100000000E-03 0.  1.
    9900012    2    1    2    0    0 -0.21080559953E+02 -0.33535954196E+02 -0.91714241004E+01  0.50528865088E+02  0.30000015923E+02 0.  0.
        -12    1    1    2    0    0  0.21080559953E+02  0.33535954196E+02  0.91714241004E+01  0.40659134912E+02  0.00000000000E+00 0.  1.
         11    1    3    3    0    0  0.44831056147E+01 -0.69798798234E+01 -0.30347542635E+01  0.88332718742E+01  0.51100000000E-03 0. -1.
        -11    1    3    3    0    0 -0.66095910939E+01  0.20531637922E+01 -0.87309099181E+00  0.69759919816E+01  0.51100000000E-03 0.  1.
         12    1    3    3    0    0 -0.18954074473E+02 -0.28609238165E+02 -0.52635788450E+01  0.34719601233E+02  0.00000000000E+00 0. -1.
</event>
<event>
 7    1  0.2835316E-011  0.5052885E+02  0.7816164E-02  0.1300439E+00
        -11   -1    0    0    0    0  0.00000000000E+00  0.00000000000E+00  0.45593999997E+02  0.45594000000E+02  0.51100000000E-03 0.  1.
         11   -1    0    0    0    0 -0.00000000000E+00 -0.00000000000E+00 -0.45593999997E+02  0.45594000000E+02  0.51100000000E-03 0. -1.
    9900012    2    1    2    0    0  0.73422008148E+01  0.37309388789E+02 -0.14396796930E+02  0.50528853840E+02  0.29999981733E+02 0.  0.
        -12    1    1    2    0    0 -0.73422008148E+01 -0.37309388789E+02  0.14396796930E+02  0.40659146160E+02  0.00000000000E+00 0.  1.
         11    1    3    3    0    0  0.37163289429E+01 -0.11817846108E+01  0.24261510022E+01  0.45928122784E+01  0.51100000000E-03 0. -1.
        -11    1    3    3    0    0  0.40692064582E+01 -0.17096960416E+00 -0.18532335602E+01  0.44746113457E+01  0.51100000000E-03 0.  1.
        -12    1    3    3    0    0 -0.44333458632E+00  0.38662143004E+02 -0.14969714372E+02  0.41461430216E+02  0.00000000000E+00 0.  1.
</event>
<event>
 7    1  0.2835316E-011  0.5052886E+02  0.7816164E-02  0.1300439E+00
        -11   -1    0    0    0    0  0.00000000000E+00  0.00000000000E+00  0.45593999997E+02  0.45594000000E+02  0.51100000000E-03 0. -1.
         11   -1    0    0    0    0 -0.00000000000E+00 -0.00000000000E+00 -0.45593999997E+02  0.45594000000E+02  0.51100000000E-03 0.  1.
    9900012    2    1    2    0    0 -0.15640565530E+02  0.17791469444E+02  0.33045454815E+02  0.50528858850E+02  0.29999996962E+02 0.  0.
        -12    1    1    2    0    0  0.15640565530E+02 -0.17791469444E+02 -0.33045454815E+02  0.40659141150E+02  0.00000000000E+00 0.  1.
         11    1    3    3    0    0 -0.83251192314E+01 -0.56949974765E+01  0.12078047976E+02  0.15735941334E+02  0.51100000000E-03 0. -1.
        -11    1    3    3    0    0 -0.79776866737E+01  0.79145762193E+01  0.13334548620E+02  0.17438296607E+02  0.51100000000E-03 0.  1.
        -12    1    3    3    0    0  0.66224037500E+00  0.15571890701E+02  0.76328582183E+01  0.17354620910E+02  0.00000000000E+00 0.  1.
</event>
<event>
 7    1  0.2835316E-011  0.5052886E+02  0.7816164E-02  0.1300439E+00
        -11   -1    0    0    0    0  0.00000000000E+00  0.00000000000E+00  0.45593999997E+02  0.45594000000E+02  0.51100000000E-03 0.  1.
         11   -1    0    0    0    0 -0.00000000000E+00 -0.00000000000E+00 -0.45593999997E+02  0.45594000000E+02  0.51100000000E-03 0. -1.
    9900012    2    1    2    0    0 -0.28816727447E+02 -0.21911319270E+02 -0.18510970398E+02  0.50528859355E+02  0.29999998496E+02 0.  0.
        -12    1    1    2    0    0  0.28816727447E+02  0.21911319270E+02  0.18510970398E+02  0.40659140645E+02  0.00000000000E+00 0.  1.
         11    1    3    3    0    0 -0.21144154802E+02 -0.15168335222E+01 -0.10572824967E+02  0.23688830580E+02  0.51100000000E-03 0. -1.
        -11    1    3    3    0    0  0.13281046353E+01  0.14717341293E+01 -0.40969319431E+00  0.20242806239E+01  0.51100000000E-03 0.  1.
         12    1    3    3    0    0 -0.90006772797E+01 -0.21866219877E+02 -0.75284522374E+01  0.24815748151E+02  0.00000000000E+00 0. -1.
</event>
<event>
 7    1  0.2835316E-011  0.5052886E+02  0.7816164E-02  0.1300439E+00
        -11   -1    0    0    0    0  0.00000000000E+00  0.00000000000E+00  0.45593999997E+02  0.45594000000E+02  0.51100000000E-03 0.  1.
         11   -1    0    0    0    0 -0.00000000000E+00 -0.00000000000E+00 -0.45593999997E+02  0.45594000000E+02  0.51100000000E-03 0. -1.
    9900012    2    1    2    0    0  0.38371451694E+02  0.12468399922E+02  0.50335007892E+01  0.50528862873E+02  0.30000009189E+02 0.  0.
        -12    1    1    2    0    0 -0.38371451694E+02 -0.12468399922E+02 -0.50335007892E+01  0.40659137127E+02  0.00000000000E+00 0.  1.
         11    1    3    3    0    0 -0.25119701476E+00  0.35203696367E+00 -0.17535451462E+01  0.18060871532E+01  0.51100000000E-03 0. -1.
        -11    1    3    3    0    0  0.31445660099E+02  0.19150419128E+02  0.40883494604E+00  0.36820310130E+02  0.51100000000E-03 0.  1.
         12    1    3    3    0    0  0.71769886096E+01 -0.70340561689E+01  0.63782109894E+01  0.11902465590E+02  0.00000000000E+00 0. -1.
</event>
<event>
 7    1  0.2835316E-011  0.5052886E+02  0.7816164E-02  0.1300439E+00
        -11   -1    0    0    0    0  0.00000000000E+00  0.00000000000E+00  0.45593999997E+02  0.45594000000E+02  0.51100000000E-03 0. -1.
         11   -1    0    0    0    0 -0.00000000000E+00 -0.00000000000E+00 -0.45593999997E+02  0.45594000000E+02  0.51100000000E-03 0.  1.
    9900012    2    1    2    0    0 -0.40534863473E+02  0.17060920635E+01 -0.26795442137E+01  0.50528857558E+02  0.29999993033E+02 0.  0.
        -12    1    1    2    0    0  0.40534863473E+02 -0.17060920635E+01  0.26795442137E+01  0.40659142442E+02  0.00000000000E+00 0.  1.
         11    1    3    3    0    0 -0.75026681278E+01 -0.51830327061E+01 -0.97361356569E+00  0.91707023016E+01  0.51100000000E-03 0. -1.
        -11    1    3    3    0    0 -0.18600820414E+01 -0.49779588004E+01 -0.56674169828E+01  0.77691437455E+01  0.51100000000E-03 0.  1.
        -12    1    3    3    0    0 -0.31172113304E+02  0.11867083570E+02  0.39614863348E+01  0.33589011511E+02  0.00000000000E+00 0.  1.
</event>
<event>
 7    1  0.2835316E-011  0.5052886E+02  0.7816164E-02  0.1300439E+00
        -11   -1    0    0    0    0  0.00000000000E+00  0.00000000000E+00  0.45593999997E+02  0.45594000000E+02  0.51100000000E-03 0.  1.
         11   -1    0    0    0    0 -0.00000000000E+00 -0.00000000000E+00 -0.45593999997E+02  0.45594000000E+02  0.51100000000E-03 0. -1.
    9900012    2    1    2    0    0  0.12043147643E+02  0.75024219602E+01 -0.38103041707E+02  0.50528861694E+02  0.30000005606E+02 0.  0.
        -12    1    1    2    0    0 -0.12043147643E+02 -0.75024219602E+01  0.38103041707E+02  0.40659138306E+02  0.00000000000E+00 0.  1.
         11    1    3    3    0    0  0.42658590497E+01  0.63261386740E+01 -0.13008888108E+02  0.15081404245E+02  0.51100000000E-03 0. -1.
        -11    1    3    3    0    0  0.52545922297E+01  0.86317749139E+01 -0.10640651317E+01  0.10161225936E+02  0.51100000000E-03 0.  1.
         12    1    3    3    0    0  0.25226963641E+01 -0.74554916276E+01 -0.24030088468E+02  0.25286231513E+02  0.00000000000E+00 0. -1.
</event>
<event>
 7    1  0.2835316E-011  0.5052886E+02  0.7816164E-02  0.1300439E+00
        -11   -1    0    0    0    0  0.00000000000E+00  0.00000000000E+00  0.45593999997E+02  0.45594000000E+02  0.51100000000E-03 0.  1.
         11   -1    0    0    0    0 -0.00000000000E+00 -0.00000000000E+00 -0.45593999997E+02  0.45594000000E+02  0.51100000000E-03 0. -1.
    9900012    2    1    2    0    0 -0.35758705662E+02 -0.10196019491E+02 -0.16447546755E+02  0.50528860335E+02  0.30000001473E+02 0.  0.
        -12    1    1    2    0    0  0.35758705662E+02  0.10196019491E+02  0.16447546755E+02  0.40659139665E+02  0.00000000000E+00 0.  1.
         11    1    3    3    0    0 -0.16121139451E+02 -0.33619990991E+00 -0.74281325267E+01  0.17753346746E+02  0.51100000000E-03 0. -1.
        -11    1    3    3    0    0 -0.22748402800E+02 -0.13122364463E+02 -0.49952769470E+01  0.26732734074E+02  0.51100000000E-03 0.  1.
        -12    1    3    3    0    0  0.31108365900E+01  0.32625448817E+01 -0.40241372817E+01  0.60427795141E+01  0.00000000000E+00 0.  1.
</event>
<event>
 7    1  0.2835316E-011  0.5052881E+02  0.7816164E-02  0.1300439E+00
        -11   -1    0    0    0    0  0.00000000000E+00  0.00000000000E+00  0.45593999997E+02  0.45594000000E+02  0.51100000000E-03 0. -1.
         11   -1    0    0    0    0 -0.00000000000E+00 -0.00000000000E+00 -0.45593999997E+02  0.45594000000E+02  0.51100000000E-03 0.  1.
    9900012    2    1    2    0    0  0.34261281602E+02 -0.14805827648E+02  0.16128296980E+02  0.50528807770E+02  0.29999841696E+02 0.  0.
        -12    1    1    2    0    0 -0.34261281602E+02  0.14805827648E+02 -0.16128296980E+02  0.40659192230E+02  0.00000000000E+00 0.  1.
         11    1    3    3    0    0  0.47298537314E+01 -0.85264686638E+01  0.92709472649E+00  0.97944723742E+01  0.51100000000E-03 0. -1.
        -11    1    3    3    0    0  0.16851426098E+02  0.22207552833E+01 -0.26975843227E+01  0.17209859877E+02  0.51100000000E-03 0.  1.
         12    1    3    3    0    0  0.12680001773E+02 -0.85001142671E+01  0.17898786576E+02  0.23524475518E+02  0.00000000000E+00 0. -1.
</event>
<event>
 7    1  0.2835316E-011  0.5052886E+02  0.7816164E-02  0.1300439E+00
        -11   -1    0    0    0    0  0.00000000000E+00  0.00000000000E+00  0.45593999997E+02  0.45594000000E+02  0.51100000000E-03 0.  1.
         11   -1    0    0    0    0 -0.00000000000E+00 -0.00000000000E+00 -0.45593999997E+02  0.45594000000E+02  0.51100000000E-03 0. -1.
    9900012    2    1    2    0    0 -0.88934330886E+00 -0.15113692335E+02 -0.37735279379E+02  0.50528856658E+02  0.29999990297E+02 0.  0.
        -12    1    1    2    0    0  0.88934330886E+00  0.15113692335E+02  0.37735279379E+02  0.40659143342E+02  0.00000000000E+00 0.  1.
         11    1    3    3    0    0 -0.21756850802E+00 -0.96372644367E+01 -0.32623913023E+02  0.34018287774E+02  0.51100000000E-03 0. -1.
        -11    1    3    3    0    0 -0.65623575847E+01 -0.67568585711E+01 -0.45377974684E+01  0.10455203534E+02  0.51100000000E-03 0.  1.
        -12    1    3    3    0    0  0.58905827839E+01  0.12804306732E+01 -0.57356888740E+00  0.60553653491E+01  0.00000000000E+00 0.  1.
</event>
<event>
 7    1  0.2835316E-011  0.5052886E+02  0.7816164E-02  0.1300439E+00
        -11   -1    0    0    0    0  0.00000000000E+00  0.00000000000E+00  0.45593999997E+02  0.45594000000E+02  0.51100000000E-03 0. -1.
         11   -1    0    0    0    0 -0.00000000000E+00 -0.00000000000E+00 -0.45593999997E+02  0.45594000000E+02  0.51100000000E-03 0.  1.
    9900012    2    1    2    0    0 -0.80338750151E+01 -0.39756204501E+02  0.28402223526E+01  0.50528858260E+02  0.29999995166E+02 0.  0.
        -12    1    1    2    0    0  0.80338750151E+01  0.39756204501E+02 -0.28402223526E+01  0.40659141740E+02  0.00000000000E+00 0.  1.
         11    1    3    3    0    0  0.71288118527E+01 -0.63803535345E+01  0.24429722599E+01  0.98740560753E+01  0.51100000000E-03 0. -1.
        -11    1    3    3    0    0  0.18306700789E+01  0.11297881853E+01 -0.37625802753E+00  0.21838829286E+01  0.51100000000E-03 0.  1.
         12    1    3    3    0    0 -0.16993356947E+02 -0.34505639151E+02  0.77350812028E+00  0.38470919256E+02  0.00000000000E+00 0. -1.
</event>
<event>
 7    1  0.2835316E-011  0.5052881E+02  0.7816164E-02  0.1300439E+00
        -11   -1    0    0    0    0  0.00000000000E+00  0.00000000000E+00  0.45593999997E+02  0.45594000000E+02  0.51100000000E-03 0.  1.
         11   -1    0    0    0    0 -0.00000000000E+00 -0.00000000000E+00 -0.45593999997E+02  0.45594000000E+02  0.51100000000E-03 0. -1.
    9900012    2    1    2    0    0  0.54468820851E+01 -0.28384731247E+02 -0.28597345775E+02  0.50528810660E+02  0.29999850481E+02 0.  0.
        -12    1    1    2    0    0 -0.54468820851E+01  0.28384731247E+02  0.28597345775E+02  0.40659189340E+02  0.00000000000E+00 0.  1.
         11    1    3    3    0    0  0.86866066172E+01 -0.34419039352E+01 -0.15322683443E+02  0.17946823267E+02  0.51100000000E-03 0. -1.
        -11    1    3    3    0    0 -0.25355067357E+00  0.25505641903E+00  0.26173458432E+01  0.26419389178E+01  0.51100000000E-03 0.  1.
        -12    1    3    3    0    0 -0.29861738586E+01 -0.25197883731E+02 -0.15892008176E+02  0.29940048475E+02  0.00000000000E+00 0.  1.
</event>
<event>
 7    1  0.2835316E-011  0.5052885E+02  0.7816164E-02  0.1300439E+00
        -11   -1    0    0    0    0  0.00000000000E+00  0.00000000000E+00  0.45593999997E+02  0.45594000000E+02  0.51100000000E-03 0.  1.
         11   -1    0    0    0    0 -0.00000000000E+00 -0.00000000000E+00 -0.45593999997E+02  0.45594000000E+02  0.51100000000E-03 0. -1.
    9900012    2    1    2    0    0  0.33167646664E+01  0.26108046799E+02 -0.30992508071E+02  0.50528848607E+02  0.29999965825E+02 0.  0.
        -12    1    1    2    0    0 -0.33167646664E+01 -0.26108046799E+02  0.30992508071E+02  0.40659151393E+02  0.00000000000E+00 0.  1.
         11    1    3    3    0    0  0.47013223246E+01  0.89993703327E+01 -0.21247863266E+02  0.23549156920E+02  0.51100000000E-03 0. -1.
        -11    1    3    3    0    0  0.78905022471E+01  0.47781715256E+01 -0.10898530682E+01  0.92886343889E+01  0.51100000000E-03 0.  1.
        -12    1    3    3    0    0 -0.92750599054E+01  0.12330504941E+02 -0.86547917363E+01  0.17691057298E+02  0.00000000000E+00 0.  1.
</event>
<event>
 7    1  0.2835316E-011  0.5052886E+02  0.7816164E-02  0.1300439E+00
        -11   -1    0    0    0    0  0.00000000000E+00  0.00000000000E+00  0.45593999997E+02  0.45594000000E+02  0.51100000000E-03 0.  1.
         11   -1    0    0    0    0 -0.00000000000E+00 -0.00000000000E+00 -0.45593999997E+02  0.45594000000E+02  0.51100000000E-03 0. -1.
    9900012    2    1    2    0    0 -0.24610117361E+01 -0.36649092540E+02 -0.17434255542E+02  0.50528857989E+02  0.29999994344E+02 0.  0.
        -12    1    1    2    0    0  0.24610117361E+01  0.36649092540E+02  0.17434255542E+02  0.40659142011E+02  0.00000000000E+00 0.  1.
         11    1    3    3    0    0  0.12668118288E+01 -0.39740900247E+01 -0.74306492914E+01  0.85213116882E+01  0.51100000000E-03 0. -1.
        -11    1    3    3    0    0 -0.80401925510E+01 -0.28531281778E+02 -0.15875685469E+02  0.33626122665E+02  0.51100000000E-03 0.  1.
        -12    1    3    3    0    0  0.43123689862E+01 -0.41437207373E+01  0.58720792178E+01  0.83814236358E+01  0.00000000000E+00 0.  1.
</event>
<event>
 7    1  0.2835316E-011  0.5052884E+02  0.7816164E-02  0.1300439E+00
        -11   -1    0    0    0    0  0.00000000000E+00  0.00000000000E+00  0.45593999997E+02  0.45594000000E+02  0.51100000000E-03 0.  1.
         11   -1    0    0    0    0 -0.00000000000E+00 -0.00000000000E+00 -0.45593999997E+02  0.45594000000E+02  0.51100000000E-03 0. -1.
    9900012    2    1    2    0    0  0.40645231152E+02  0.93733390333E+00 -0.50391679526E+00  0.50528839380E+02  0.29999937778E+02 0.  0.
        -12    1    1    2    0    0 -0.40645231152E+02 -0.93733390333E+00  0.50391679526E+00  0.40659160620E+02  0.00000000000E+00 0.  1.
         11    1    3    3    0    0  0.57083801762E+01 -0.17205363242E+00 -0.53726018163E+01  0.78409219627E+01  0.51100000000E-03 0. -1.
        -11    1    3    3    0    0  0.76840353704E+01  0.99242660920E-01 -0.92115106975E+01  0.11996090124E+02  0.51100000000E-03 0.  1.
        -12    1    3    3    0    0  0.27252815605E+02  0.10101448748E+01  0.14080195719E+02  0.30691827292E+02  0.00000000000E+00 0.  1.
</event>
<event>
 7    1  0.2835316E-011  0.5052886E+02  0.7816164E-02  0.1300439E+00
        -11   -1    0    0    0    0  0.00000000000E+00  0.00000000000E+00  0.45593999997E+02  0.45594000000E+02  0.51100000000E-03 0.  1.
         11   -1    0    0    0    0 -0.00000000000E+00 -0.00000000000E+00 -0.45593999997E+02  0.45594000000E+02  0.51100000000E-03 0. -1.
    9900012    2    1    2    0    0 -0.60164525040E+01  0.33449846424E+02  0.22317607860E+02  0.50528861456E+02  0.30000004882E+02 0.  0.
        -12    1    1    2    0    0  0.60164525040E+01 -0.33449846424E+02 -0.22317607860E+02  0.40659138544E+02  0.00000000000E+00 0.  1.
         11    1    3    3    0    0 -0.15776014283E+02  0.21074644593E+02  0.17801571246E+02  0.31779226083E+02  0.51100000000E-03 0. -1.
        -11    1    3    3    0    0  0.63480026624E+01  0.92112715702E+01  0.72711959425E+01  0.13342224419E+02  0.51100000000E-03 0.  1.
        -12    1    3    3    0    0  0.34115591161E+01  0.31639302614E+01 -0.27551593285E+01  0.54074109542E+01  0.00000000000E+00 0.  1.
</event>
<event>
 7    1  0.2835316E-011  0.5052886E+02  0.7816164E-02  0.1300439E+00
        -11   -1    0    0    0    0  0.00000000000E+00  0.00000000000E+00  0.45593999997E+02  0.45594000000E+02  0.51100000000E-03 0. -1.
         11   -1    0    0    0    0 -0.00000000000E+00 -0.00000000000E+00 -0.45593999997E+02  0.45594000000E+02  0.51100000000E-03 0.  1.
    9900012    2    1    2    0    0 -0.18426212798E+02  0.34398695972E+02 -0.11417982284E+02  0.50528856845E+02  0.29999990866E+02 0.  0.
        -12    1    1    2    0    0  0.18426212798E+02 -0.34398695972E+02  0.11417982284E+02  0.40659143155E+02  0.00000000000E+00 0.  1.
         11    1    3    3    0    0 -0.94543104994E+01  0.12793476097E+02 -0.10812632768E+02  0.19234605411E+02  0.51100000000E-03 0. -1.
        -11    1    3    3    0    0 -0.15104149185E+02  0.99852013865E+01 -0.11622812752E+01  0.18143606791E+02  0.51100000000E-03 0.  1.
        -12    1    3    3    0    0  0.61322468869E+01  0.11620018489E+02  0.55693175952E+00  0.13150644644E+02  0.00000000000E+00 0.  1.
</event>
<event>
 7    1  0.2835316E-011  0.5052885E+02  0.7816164E-02  0.1300439E+00
        -11   -1    0    0    0    0  0.00000000000E+00  0.00000000000E+00  0.45593999997E+02  0.45594000000E+02  0.51100000000E-03 0. -1.
         11   -1    0    0    0    0 -0.00000000000E+00 -0.00000000000E+00 -0.45593999997E+02  0.45594000000E+02  0.51100000000E-03 0.  1.
    9900012    2    1    2    0    0 -0.40249580906E+02 -0.50317892724E+01  0.27961598739E+01  0.50528853717E+02  0.29999981358E+02 0.  0.
        -12    1    1    2    0    0  0.40249580906E+02  0.50317892724E+01 -0.27961598739E+01  0.40659146283E+02  0.00000000000E+00 0.  1.
         11    1    3    3    0    0 -0.28435184867E+02 -0.50940760226E+01  0.65344515323E+01  0.29617704266E+02  0.51100000000E-03 0. -1.
        -11    1    3    3    0    0 -0.98227903593E+01  0.71940425956E+01  0.84178844427E+00  0.12204510124E+02  0.51100000000E-03 0.  1.
         12    1    3    3    0    0 -0.19916056806E+01 -0.71317558454E+01 -0.45800801026E+01  0.87066393271E+01  0.00000000000E+00 0. -1.
</event>
<event>
 7    1  0.2835316E-011  0.5052886E+02  0.7816164E-02  0.1300439E+00
        -11   -1    0    0    0    0  0.00000000000E+00  0.00000000000E+00  0.45593999997E+02  0.45594000000E+02  0.51100000000E-03 0.  1.
         11   -1    0    0    0    0 -0.00000000000E+00 -0.00000000000E+00 -0.45593999997E+02  0.45594000000E+02  0.51100000000E-03 0. -1.
    9900012    2    1    2    0    0 -0.72155773062E+01 -0.37124676238E+02 -0.14928478468E+02  0.50528860671E+02  0.30000002496E+02 0.  0.
        -12    1    1    2    0    0  0.72155773062E+01  0.37124676238E+02  0.14928478468E+02  0.40659139329E+02  0.00000000000E+00 0.  1.
         11    1    3    3    0    0  0.28081744867E+01 -0.10405253457E+02 -0.65281540709E+01  0.12600473773E+02  0.51100000000E-03 0. -1.
        -11    1    3    3    0    0 -0.96303147755E+01 -0.29776273632E+02 -0.11702518283E+02  0.33411350893E+02  0.51100000000E-03 0.  1.
        -12    1    3    3    0    0 -0.39343701741E+00  0.30568508513E+01  0.33021938861E+01  0.45170360055E+01  0.00000000000E+00 0.  1.
</event>
<event>
 7    1  0.2835316E-011  0.5052888E+02  0.7816164E-02  0.1300439E+00
        -11   -1    0    0    0    0  0.00000000000E+00  0.00000000000E+00  0.45593999997E+02  0.45594000000E+02  0.51100000000E-03 0.  1.
         11   -1    0    0    0    0 -0.00000000000E+00 -0.00000000000E+00 -0.45593999997E+02  0.45594000000E+02  0.51100000000E-03 0. -1.
    9900012    2    1    2    0    0  0.82482866130E+01 -0.14274736035E+02 -0.37166669705E+02  0.50528884689E+02  0.30000075502E+02 0.  0.
        -12    1    1    2    0    0 -0.82482866130E+01  0.14274736035E+02  0.37166669705E+02  0.40659115311E+02  0.00000000000E+00 0.  1.
         11    1    3    3    0    0  0.50573813379E+01 -0.19411261469E+02 -0.11297993042E+02  0.23022137712E+02  0.51100000000E-03 0. -1.
        -11    1    3    3    0    0  0.76592893736E+00  0.10400515328E+00 -0.17050558768E+02  0.17068070154E+02  0.51100000000E-03 0.  1.
        -12    1    3    3    0    0  0.24249763378E+01  0.50325202809E+01 -0.88181178946E+01  0.10438676823E+02  0.00000000000E+00 0.  1.
</event>
<event>
 7    1  0.2835316E-011  0.5052886E+02  0.7816164E-02  0.1300439E+00
        -11   -1    0    0    0    0  0.00000000000E+00  0.00000000000E+00  0.45593999997E+02  0.45594000000E+02  0.51100000000E-03 0.  1.
         11   -1    0    0    0    0 -0.00000000000E+00 -0.00000000000E+00 -0.45593999997E+02  0.45594000000E+02  0.51100000000E-03 0. -1.
    9900012    2    1    2    0    0  0.24319196882E+02 -0.13850698865E+02 -0.29494072459E+02  0.50528861959E+02  0.30000006411E+02 0.  0.
        -12    1    1    2    0    0 -0.24319196882E+02  0.13850698865E+02  0.29494072459E+02  0.40659138041E+02  0.00000000000E+00 0.  1.
         11    1    3    3    0    0  0.12906442080E+02  0.66824544843E+01 -0.62814950740E+01  0.15833149583E+02  0.51100000000E-03 0. -1.
        -11    1    3    3    0    0  0.27503692659E+01 -0.64769973995E+01 -0.14288728675E+02  0.15927454091E+02  0.51100000000E-03 0.  1.
        -12    1    3    3    0    0  0.86623855356E+01 -0.14056155950E+02 -0.89238487094E+01  0.18768258285E+02  0.00000000000E+00 0.  1.
</event>
<event>
 7    1  0.2835316E-011  0.5052884E+02  0.7816164E-02  0.1300439E+00
        -11   -1    0    0    0    0  0.00000000000E+00  0.00000000000E+00  0.45593999997E+02  0.45594000000E+02  0.51100000000E-03 0. -1.
         11   -1    0    0    0    0 -0.00000000000E+00 -0.00000000000E+00 -0.45593999997E+02  0.45594000000E+02  0.51100000000E-03 0.  1.
    9900012    2    1    2    0    0  0.11484048408E+02  0.38054420921E+02  0.85524808230E+01  0.50528840543E+02  0.29999941316E+02 0.  0.
        -12    1    1    2    0    0 -0.11484048408E+02 -0.38054420921E+02 -0.85524808230E+01  0.40659159457E+02  0.00000000000E+00 0.  1.
         11    1    3    3    0    0  0.11029345543E+02  0.26204407823E+02  0.52492255868E+01  0.28911447940E+02  0.51100000000E-03 0. -1.
        -11    1    3    3    0    0  0.32042298644E+01  0.10494655264E+02  0.96221464189E+01  0.14594196795E+02  0.51100000000E-03 0.  1.
        -12    1    3    3    0    0 -0.27495269997E+01  0.13553578344E+01 -0.63188911828E+01  0.70231958082E+01  0.00000000000E+00 0.  1.
</event>
<event>
 7    1  0.2835316E-011  0.5052886E+02  0.7816164E-02  0.1300439E+00
        -11   -1    0    0    0    0  0.00000000000E+00  0.00000000000E+00  0.45593999997E+02  0.45594000000E+02  0.51100000000E-03 0.  1.
         11   -1    0    0    0    0 -0.00000000000E+00 -0.00000000000E+00 -0.45593999997E+02  0.45594000000E+02  0.51100000000E-03 0. -1.
    9900012    2    1    2    0    0  0.40687485794E+01 -0.11835301879E+02 -0.38685095922E+02  0.50528859182E+02  0.29999997970E+02 0.  0.
        -12    1    1    2    0    0 -0.40687485794E+01  0.11835301879E+02  0.38685095922E+02  0.40659140818E+02  0.00000000000E+00 0.  1.
         11    1    3    3    0    0 -0.43544608086E+01  0.25944412041E+01 -0.25415307844E+02  0.25915831593E+02  0.51100000000E-03 0. -1.
        -11    1    3    3    0    0  0.47215876583E+01  0.15181600331E+00 -0.27222003861E+00  0.47318645505E+01  0.51100000000E-03 0.  1.
        -12    1    3    3    0    0  0.37016217297E+01 -0.14581559086E+02 -0.12997568039E+02  0.19881163038E+02  0.00000000000E+00 0.  1.
</event>
<event>
 7    1  0.2835316E-011  0.5052886E+02  0.7816164E-02  0.1300439E+00
        -11   -1    0    0    0    0  0.00000000000E+00  0.00000000000E+00  0.45593999997E+02  0.45594000000E+02  0.51100000000E-03 0.  1.
         11   -1    0    0    0    0 -0.00000000000E+00 -0.00000000000E+00 -0.45593999997E+02  0.45594000000E+02  0.51100000000E-03 0. -1.
    9900012    2    1    2    0    0 -0.80894659378E+01 -0.33682877531E+02 -0.21288252730E+02  0.50528863238E+02  0.30000010298E+02 0.  0.
        -12    1    1    2    0    0  0.80894659378E+01  0.33682877531E+02  0.21288252730E+02  0.40659136762E+02  0.00000000000E+00 0.  1.
         11    1    3    3    0    0  0.71529904612E+01 -0.71709160153E+01  0.16539342571E+01  0.10262690087E+02  0.51100000000E-03 0.  1.
        -11    1    3    3    0    0 -0.30979607070E+01 -0.17843167041E+02 -0.13780532047E+02  0.22756955735E+02  0.51100000000E-03 0. -1.
        -12    1    3    3    0    0 -0.12144495692E+02 -0.86687944750E+01 -0.91616549407E+01  0.17509217416E+02  0.00000000000E+00 0.  1.
</event>
<event>
 7    1  0.2835316E-011  0.5052886E+02  0.7816164E-02  0.1300439E+00
        -11   -1    0    0    0    0  0.00000000000E+00  0.00000000000E+00  0.45593999997E+02  0.45594000000E+02  0.51100000000E-03 0.  1.
         11   -1    0    0    0    0 -0.00000000000E+00 -0.00000000000E+00 -0.45593999997E+02  0.45594000000E+02  0.51100000000E-03 0. -1.
    9900012    2    1    2    0    0 -0.19660539850E+02 -0.35277552790E+02  0.47035429188E+01  0.50528857436E+02  0.29999992661E+02 0.  0.
        -12    1    1    2    0    0  0.19660539850E+02  0.35277552790E+02 -0.47035429188E+01  0.40659142564E+02  0.00000000000E+00 0.  1.
         11    1    3    3    0    0 -0.23596773082E+01 -0.32947461411E+01  0.44535408239E+01  0.60214163836E+01  0.51100000000E-03 0. -1.
        -11    1    3    3    0    0 -0.18355608281E+02 -0.15909624188E+02  0.93249625902E+01  0.26019212608E+02  0.51100000000E-03 0.  1.
         12    1    3    3    0    0  0.10547457392E+01 -0.16073182461E+02 -0.90749604953E+01  0.18488228444E+02  0.00000000000E+00 0. -1.
</event>
<event>
 7    1  0.2835316E-011  0.5052886E+02  0.7816164E-02  0.1300439E+00
        -11   -1    0    0    0    0  0.00000000000E+00  0.00000000000E+00  0.45593999997E+02  0.45594000000E+02  0.51100000000E-03 0.  1.
         11   -1    0    0    0    0 -0.00000000000E+00 -0.00000000000E+00 -0.45593999997E+02  0.45594000000E+02  0.51100000000E-03 0. -1.
    9900012    2    1    2    0    0  0.13313741011E+02 -0.37622305021E+01 -0.38232913006E+02  0.50528859392E+02  0.29999998609E+02 0.  0.
        -12    1    1    2    0    0 -0.13313741011E+02  0.37622305021E+01  0.38232913006E+02  0.40659140608E+02  0.00000000000E+00 0.  1.
         11    1    3    3    0    0  0.59614641957E+01 -0.56344660701E+01 -0.40093322045E+01  0.91302249829E+01  0.51100000000E-03 0. -1.
        -11    1    3    3    0    0  0.14569486889E+02  0.50325522691E+01 -0.22500429970E+02  0.27273904737E+02  0.51100000000E-03 0.  1.
        -12    1    3    3    0    0 -0.72172100734E+01 -0.31603167010E+01 -0.11723150832E+02  0.14124729672E+02  0.00000000000E+00 0.  1.
</event>
<event>
 7    1  0.2835316E-011  0.5052884E+02  0.7816164E-02  0.1300439E+00
        -11   -1    0    0    0    0  0.00000000000E+00  0.00000000000E+00  0.45593999997E+02  0.45594000000E+02  0.51100000000E-03 0.  1.
         11   -1    0    0    0    0 -0.00000000000E+00 -0.00000000000E+00 -0.45593999997E+02  0.45594000000E+02  0.51100000000E-03 0. -1.
    9900012    2    1    2    0    0  0.10232755465E+02 -0.27051223721E+02 -0.28577779176E+02  0.50528838034E+02  0.29999933688E+02 0.  0.
        -12    1    1    2    0    0 -0.10232755465E+02  0.27051223721E+02  0.28577779176E+02  0.40659161966E+02  0.00000000000E+00 0.  1.
         11    1    3    3    0    0  0.10555166195E+02 -0.89774005604E+01 -0.61821421990E+01  0.15173138655E+02  0.51100000000E-03 0.  1.
        -11    1    3    3    0    0 -0.55799077561E+00  0.41488276396E+01 -0.75391083376E+01  0.86233566130E+01  0.51100000000E-03 0. -1.
         12    1    3    3    0    0  0.23558004513E+00 -0.22222650800E+02 -0.14856528639E+02  0.26732342765E+02  0.00000000000E+00 0. -1.
</event>
<event>
 7    1  0.2835316E-011  0.5052886E+02  0.7816164E-02  0.1300439E+00
        -11   -1    0    0    0    0  0.00000000000E+00  0.00000000000E+00  0.45593999997E+02  0.45594000000E+02  0.51100000000E-03 0. -1.
         11   -1    0    0    0    0 -0.00000000000E+00 -0.00000000000E+00 -0.45593999997E+02  0.45594000000E+02  0.51100000000E-03 0.  1.
    9900012    2    1    2    0    0 -0.30724446541E+01  0.14917202519E+02  0.37698849040E+02  0.50528855074E+02  0.29999985483E+02 0.  0.
        -12    1    1    2    0    0  0.30724446541E+01 -0.14917202519E+02 -0.37698849040E+02  0.40659144926E+02  0.00000000000E+00 0.  1.
         11    1    3    3    0    0  0.68294682841E+01  0.11582217168E+01  0.25770837503E+02  0.26685561273E+02  0.51100000000E-03 0. -1.
        -11    1    3    3    0    0  0.23774241481E+01  0.32239178597E+01  0.45473490602E+01  0.60600474983E+01  0.51100000000E-03 0.  1.
         12    1    3    3    0    0 -0.12279337086E+02  0.10535062942E+02  0.73806624776E+01  0.17783246303E+02  0.00000000000E+00 0. -1.
</event>
<event>
 7    1  0.2835316E-011  0.5052887E+02  0.7816164E-02  0.1300439E+00
        -11   -1    0    0    0    0  0.00000000000E+00  0.00000000000E+00  0.45593999997E+02  0.45594000000E+02  0.51100000000E-03 0.  1.
         11   -1    0    0    0    0 -0.00000000000E+00 -0.00000000000E+00 -0.45593999997E+02  0.45594000000E+02  0.51100000000E-03 0. -1.
    9900012    2    1    2    0    0 -0.22868265040E+02  0.89673279010E+01 -0.32400534005E+02  0.50528866716E+02  0.30000020868E+02 0.  0.
        -12    1    1    2    0    0  0.22868265040E+02 -0.89673279010E+01  0.32400534005E+02  0.40659133284E+02  0.00000000000E+00 0.  1.
         11    1    3    3    0    0 -0.14178399407E+01  0.58354592901E+01 -0.14489342051E+02  0.15684511103E+02  0.51100000000E-03 0. -1.
        -11    1    3    3    0    0 -0.23820962711E+01 -0.31577959931E+01  0.36496381049E+01  0.53819993252E+01  0.51100000000E-03 0.  1.
         12    1    3    3    0    0 -0.19068328828E+02  0.62896646041E+01 -0.21560830059E+02  0.29462356287E+02  0.00000000000E+00 0. -1.
</event>
<event>
 7    1  0.2835316E-011  0.5052886E+02  0.7816164E-02  0.1300439E+00
        -11   -1    0    0    0    0  0.00000000000E+00  0.00000000000E+00  0.45593999997E+02  0.45594000000E+02  0.51100000000E-03 0.  1.
         11   -1    0    0    0    0 -0.00000000000E+00 -0.00000000000E+00 -0.45593999997E+02  0.45594000000E+02  0.51100000000E-03 0. -1.
    9900012    2    1    2    0    0  0.26117152528E+02  0.29746582686E+02  0.92844527452E+01  0.50528857111E+02  0.29999991674E+02 0.  0.
        -12    1    1    2    0    0 -0.26117152528E+02 -0.29746582686E+02 -0.92844527452E+01  0.40659142889E+02  0.00000000000E+00 0.  1.
         11    1    3    3    0    0  0.10473490931E+02  0.10261444234E+02 -0.41562441823E+01  0.15240262991E+02  0.51100000000E-03 0. -1.
        -11    1    3    3    0    0  0.17917718577E+02  0.66466446767E+01  0.10914032034E+02  0.22007694563E+02  0.51100000000E-03 0.  1.
         12    1    3    3    0    0 -0.22740569800E+01  0.12838493775E+02  0.25266648937E+01  0.13280899557E+02  0.00000000000E+00 0. -1.
</event>
<event>
 7    1  0.2835316E-011  0.5052886E+02  0.7816164E-02  0.1300439E+00
        -11   -1    0    0    0    0  0.00000000000E+00  0.00000000000E+00  0.45593999997E+02  0.45594000000E+02  0.51100000000E-03 0.  1.
         11   -1    0    0    0    0 -0.00000000000E+00 -0.00000000000E+00 -0.45593999997E+02  0.45594000000E+02  0.51100000000E-03 0. -1.
    9900012    2    1    2    0    0 -0.18517489078E+02  0.26243994153E+02 -0.24930329534E+02  0.50528856360E+02  0.29999989391E+02 0.  0.
        -12    1    1    2    0    0  0.18517489078E+02 -0.26243994153E+02  0.24930329534E+02  0.40659143640E+02  0.00000000000E+00 0.  1.
         11    1    3    3    0    0 -0.65541091335E+01  0.21228944965E+02 -0.11650753733E+02  0.25087138412E+02  0.51100000000E-03 0. -1.
        -11    1    3    3    0    0 -0.57933497710E+01  0.72959593773E+01  0.13382720603E+01  0.94119550134E+01  0.51100000000E-03 0.  1.
         12    1    3    3    0    0 -0.61700301739E+01 -0.22809101900E+01 -0.14617847862E+02  0.16029762935E+02  0.00000000000E+00 0. -1.
</event>
<event>
 7    1  0.2835316E-011  0.5052885E+02  0.7816164E-02  0.1300439E+00
        -11   -1    0    0    0    0  0.00000000000E+00  0.00000000000E+00  0.45593999997E+02  0.45594000000E+02  0.51100000000E-03 0. -1.
         11   -1    0    0    0    0 -0.00000000000E+00 -0.00000000000E+00 -0.45593999997E+02  0.45594000000E+02  0.51100000000E-03 0.  1.
    9900012    2    1    2    0    0 -0.85004932523E+01 -0.25006015053E+02  0.30912899298E+02  0.50528849525E+02  0.29999968617E+02 0.  0.
        -12    1    1    2    0    0  0.85004932523E+01  0.25006015053E+02 -0.30912899298E+02  0.40659150475E+02  0.00000000000E+00 0.  1.
         11    1    3    3    0    0 -0.93324417540E+00 -0.23909068791E+02  0.26716974124E+02  0.35865181190E+02  0.51100000000E-03 0. -1.
        -11    1    3    3    0    0  0.30291488442E+01  0.67763291948E+00  0.20146749314E+01  0.37005194817E+01  0.51100000000E-03 0.  1.
        -12    1    3    3    0    0 -0.10596397921E+02 -0.17745791808E+01  0.21812502425E+01  0.10963148854E+02  0.00000000000E+00 0.  1.
</event>
<event>
 7    1  0.2835316E-011  0.5052886E+02  0.7816164E-02  0.1300439E+00
        -11   -1    0    0    0    0  0.00000000000E+00  0.00000000000E+00  0.45593999997E+02  0.45594000000E+02  0.51100000000E-03 0. -1.
         11   -1    0    0    0    0 -0.00000000000E+00 -0.00000000000E+00 -0.45593999997E+02  0.45594000000E+02  0.51100000000E-03 0.  1.
    9900012    2    1    2    0    0 -0.19416814591E+02  0.12590319404E+02  0.33431070771E+02  0.50528864195E+02  0.30000013206E+02 0.  0.
        -12    1    1    2    0    0  0.19416814591E+02 -0.12590319404E+02 -0.33431070771E+02  0.40659135805E+02  0.00000000000E+00 0.  1.
         11    1    3    3    0    0 -0.67173938103E+01  0.49228570633E+01  0.23192762883E+02  0.24642689619E+02  0.51100000000E-03 0. -1.
        -11    1    3    3    0    0 -0.14321612605E+02  0.57706873473E+00  0.11657572885E+02  0.18475405321E+02  0.51100000000E-03 0.  1.
        -12    1    3    3    0    0  0.16221918251E+01  0.70903936061E+01 -0.14192649969E+01  0.74107692542E+01  0.00000000000E+00 0.  1.
</event>
<event>
 7    1  0.2835316E-011  0.5052885E+02  0.7816164E-02  0.1300439E+00
        -11   -1    0    0    0    0  0.00000000000E+00  0.00000000000E+00  0.45593999997E+02  0.45594000000E+02  0.51100000000E-03 0.  1.
         11   -1    0    0    0    0 -0.00000000000E+00 -0.00000000000E+00 -0.45593999997E+02  0.45594000000E+02  0.51100000000E-03 0. -1.
    9900012    2    1    2    0    0 -0.32379450030E+02 -0.84890664544E+01 -0.23079713037E+02  0.50528853583E+02  0.29999980951E+02 0.  0.
        -12    1    1    2    0    0  0.32379450030E+02  0.84890664544E+01  0.23079713037E+02  0.40659146417E+02  0.00000000000E+00 0.  1.
         11    1    3    3    0    0 -0.15400862733E+02 -0.35437176201E+01 -0.95285527156E+01  0.18453666969E+02  0.51100000000E-03 0. -1.
        -11    1    3    3    0    0 -0.22727878089E+02 -0.43876742529E+01 -0.95065229298E+01  0.25023630957E+02  0.51100000000E-03 0.  1.
        -12    1    3    3    0    0  0.57492907924E+01 -0.55767458140E+00 -0.40446373914E+01  0.70515556569E+01  0.00000000000E+00 0.  1.
</event>
<event>
 7    1  0.2835316E-011  0.5052886E+02  0.7816164E-02  0.1300439E+00
        -11   -1    0    0    0    0  0.00000000000E+00  0.00000000000E+00  0.45593999997E+02  0.45594000000E+02  0.51100000000E-03 0. -1.
         11   -1    0    0    0    0 -0.00000000000E+00 -0.00000000000E+00 -0.45593999997E+02  0.45594000000E+02  0.51100000000E-03 0.  1.
    9900012    2    1    2    0    0  0.13400586479E+02 -0.12688254957E+02  0.36229793386E+02  0.50528862520E+02  0.30000008115E+02 0.  0.
        -12    1    1    2    0    0 -0.13400586479E+02  0.12688254957E+02 -0.36229793386E+02  0.40659137480E+02  0.00000000000E+00 0.  1.
         11    1    3    3    0    0  0.78678064229E+01  0.99632803400E+00  0.39180863115E+00  0.79403124450E+01  0.51100000000E-03 0. -1.
        -11    1    3    3    0    0 -0.18617152832E+01  0.35264482856E+01  0.39968092639E+01  0.56459105430E+01  0.51100000000E-03 0.  1.
         12    1    3    3    0    0  0.73944953395E+01 -0.17211031277E+02  0.31841175491E+02  0.36942639532E+02  0.00000000000E+00 0. -1.
</event>
<event>
 7    1  0.2835316E-011  0.5052885E+02  0.7816164E-02  0.1300439E+00
        -11   -1    0    0    0    0  0.00000000000E+00  0.00000000000E+00  0.45593999997E+02  0.45594000000E+02  0.51100000000E-03 0.  1.
         11   -1    0    0    0    0 -0.00000000000E+00 -0.00000000000E+00 -0.45593999997E+02  0.45594000000E+02  0.51100000000E-03 0. -1.
    9900012    2    1    2    0    0  0.12551662711E+02  0.31289303363E+02 -0.22728870284E+02  0.50528852368E+02  0.29999977259E+02 0.  0.
        -12    1    1    2    0    0 -0.12551662711E+02 -0.31289303363E+02  0.22728870284E+02  0.40659147632E+02  0.00000000000E+00 0.  1.
         11    1    3    3    0    0  0.50834531403E+01  0.12181125605E+02 -0.12978716459E+02  0.18511304601E+02  0.51100000000E-03 0. -1.
        -11    1    3    3    0    0  0.17021003018E+01  0.18886971332E+02  0.18579677089E+01  0.19054313837E+02  0.51100000000E-03 0.  1.
         12    1    3    3    0    0  0.57661092693E+01  0.22120642559E+00 -0.11608121535E+02  0.12963233931E+02  0.00000000000E+00 0. -1.
</event>
<event>
 7    1  0.2835316E-011  0.5052885E+02  0.7816164E-02  0.1300439E+00
        -11   -1    0    0    0    0  0.00000000000E+00  0.00000000000E+00  0.45593999997E+02  0.45594000000E+02  0.51100000000E-03 0.  1.
         11   -1    0    0    0    0 -0.00000000000E+00 -0.00000000000E+00 -0.45593999997E+02  0.45594000000E+02  0.51100000000E-03 0. -1.
    9900012    2    1    2    0    0  0.67861963428E+01 -0.37126908124E+02 -0.15123052350E+02  0.50528849984E+02  0.29999970012E+02 0.  0.
        -12    1    1    2    0    0 -0.67861963428E+01  0.37126908124E+02  0.15123052350E+02  0.40659150016E+02  0.00000000000E+00 0.  1.
         11    1    3    3    0    0 -0.47592513464E+01 -0.14621482774E+02 -0.36774831991E+01  0.15810190221E+02  0.51100000000E-03 0. -1.
        -11    1    3    3    0    0  0.52692612897E+01 -0.12638724972E+02 -0.16953491350E+02  0.21792736237E+02  0.51100000000E-03 0.  1.
         12    1    3    3    0    0  0.62761863995E+01 -0.98667003778E+01  0.55079221993E+01  0.12925923527E+02  0.00000000000E+00 0. -1.
</event>
<event>
 7    1  0.2835316E-011  0.5052886E+02  0.7816164E-02  0.1300439E+00
        -11   -1    0    0    0    0  0.00000000000E+00  0.00000000000E+00  0.45593999997E+02  0.45594000000E+02  0.51100000000E-03 0. -1.
         11   -1    0    0    0    0 -0.00000000000E+00 -0.00000000000E+00 -0.45593999997E+02  0.45594000000E+02  0.51100000000E-03 0.  1.
    9900012    2    1    2    0    0 -0.28711517268E+02  0.18897403248E+02 -0.21718717131E+02  0.50528858996E+02  0.29999997404E+02 0.  0.
        -12    1    1    2    0    0  0.28711517268E+02 -0.18897403248E+02  0.21718717131E+02  0.40659141004E+02  0.00000000000E+00 0.  1.
         11    1    3    3    0    0 -0.25007084820E+02  0.14656713832E+02 -0.20422197528E+01  0.29057601644E+02  0.51100000000E-03 0. -1.
        -11    1    3    3    0    0 -0.50932376330E+01  0.16291912894E+01 -0.98333347470E+01  0.11193292918E+02  0.51100000000E-03 0.  1.
        -12    1    3    3    0    0  0.13888051849E+01  0.26114981266E+01 -0.98431626313E+01  0.10277964433E+02  0.00000000000E+00 0.  1.
</event>
<event>
 7    1  0.2835316E-011  0.5052886E+02  0.7816164E-02  0.1300439E+00
        -11   -1    0    0    0    0  0.00000000000E+00  0.00000000000E+00  0.45593999997E+02  0.45594000000E+02  0.51100000000E-03 0. -1.
         11   -1    0    0    0    0 -0.00000000000E+00 -0.00000000000E+00 -0.45593999997E+02  0.45594000000E+02  0.51100000000E-03 0.  1.
    9900012    2    1    2    0    0 -0.29597694610E+02  0.23312059137E+02 -0.15286913200E+02  0.50528863971E+02  0.30000012526E+02 0.  0.
        -12    1    1    2    0    0  0.29597694610E+02 -0.23312059137E+02  0.15286913200E+02  0.40659136029E+02  0.00000000000E+00 0.  1.
         11    1    3    3    0    0 -0.91623018471E+01 -0.23964638451E+01  0.87828988809E-02  0.94705275196E+01  0.51100000000E-03 0. -1.
        -11    1    3    3    0    0 -0.10099088028E+02  0.78340992138E+01 -0.15901573881E+02  0.20401586744E+02  0.51100000000E-03 0.  1.
        -12    1    3    3    0    0 -0.10336304735E+02  0.17874423768E+02  0.60587778225E+00  0.20656749708E+02  0.00000000000E+00 0.  1.
</event>
<event>
 7    1  0.2835316E-011  0.5052889E+02  0.7816164E-02  0.1300439E+00
        -11   -1    0    0    0    0  0.00000000000E+00  0.00000000000E+00  0.45593999997E+02  0.45594000000E+02  0.51100000000E-03 0. -1.
         11   -1    0    0    0    0 -0.00000000000E+00 -0.00000000000E+00 -0.45593999997E+02  0.45594000000E+02  0.51100000000E-03 0.  1.
    9900012    2    1    2    0    0  0.96487434146E+00  0.16809295135E+02  0.37009190020E+02  0.50528886245E+02  0.30000080230E+02 0.  0.
        -12    1    1    2    0    0 -0.96487434146E+00 -0.16809295135E+02 -0.37009190020E+02  0.40659113755E+02  0.00000000000E+00 0.  1.
         11    1    3    3    0    0 -0.83853835918E+00 -0.32422173287E+01  0.56253514201E+01  0.65467319059E+01  0.51100000000E-03 0. -1.
        -11    1    3    3    0    0  0.42464365327E+01  0.15694492178E+02  0.48278749102E+01  0.16960474179E+02  0.51100000000E-03 0.  1.
         12    1    3    3    0    0 -0.24430238320E+01  0.43570202854E+01  0.26555963689E+02  0.27021680160E+02  0.00000000000E+00 0. -1.
</event>
<event>
 7    1  0.2835316E-011  0.5052887E+02  0.7816164E-02  0.1300439E+00
        -11   -1    0    0    0    0  0.00000000000E+00  0.00000000000E+00  0.45593999997E+02  0.45594000000E+02  0.51100000000E-03 0.  1.
         11   -1    0    0    0    0 -0.00000000000E+00 -0.00000000000E+00 -0.45593999997E+02  0.45594000000E+02  0.51100000000E-03 0. -1.
    9900012    2    1    2    0    0 -0.13867844833E+02  0.36311513522E+02 -0.11929881188E+02  0.50528865728E+02  0.30000017868E+02 0.  0.
        -12    1    1    2    0    0  0.13867844833E+02 -0.36311513522E+02  0.11929881188E+02  0.40659134272E+02  0.00000000000E+00 0.  1.
         11    1    3    3    0    0 -0.17482255114E+02  0.28040294129E+02 -0.56038975439E+01  0.33515533812E+02  0.51100000000E-03 0. -1.
        -11    1    3    3    0    0 -0.73912446165E+00  0.10511447522E+02 -0.59538384109E+01  0.12103099854E+02  0.51100000000E-03 0.  1.
        -12    1    3    3    0    0  0.43535347431E+01 -0.22402281299E+01 -0.37214523341E+00  0.49102320626E+01  0.00000000000E+00 0.  1.
</event>
<event>
 7    1  0.2835316E-011  0.5052886E+02  0.7816164E-02  0.1300439E+00
        -11   -1    0    0    0    0  0.00000000000E+00  0.00000000000E+00  0.45593999997E+02  0.45594000000E+02  0.51100000000E-03 0.  1.
         11   -1    0    0    0    0 -0.00000000000E+00 -0.00000000000E+00 -0.45593999997E+02  0.45594000000E+02  0.51100000000E-03 0. -1.
    9900012    2    1    2    0    0 -0.14328908546E+02 -0.23269288544E+02 -0.30106285012E+02  0.50528858265E+02  0.29999995181E+02 0.  0.
        -12    1    1    2    0    0  0.14328908546E+02  0.23269288544E+02  0.30106285012E+02  0.40659141735E+02  0.00000000000E+00 0.  1.
         11    1    3    3    0    0 -0.18197713897E+01 -0.10576738065E+02 -0.39584794651E+01  0.11438903616E+02  0.51100000000E-03 0. -1.
        -11    1    3    3    0    0  0.21960656980E+01  0.24649215628E+01  0.20308327929E+01  0.38759289150E+01  0.51100000000E-03 0.  1.
         12    1    3    3    0    0 -0.14705202854E+02 -0.15157472042E+02 -0.28178638339E+02  0.35214025733E+02  0.00000000000E+00 0. -1.
</event>
<event>
 7    1  0.2835316E-011  0.5052887E+02  0.7816164E-02  0.1300439E+00
        -11   -1    0    0    0    0  0.00000000000E+00  0.00000000000E+00  0.45593999997E+02  0.45594000000E+02  0.51100000000E-03 0. -1.
         11   -1    0    0    0    0 -0.00000000000E+00 -0.00000000000E+00 -0.45593999997E+02  0.45594000000E+02  0.51100000000E-03 0.  1.
    9900012    2    1    2    0    0 -0.14656810485E+02 -0.24516069408E+02  0.28936225417E+02  0.50528869485E+02  0.30000029288E+02 0.  0.
        -12    1    1    2    0    0  0.14656810485E+02  0.24516069408E+02 -0.28936225417E+02  0.40659130515E+02  0.00000000000E+00 0.  1.
         11    1    3    3    0    0 -0.35436236944E+01 -0.14732403196E+02  0.25755908260E+02  0.29882566546E+02  0.51100000000E-03 0. -1.
        -11    1    3    3    0    0 -0.27263380562E+01  0.13514716579E+01  0.57177131550E+01  0.64770084779E+01  0.51100000000E-03 0.  1.
        -12    1    3    3    0    0 -0.83868487349E+01 -0.11135137870E+02 -0.25373959978E+01  0.14169294462E+02  0.00000000000E+00 0.  1.
</event>
<event>
 7    1  0.2835316E-011  0.5052887E+02  0.7816164E-02  0.1300439E+00
        -11   -1    0    0    0    0  0.00000000000E+00  0.00000000000E+00  0.45593999997E+02  0.45594000000E+02  0.51100000000E-03 0. -1.
         11   -1    0    0    0    0 -0.00000000000E+00 -0.00000000000E+00 -0.45593999997E+02  0.45594000000E+02  0.51100000000E-03 0.  1.
    9900012    2    1    2    0    0  0.29030764229E+02 -0.59213386207E+01  0.27844527770E+02  0.50528865116E+02  0.30000016006E+02 0.  0.
        -12    1    1    2    0    0 -0.29030764229E+02  0.59213386207E+01 -0.27844527770E+02  0.40659134884E+02  0.00000000000E+00 0.  1.
         11    1    3    3    0    0 -0.16964315261E-01 -0.76627601665E+01  0.11620411339E+02  0.13919487818E+02  0.51100000000E-03 0. -1.
        -11    1    3    3    0    0  0.14604422342E+02 -0.62142106035E+01  0.49175651258E+01  0.16615896377E+02  0.51100000000E-03 0.  1.
         12    1    3    3    0    0  0.14443306202E+02  0.79556321493E+01  0.11306551305E+02  0.19993480921E+02  0.00000000000E+00 0. -1.
</event>
<event>
 7    1  0.2835316E-011  0.5052886E+02  0.7816164E-02  0.1300439E+00
        -11   -1    0    0    0    0  0.00000000000E+00  0.00000000000E+00  0.45593999997E+02  0.45594000000E+02  0.51100000000E-03 0. -1.
         11   -1    0    0    0    0 -0.00000000000E+00 -0.00000000000E+00 -0.45593999997E+02  0.45594000000E+02  0.51100000000E-03 0.  1.
    9900012    2    1    2    0    0  0.14594737417E+02 -0.36264601572E+02  0.11182031667E+02  0.50528861794E+02  0.30000005909E+02 0.  0.
        -12    1    1    2    0    0 -0.14594737417E+02  0.36264601572E+02 -0.11182031667E+02  0.40659138206E+02  0.00000000000E+00 0.  1.
         11    1    3    3    0    0  0.12488222496E+02 -0.15442883620E+02 -0.23865544423E+01  0.20003349669E+02  0.51100000000E-03 0. -1.
        -11    1    3    3    0    0  0.56915078533E+01 -0.22381397251E+02  0.13196509813E+02  0.26598272050E+02  0.51100000000E-03 0.  1.
         12    1    3    3    0    0 -0.35849929323E+01  0.15596792985E+01  0.37207629665E+00  0.39272400753E+01  0.00000000000E+00 0. -1.
</event>
<event>
 7    1  0.2835316E-011  0.5052886E+02  0.7816164E-02  0.1300439E+00
        -11   -1    0    0    0    0  0.00000000000E+00  0.00000000000E+00  0.45593999997E+02  0.45594000000E+02  0.51100000000E-03 0.  1.
         11   -1    0    0    0    0 -0.00000000000E+00 -0.00000000000E+00 -0.45593999997E+02  0.45594000000E+02  0.51100000000E-03 0. -1.
    9900012    2    1    2    0    0  0.15921561756E+02 -0.29773380535E+02 -0.22654257308E+02  0.50528859682E+02  0.29999999490E+02 0.  0.
        -12    1    1    2    0    0 -0.15921561756E+02  0.29773380535E+02  0.22654257308E+02  0.40659140318E+02  0.00000000000E+00 0.  1.
         11    1    3    3    0    0  0.86725837252E+01 -0.11254345331E+02 -0.34097989388E+00  0.14212327918E+02  0.51100000000E-03 0.  1.
        -11    1    3    3    0    0  0.14342971092E+02 -0.97700784381E+01 -0.12645744770E+02  0.21473008953E+02  0.51100000000E-03 0. -1.
        -12    1    3    3    0    0 -0.70939930613E+01 -0.87489567651E+01 -0.96675326435E+01  0.14843522811E+02  0.00000000000E+00 0.  1.
</event>
<event>
 7    1  0.2835316E-011  0.5052887E+02  0.7816164E-02  0.1300439E+00
        -11   -1    0    0    0    0  0.00000000000E+00  0.00000000000E+00  0.45593999997E+02  0.45594000000E+02  0.51100000000E-03 0.  1.
         11   -1    0    0    0    0 -0.00000000000E+00 -0.00000000000E+00 -0.45593999997E+02  0.45594000000E+02  0.51100000000E-03 0. -1.
    9900012    2    1    2    0    0 -0.28037641352E+02  0.60912818805E+01 -0.28808887579E+02  0.50528867556E+02  0.30000023424E+02 0.  0.
        -12    1    1    2    0    0  0.28037641352E+02 -0.60912818805E+01  0.28808887579E+02  0.40659132444E+02  0.00000000000E+00 0.  1.
         11    1    3    3    0    0 -0.19510729658E+01 -0.37889920000E+01  0.13385160329E+01  0.44670763957E+01  0.51100000000E-03 0. -1.
        -11    1    3    3    0    0 -0.37864641881E+01 -0.40009613192E+01  0.69196009210E+00  0.55519196280E+01  0.51100000000E-03 0.  1.
         12    1    3    3    0    0 -0.22300104198E+02  0.13881235200E+02 -0.30839363704E+02  0.40509871533E+02  0.00000000000E+00 0. -1.
</event>
<event>
 7    1  0.2835316E-011  0.5052887E+02  0.7816164E-02  0.1300439E+00
        -11   -1    0    0    0    0  0.00000000000E+00  0.00000000000E+00  0.45593999997E+02  0.45594000000E+02  0.51100000000E-03 0.  1.
         11   -1    0    0    0    0 -0.00000000000E+00 -0.00000000000E+00 -0.45593999997E+02  0.45594000000E+02  0.51100000000E-03 0. -1.
    9900012    2    1    2    0    0  0.26919926984E+02 -0.30177109790E+02 -0.42218983354E+01  0.50528870033E+02  0.30000030953E+02 0.  0.
        -12    1    1    2    0    0 -0.26919926984E+02  0.30177109790E+02  0.42218983354E+01  0.40659129967E+02  0.00000000000E+00 0.  1.
         11    1    3    3    0    0  0.76102169288E+01 -0.21213980796E+02  0.16499029821E+01  0.22598021219E+02  0.51100000000E-03 0. -1.
        -11    1    3    3    0    0 -0.59052985511E+00  0.34891616653E+01 -0.22092448846E+01  0.41717787403E+01  0.51100000000E-03 0.  1.
        -12    1    3    3    0    0  0.19900239910E+02 -0.12452290660E+02 -0.36625564328E+01  0.23759070074E+02  0.00000000000E+00 0.  1.
</event>
<event>
 7    1  0.2835316E-011  0.5052885E+02  0.7816164E-02  0.1300439E+00
        -11   -1    0    0    0    0  0.00000000000E+00  0.00000000000E+00  0.45593999997E+02  0.45594000000E+02  0.51100000000E-03 0.  1.
         11   -1    0    0    0    0 -0.00000000000E+00 -0.00000000000E+00 -0.45593999997E+02  0.45594000000E+02  0.51100000000E-03 0. -1.
    9900012    2    1    2    0    0  0.25386119156E+02  0.11654269902E+02 -0.29544702163E+02  0.50528850001E+02  0.29999970063E+02 0.  0.
        -12    1    1    2    0    0 -0.25386119156E+02 -0.11654269902E+02  0.29544702163E+02  0.40659149999E+02  0.00000000000E+00 0.  1.
         11    1    3    3    0    0  0.16129753834E+02 -0.17466961193E+01 -0.13499792914E+02  0.21106025563E+02  0.51100000000E-03 0. -1.
        -11    1    3    3    0    0  0.11809938351E+02  0.75729403892E+01 -0.22200388260E+01  0.14203965736E+02  0.51100000000E-03 0.  1.
        -12    1    3    3    0    0 -0.25535730285E+01  0.58280256324E+01 -0.13824870422E+02  0.15218858702E+02  0.00000000000E+00 0.  1.
</event>
<event>
 7    1  0.2835316E-011  0.5052886E+02  0.7816164E-02  0.1300439E+00
        -11   -1    0    0    0    0  0.00000000000E+00  0.00000000000E+00  0.45593999997E+02  0.45594000000E+02  0.51100000000E-03 0.  1.
         11   -1    0    0    0    0 -0.00000000000E+00 -0.00000000000E+00 -0.45593999997E+02  0.45594000000E+02  0.51100000000E-03 0. -1.
    9900012    2    1    2    0    0 -0.48962120874E+01  0.38074424263E+02 -0.13398912110E+02  0.50528861771E+02  0.30000005839E+02 0.  0.
        -12    1    1    2    0    0  0.48962120874E+01 -0.38074424263E+02  0.13398912110E+02  0.40659138229E+02  0.00000000000E+00 0.  1.
         11    1    3    3    0    0  0.13287658671E+01 -0.79611512953E+00 -0.58765931377E+01  0.60773156242E+01  0.51100000000E-03 0. -1.
        -11    1    3    3    0    0 -0.66739525040E+01  0.70400241205E+01  0.41422525700E+01  0.10548072727E+02  0.51100000000E-03 0.  1.
         12    1    3    3    0    0  0.44897454951E+00  0.31830515272E+02 -0.11664571543E+02  0.33903473420E+02  0.00000000000E+00 0. -1.
</event>
<event>
 7    1  0.2835316E-011  0.5052885E+02  0.7816164E-02  0.1300439E+00
        -11   -1    0    0    0    0  0.00000000000E+00  0.00000000000E+00  0.45593999997E+02  0.45594000000E+02  0.51100000000E-03 0. -1.
         11   -1    0    0    0    0 -0.00000000000E+00 -0.00000000000E+00 -0.45593999997E+02  0.45594000000E+02  0.51100000000E-03 0.  1.
    9900012    2    1    2    0    0 -0.37632998457E+02  0.13253862024E+02  0.78267903423E+01  0.50528854922E+02  0.29999985021E+02 0.  0.
        -12    1    1    2    0    0  0.37632998457E+02 -0.13253862024E+02 -0.78267903423E+01  0.40659145078E+02  0.00000000000E+00 0.  1.
         11    1    3    3    0    0 -0.27399702338E+02  0.36510026247E+01  0.10505559968E+01  0.27661836103E+02  0.51100000000E-03 0. -1.
        -11    1    3    3    0    0 -0.44987403904E+01 -0.46300975301E+01  0.13842891414E+01  0.66024786957E+01  0.51100000000E-03 0.  1.
         12    1    3    3    0    0 -0.57345557281E+01  0.14232956929E+02  0.53919452041E+01  0.16264540124E+02  0.00000000000E+00 0. -1.
</event>
<event>
 7    1  0.2835316E-011  0.5052886E+02  0.7816164E-02  0.1300439E+00
        -11   -1    0    0    0    0  0.00000000000E+00  0.00000000000E+00  0.45593999997E+02  0.45594000000E+02  0.51100000000E-03 0.  1.
         11   -1    0    0    0    0 -0.00000000000E+00 -0.00000000000E+00 -0.45593999997E+02  0.45594000000E+02  0.51100000000E-03 0. -1.
    9900012    2    1    2    0    0 -0.27076309501E+02 -0.30316069835E+02 -0.98754425387E+00  0.50528857485E+02  0.29999992811E+02 0.  0.
        -12    1    1    2    0    0  0.27076309501E+02  0.30316069835E+02  0.98754425387E+00  0.40659142515E+02  0.00000000000E+00 0.  1.
         11    1    3    3    0    0 -0.26405206874E+02 -0.26862715678E+02  0.65036675003E+01  0.38224836623E+02  0.51100000000E-03 0. -1.
        -11    1    3    3    0    0 -0.23369782147E+01  0.25858561806E+01 -0.24067802414E+01  0.42356476193E+01  0.51100000000E-03 0.  1.
        -12    1    3    3    0    0  0.16658755878E+01 -0.60392103373E+01 -0.50844315127E+01  0.80683732424E+01  0.00000000000E+00 0.  1.
</event>
<event>
 7    1  0.2835316E-011  0.5052900E+02  0.7816164E-02  0.1300438E+00
        -11   -1    0    0    0    0  0.00000000000E+00  0.00000000000E+00  0.45593999997E+02  0.45594000000E+02  0.51100000000E-03 0. -1.
         11   -1    0    0    0    0 -0.00000000000E+00 -0.00000000000E+00 -0.45593999997E+02  0.45594000000E+02  0.51100000000E-03 0.  1.
    9900012    2    1    2    0    0  0.32508424120E+02 -0.23534653497E+02 -0.65174223191E+01  0.50528999180E+02  0.30000423505E+02 0.  0.
        -12    1    1    2    0    0 -0.32508424120E+02  0.23534653497E+02  0.65174223191E+01  0.40659000820E+02  0.00000000000E+00 0.  1.
         11    1    3    3    0    0  0.40650329332E+01 -0.22764325626E+01  0.48023083804E+01  0.66909494096E+01  0.51100000000E-03 0. -1.
        -11    1    3    3    0    0  0.15834416706E+02 -0.14464484067E+02 -0.18032734686E+02  0.28020163673E+02  0.51100000000E-03 0.  1.
         12    1    3    3    0    0  0.12608974481E+02 -0.67937368680E+01  0.67130039862E+01  0.15817886098E+02  0.00000000000E+00 0. -1.
</event>
<event>
 7    1  0.2835316E-011  0.5052887E+02  0.7816164E-02  0.1300439E+00
        -11   -1    0    0    0    0  0.00000000000E+00  0.00000000000E+00  0.45593999997E+02  0.45594000000E+02  0.51100000000E-03 0. -1.
         11   -1    0    0    0    0 -0.00000000000E+00 -0.00000000000E+00 -0.45593999997E+02  0.45594000000E+02  0.51100000000E-03 0.  1.
    9900012    2    1    2    0    0 -0.40137534796E+02 -0.55892281184E+01 -0.33021128403E+01  0.50528866713E+02  0.30000020859E+02 0.  0.
        -12    1    1    2    0    0  0.40137534796E+02  0.55892281184E+01  0.33021128403E+01  0.40659133287E+02  0.00000000000E+00 0.  1.
         11    1    3    3    0    0 -0.25425673998E+02 -0.15496352571E+01 -0.50703369891E+01  0.25972573710E+02  0.51100000000E-03 0. -1.
        -11    1    3    3    0    0 -0.34543643106E+01 -0.94589647003E+01 -0.39485886788E+01  0.10816468870E+02  0.51100000000E-03 0.  1.
        -12    1    3    3    0    0 -0.11257496488E+02  0.54193718389E+01  0.57168128276E+01  0.13739824133E+02  0.00000000000E+00 0.  1.
</event>
<event>
 7    1  0.2835316E-011  0.5052886E+02  0.7816164E-02  0.1300439E+00
        -11   -1    0    0    0    0  0.00000000000E+00  0.00000000000E+00  0.45593999997E+02  0.45594000000E+02  0.51100000000E-03 0.  1.
         11   -1    0    0    0    0 -0.00000000000E+00 -0.00000000000E+00 -0.45593999997E+02  0.45594000000E+02  0.51100000000E-03 0. -1.
    9900012    2    1    2    0    0 -0.24061591575E+02 -0.31014865146E+02 -0.10596404235E+02  0.50528857954E+02  0.29999994238E+02 0.  0.
        -12    1    1    2    0    0  0.24061591575E+02  0.31014865146E+02  0.10596404235E+02  0.40659142046E+02  0.00000000000E+00 0.  1.
         11    1    3    3    0    0 -0.15364725041E+02 -0.24611294917E+02 -0.65273267703E+01  0.29738806433E+02  0.51100000000E-03 0. -1.
        -11    1    3    3    0    0 -0.10838571838E+02 -0.72563782393E+01 -0.86574988756E+01  0.15655093474E+02  0.51100000000E-03 0.  1.
        -12    1    3    3    0    0  0.21417053029E+01  0.85280801001E+00  0.45884214107E+01  0.51349580474E+01  0.00000000000E+00 0.  1.
</event>
<event>
 7    1  0.3023965E-011  0.5052889E+02  0.7816164E-02  0.1300439E+00
        -11   -1    0    0    0    0  0.00000000000E+00  0.00000000000E+00  0.45593999997E+02  0.45594000000E+02  0.51100000000E-03 0. -1.
         11   -1    0    0    0    0 -0.00000000000E+00 -0.00000000000E+00 -0.45593999997E+02  0.45594000000E+02  0.51100000000E-03 0.  1.
    9900012    2    1    2    0    0 -0.12465548183E+01 -0.37217505001E+02  0.16323815085E+02  0.50528886429E+02  0.30000080789E+02 0.  0.
        -12    1    1    2    0    0  0.12465548183E+01  0.37217505001E+02 -0.16323815085E+02  0.40659113571E+02  0.00000000000E+00 0.  1.
         11    1    3    3    0    0  0.70549884693E+01 -0.15255340597E+02  0.12523234461E+02  0.20960192763E+02  0.51100000000E-03 0. -1.
        -11    1    3    3    0    0  0.21189820077E+01 -0.11387753973E+02 -0.46549452793E+01  0.12483570848E+02  0.51100000000E-03 0.  1.
         12    1    3    3    0    0 -0.10420525295E+02 -0.10574410431E+02  0.84555259039E+01  0.17085122818E+02  0.00000000000E+00 0. -1.
</event>
<event>
 7    1  0.2835316E-011  0.5052886E+02  0.7816164E-02  0.1300439E+00
        -11   -1    0    0    0    0  0.00000000000E+00  0.00000000000E+00  0.45593999997E+02  0.45594000000E+02  0.51100000000E-03 0.  1.
         11   -1    0    0    0    0 -0.00000000000E+00 -0.00000000000E+00 -0.45593999997E+02  0.45594000000E+02  0.51100000000E-03 0. -1.
    9900012    2    1    2    0    0  0.26564842529E+02  0.11323880176E+02 -0.28622452295E+02  0.50528857164E+02  0.29999991835E+02 0.  0.
        -12    1    1    2    0    0 -0.26564842529E+02 -0.11323880176E+02  0.28622452295E+02  0.40659142836E+02  0.00000000000E+00 0.  1.
         11    1    3    3    0    0  0.15547415534E+02  0.48081095545E+01 -0.21109350509E+02  0.26654169026E+02  0.51100000000E-03 0. -1.
        -11    1    3    3    0    0  0.13108089203E+02 -0.24819392127E+01 -0.54401774159E+01  0.14407552026E+02  0.51100000000E-03 0.  1.
         12    1    3    3    0    0 -0.20906622075E+01  0.89977098339E+01 -0.20729243696E+01  0.94671361120E+01  0.00000000000E+00 0. -1.
</event>
<event>
 7    1  0.2835316E-011  0.5052893E+02  0.7816164E-02  0.1300439E+00
        -11   -1    0    0    0    0  0.00000000000E+00  0.00000000000E+00  0.45593999997E+02  0.45594000000E+02  0.51100000000E-03 0.  1.
         11   -1    0    0    0    0 -0.00000000000E+00 -0.00000000000E+00 -0.45593999997E+02  0.45594000000E+02  0.51100000000E-03 0. -1.
    9900012    2    1    2    0    0 -0.20145147229E+02 -0.12506272253E+02 -0.33029174109E+02  0.50528927890E+02  0.30000206815E+02 0.  0.
        -12    1    1    2    0    0  0.20145147229E+02  0.12506272253E+02  0.33029174109E+02  0.40659072110E+02  0.00000000000E+00 0.  1.
         11    1    3    3    0    0 -0.36109539081E+01  0.31615255668E+01  0.32407599224E+01  0.57910929168E+01  0.51100000000E-03 0. -1.
        -11    1    3    3    0    0 -0.39711762582E+01 -0.49271105813E+00 -0.67978605613E+00  0.40589548413E+01  0.51100000000E-03 0.  1.
         12    1    3    3    0    0 -0.12563017062E+02 -0.15175086762E+02 -0.35590147975E+02  0.40678880132E+02  0.00000000000E+00 0. -1.
</event>
<event>
 7    1  0.2835316E-011  0.5052888E+02  0.7816164E-02  0.1300439E+00
        -11   -1    0    0    0    0  0.00000000000E+00  0.00000000000E+00  0.45593999997E+02  0.45594000000E+02  0.51100000000E-03 0. -1.
         11   -1    0    0    0    0 -0.00000000000E+00 -0.00000000000E+00 -0.45593999997E+02  0.45594000000E+02  0.51100000000E-03 0.  1.
    9900012    2    1    2    0    0  0.31038943965E+02 -0.20600970312E+01 -0.26182127435E+02  0.50528882458E+02  0.30000068720E+02 0.  0.
        -12    1    1    2    0    0 -0.31038943965E+02  0.20600970312E+01  0.26182127435E+02  0.40659117542E+02  0.00000000000E+00 0.  1.
         11    1    3    3    0    0  0.26287256848E+02 -0.58737387463E+01 -0.11689188826E+02  0.29362523991E+02  0.51100000000E-03 0. -1.
        -11    1    3    3    0    0  0.14516009545E+01 -0.42083982473E+01 -0.21119203589E+00  0.44567211576E+01  0.51100000000E-03 0.  1.
        -12    1    3    3    0    0  0.33000861625E+01  0.80220399625E+01 -0.14281746573E+02  0.16709637310E+02  0.00000000000E+00 0.  1.
</event>
<event>
 7    1  0.2835316E-011  0.5052886E+02  0.7816164E-02  0.1300439E+00
        -11   -1    0    0    0    0  0.00000000000E+00  0.00000000000E+00  0.45593999997E+02  0.45594000000E+02  0.51100000000E-03 0.  1.
         11   -1    0    0    0    0 -0.00000000000E+00 -0.00000000000E+00 -0.45593999997E+02  0.45594000000E+02  0.51100000000E-03 0. -1.
    9900012    2    1    2    0    0  0.90354075445E+01  0.19680319537E+01 -0.39593612780E+02  0.50528856967E+02  0.29999991236E+02 0.  0.
        -12    1    1    2    0    0 -0.90354075445E+01 -0.19680319537E+01  0.39593612780E+02  0.40659143033E+02  0.00000000000E+00 0.  1.
         11    1    3    3    0    0  0.68418567436E+01  0.83474570038E+01 -0.94835550886E+01  0.14367632356E+02  0.51100000000E-03 0. -1.
        -11    1    3    3    0    0  0.10050799368E+02 -0.58952481062E+01 -0.13878317335E+02  0.18121264042E+02  0.51100000000E-03 0.  1.
         12    1    3    3    0    0 -0.78572485667E+01 -0.48417694387E+00 -0.16231740356E+02  0.18039960569E+02  0.00000000000E+00 0. -1.
</event>
<event>
 7    1  0.2835316E-011  0.5052886E+02  0.7816164E-02  0.1300439E+00
        -11   -1    0    0    0    0  0.00000000000E+00  0.00000000000E+00  0.45593999997E+02  0.45594000000E+02  0.51100000000E-03 0.  1.
         11   -1    0    0    0    0 -0.00000000000E+00 -0.00000000000E+00 -0.45593999997E+02  0.45594000000E+02  0.51100000000E-03 0. -1.
    9900012    2    1    2    0    0  0.33355466243E+02  0.27246545122E+01 -0.23090149678E+02  0.50528857330E+02  0.29999992340E+02 0.  0.
        -12    1    1    2    0    0 -0.33355466243E+02 -0.27246545122E+01  0.23090149678E+02  0.40659142670E+02  0.00000000000E+00 0.  1.
         11    1    3    3    0    0  0.21374733968E+02 -0.83123554293E+01 -0.21076009324E+02  0.31147595000E+02  0.51100000000E-03 0.  1.
        -11    1    3    3    0    0  0.53921711422E+01  0.72762070786E+01 -0.59486046665E+01  0.10835340180E+02  0.51100000000E-03 0. -1.
        -12    1    3    3    0    0  0.65885611326E+01  0.37608028628E+01  0.39344643120E+01  0.85459221500E+01  0.00000000000E+00 0.  1.
</event>
<event>
 7    1  0.2835316E-011  0.5052886E+02  0.7816164E-02  0.1300439E+00
        -11   -1    0    0    0    0  0.00000000000E+00  0.00000000000E+00  0.45593999997E+02  0.45594000000E+02  0.51100000000E-03 0.  1.
         11   -1    0    0    0    0 -0.00000000000E+00 -0.00000000000E+00 -0.45593999997E+02  0.45594000000E+02  0.51100000000E-03 0. -1.
    9900012    2    1    2    0    0  0.29575344407E+02 -0.15976965902E+01 -0.27855191631E+02  0.50528864102E+02  0.30000012924E+02 0.  0.
        -12    1    1    2    0    0 -0.29575344407E+02  0.15976965902E+01  0.27855191631E+02  0.40659135898E+02  0.00000000000E+00 0.  1.
         11    1    3    3    0    0  0.28589184658E+01 -0.84230953802E+01 -0.82170118773E+01  0.12109551397E+02  0.51100000000E-03 0. -1.
        -11    1    3    3    0    0  0.98656845756E+01  0.55297212594E+01 -0.18239132309E+02  0.21461022738E+02  0.51100000000E-03 0.  1.
        -12    1    3    3    0    0  0.16850741366E+02  0.12956775306E+01 -0.13990474454E+01  0.16958289966E+02  0.00000000000E+00 0.  1.
</event>
<event>
 7    1  0.2835316E-011  0.5052884E+02  0.7816164E-02  0.1300439E+00
        -11   -1    0    0    0    0  0.00000000000E+00  0.00000000000E+00  0.45593999997E+02  0.45594000000E+02  0.51100000000E-03 0.  1.
         11   -1    0    0    0    0 -0.00000000000E+00 -0.00000000000E+00 -0.45593999997E+02  0.45594000000E+02  0.51100000000E-03 0. -1.
    9900012    2    1    2    0    0  0.27433396404E+02 -0.29143725765E+02 -0.71567822926E+01  0.50528837164E+02  0.29999931043E+02 0.  0.
        -12    1    1    2    0    0 -0.27433396404E+02  0.29143725765E+02  0.71567822926E+01  0.40659162836E+02  0.00000000000E+00 0.  1.
         11    1    3    3    0    0  0.24008439128E+02 -0.26416124133E+02 -0.65669691896E+00  0.35702213022E+02  0.51100000000E-03 0. -1.
        -11    1    3    3    0    0 -0.27125971784E+01 -0.56034302174E+01 -0.47381076676E+01  0.78234441383E+01  0.51100000000E-03 0.  1.
         12    1    3    3    0    0  0.61375544542E+01  0.28758285847E+01 -0.17619777060E+01  0.70031800036E+01  0.00000000000E+00 0. -1.
</event>
<event>
 7    1  0.2835316E-011  0.5052887E+02  0.7816164E-02  0.1300439E+00
        -11   -1    0    0    0    0  0.00000000000E+00  0.00000000000E+00  0.45593999997E+02  0.45594000000E+02  0.51100000000E-03 0.  1.
         11   -1    0    0    0    0 -0.00000000000E+00 -0.00000000000E+00 -0.45593999997E+02  0.45594000000E+02  0.51100000000E-03 0. -1.
    9900012    2    1    2    0    0  0.29466554547E+02  0.26612599811E+02  0.87553925313E+01  0.50528865676E+02  0.30000017709E+02 0.  0.
        -12    1    1    2    0    0 -0.29466554547E+02 -0.26612599811E+02 -0.87553925313E+01  0.40659134324E+02  0.00000000000E+00 0.  1.
         11    1    3    3    0    0  0.11005948805E+02  0.97149460239E+01  0.53901693021E+01  0.15638574446E+02  0.51100000000E-03 0. -1.
        -11    1    3    3    0    0 -0.46385890667E+01 -0.79646562395E+00  0.33774981403E+01  0.57929577911E+01  0.51100000000E-03 0.  1.
         12    1    3    3    0    0  0.23099194810E+02  0.17694119411E+02 -0.12274911158E-01  0.29097333439E+02  0.00000000000E+00 0. -1.
</event>
<event>
 7    1  0.2835316E-011  0.5052886E+02  0.7816164E-02  0.1300439E+00
        -11   -1    0    0    0    0  0.00000000000E+00  0.00000000000E+00  0.45593999997E+02  0.45594000000E+02  0.51100000000E-03 0. -1.
         11   -1    0    0    0    0 -0.00000000000E+00 -0.00000000000E+00 -0.45593999997E+02  0.45594000000E+02  0.51100000000E-03 0.  1.
    9900012    2    1    2    0    0 -0.49706817895E+01 -0.30872890802E+02  0.25986969836E+02  0.50528860005E+02  0.30000000470E+02 0.  0.
        -12    1    1    2    0    0  0.49706817895E+01  0.30872890802E+02 -0.25986969836E+02  0.40659139995E+02  0.00000000000E+00 0.  1.
         11    1    3    3    0    0 -0.12106277998E+01 -0.14939570474E+01  0.17611691817E+02  0.17716354485E+02  0.51100000000E-03 0.  1.
        -11    1    3    3    0    0 -0.53262451187E+01 -0.15045138266E+02  0.91056239036E+01  0.18374913862E+02  0.51100000000E-03 0. -1.
        -12    1    3    3    0    0  0.15661911289E+01 -0.14333795489E+02 -0.73034588473E+00  0.14437591658E+02  0.00000000000E+00 0.  1.
</event>
<event>
 7    1  0.2835316E-011  0.5052887E+02  0.7816164E-02  0.1300439E+00
        -11   -1    0    0    0    0  0.00000000000E+00  0.00000000000E+00  0.45593999997E+02  0.45594000000E+02  0.51100000000E-03 0. -1.
         11   -1    0    0    0    0 -0.00000000000E+00 -0.00000000000E+00 -0.45593999997E+02  0.45594000000E+02  0.51100000000E-03 0.  1.
    9900012    2    1    2    0    0  0.40238020454E+02  0.63742379691E+00 -0.58017162885E+01  0.50528874197E+02  0.30000043608E+02 0.  0.
        -12    1    1    2    0    0 -0.40238020454E+02 -0.63742379691E+00  0.58017162885E+01  0.40659125803E+02  0.00000000000E+00 0.  1.
         11    1    3    3    0    0  0.22031325522E+02 -0.11832930674E+01  0.62698112961E+01  0.22936652343E+02  0.51100000000E-03 0. -1.
        -11    1    3    3    0    0  0.20326433297E+02  0.37355397951E+01 -0.70888480289E+01  0.21848796644E+02  0.51100000000E-03 0.  1.
         12    1    3    3    0    0 -0.21197383647E+01 -0.19148229308E+01 -0.49826795556E+01  0.57434252102E+01  0.00000000000E+00 0. -1.
</event>
<event>
 7    1  0.2835316E-011  0.5052883E+02  0.7816164E-02  0.1300439E+00
        -11   -1    0    0    0    0  0.00000000000E+00  0.00000000000E+00  0.45593999997E+02  0.45594000000E+02  0.51100000000E-03 0. -1.
         11   -1    0    0    0    0 -0.00000000000E+00 -0.00000000000E+00 -0.45593999997E+02  0.45594000000E+02  0.51100000000E-03 0.  1.
    9900012    2    1    2    0    0 -0.21355723438E+02 -0.29799694093E+02 -0.17580655166E+02  0.50528829722E+02  0.29999908424E+02 0.  0.
        -12    1    1    2    0    0  0.21355723438E+02  0.29799694093E+02  0.17580655166E+02  0.40659170278E+02  0.00000000000E+00 0.  1.
         11    1    3    3    0    0 -0.73812079718E+01 -0.51541559801E+01  0.36339187006E+01  0.97083943252E+01  0.51100000000E-03 0. -1.
        -11    1    3    3    0    0  0.38448415184E+01  0.15284451682E+00 -0.40880889850E+00  0.38695339157E+01  0.51100000000E-03 0.  1.
         12    1    3    3    0    0 -0.17819356984E+02 -0.24798382630E+02 -0.20805764968E+02  0.36950901482E+02  0.00000000000E+00 0. -1.
</event>
<event>
 7    1  0.2835316E-011  0.5052886E+02  0.7816164E-02  0.1300439E+00
        -11   -1    0    0    0    0  0.00000000000E+00  0.00000000000E+00  0.45593999997E+02  0.45594000000E+02  0.51100000000E-03 0.  1.
         11   -1    0    0    0    0 -0.00000000000E+00 -0.00000000000E+00 -0.45593999997E+02  0.45594000000E+02  0.51100000000E-03 0. -1.
    9900012    2    1    2    0    0 -0.38763191790E+01 -0.15526118914E+01 -0.40444149682E+02  0.50528859606E+02  0.29999999259E+02 0.  0.
        -12    1    1    2    0    0  0.38763191790E+01  0.15526118914E+01  0.40444149682E+02  0.40659140394E+02  0.00000000000E+00 0.  1.
         11    1    3    3    0    0  0.30407036561E+01  0.54795888018E+01 -0.52509102178E+01  0.81758076383E+01  0.51100000000E-03 0. -1.
        -11    1    3    3    0    0  0.56704891011E+01 -0.71104345708E+01 -0.23394767381E+02  0.25100355924E+02  0.51100000000E-03 0.  1.
        -12    1    3    3    0    0 -0.12587511936E+02  0.78233877567E-01 -0.11798472083E+02  0.17252696044E+02  0.00000000000E+00 0.  1.
</event>
<event>
 7    1  0.2835316E-011  0.5052887E+02  0.7816164E-02  0.1300439E+00
        -11   -1    0    0    0    0  0.00000000000E+00  0.00000000000E+00  0.45593999997E+02  0.45594000000E+02  0.51100000000E-03 0.  1.
         11   -1    0    0    0    0 -0.00000000000E+00 -0.00000000000E+00 -0.45593999997E+02  0.45594000000E+02  0.51100000000E-03 0. -1.
    9900012    2    1    2    0    0  0.29759977200E+01 -0.35010652672E+02 -0.20458796887E+02  0.50528871468E+02  0.30000035314E+02 0.  0.
        -12    1    1    2    0    0 -0.29759977200E+01  0.35010652672E+02  0.20458796887E+02  0.40659128532E+02  0.00000000000E+00 0.  1.
         11    1    3    3    0    0  0.81239596243E+01 -0.31973296651E+02 -0.99473420169E+01  0.34456349665E+02  0.51100000000E-03 0. -1.
        -11    1    3    3    0    0  0.14655424855E+01  0.29138633497E+01 -0.27833641148E+01  0.42878351710E+01  0.51100000000E-03 0.  1.
        -12    1    3    3    0    0 -0.66135043897E+01 -0.59512193699E+01 -0.77280907552E+01  0.11784686632E+02  0.00000000000E+00 0.  1.
</event>
<event>
 7    1  0.2835316E-011  0.5052886E+02  0.7816164E-02  0.1300439E+00
        -11   -1    0    0    0    0  0.00000000000E+00  0.00000000000E+00  0.45593999997E+02  0.45594000000E+02  0.51100000000E-03 0. -1.
         11   -1    0    0    0    0 -0.00000000000E+00 -0.00000000000E+00 -0.45593999997E+02  0.45594000000E+02  0.51100000000E-03 0.  1.
    9900012    2    1    2    0    0 -0.36120861222E+02  0.17116981728E+02  0.74469955194E+01  0.50528863006E+02  0.30000009592E+02 0.  0.
        -12    1    1    2    0    0  0.36120861222E+02 -0.17116981728E+02 -0.74469955194E+01  0.40659136994E+02  0.00000000000E+00 0.  1.
         11    1    3    3    0    0 -0.17742118830E+02  0.40404586298E+01  0.49495100453E+01  0.18857511407E+02  0.51100000000E-03 0. -1.
        -11    1    3    3    0    0 -0.19644343146E+02  0.16174677636E+01  0.37850221596E+01  0.20070944487E+02  0.51100000000E-03 0.  1.
        -12    1    3    3    0    0  0.12656007546E+01  0.11459055334E+02 -0.12875366855E+01  0.11600407111E+02  0.00000000000E+00 0.  1.
</event>
<event>
 7    1  0.2835316E-011  0.5052886E+02  0.7816164E-02  0.1300439E+00
        -11   -1    0    0    0    0  0.00000000000E+00  0.00000000000E+00  0.45593999997E+02  0.45594000000E+02  0.51100000000E-03 0.  1.
         11   -1    0    0    0    0 -0.00000000000E+00 -0.00000000000E+00 -0.45593999997E+02  0.45594000000E+02  0.51100000000E-03 0. -1.
    9900012    2    1    2    0    0  0.71417040490E+01 -0.30369434330E+02 -0.26074109383E+02  0.50528860088E+02  0.30000000724E+02 0.  0.
        -12    1    1    2    0    0 -0.71417040490E+01  0.30369434330E+02  0.26074109383E+02  0.40659139912E+02  0.00000000000E+00 0.  1.
         11    1    3    3    0    0  0.90634164026E+01 -0.19517040867E+02 -0.11289359954E+01  0.21548431447E+02  0.51100000000E-03 0. -1.
        -11    1    3    3    0    0 -0.20279802518E+01  0.13350817530E+01 -0.28270651004E+01  0.37265861766E+01  0.51100000000E-03 0.  1.
        -12    1    3    3    0    0  0.10626789809E+00 -0.12187475216E+02 -0.22118108287E+02  0.25253842464E+02  0.00000000000E+00 0.  1.
</event>
<event>
 7    1  0.2835316E-011  0.5052886E+02  0.7816164E-02  0.1300439E+00
        -11   -1    0    0    0    0  0.00000000000E+00  0.00000000000E+00  0.45593999997E+02  0.45594000000E+02  0.51100000000E-03 0.  1.
         11   -1    0    0    0    0 -0.00000000000E+00 -0.00000000000E+00 -0.45593999997E+02  0.45594000000E+02  0.51100000000E-03 0. -1.
    9900012    2    1    2    0    0 -0.20412811057E+01 -0.97880616823E+01 -0.39410561693E+02  0.50528863843E+02  0.30000012138E+02 0.  0.
        -12    1    1    2    0    0  0.20412811057E+01  0.97880616823E+01  0.39410561693E+02  0.40659136157E+02  0.00000000000E+00 0.  1.
         11    1    3    3    0    0 -0.87926388767E+01 -0.11417854172E+01 -0.93089824684E+01  0.12855789638E+02  0.51100000000E-03 0. -1.
        -11    1    3    3    0    0  0.51861381300E+00 -0.12563953153E+02 -0.26802967697E+02  0.29606096615E+02  0.51100000000E-03 0.  1.
        -12    1    3    3    0    0  0.62327439580E+01  0.39176768877E+01 -0.32986115274E+01  0.80669775908E+01  0.00000000000E+00 0.  1.
</event>
<event>
 7    1  0.2835316E-011  0.5052886E+02  0.7816164E-02  0.1300439E+00
        -11   -1    0    0    0    0  0.00000000000E+00  0.00000000000E+00  0.45593999997E+02  0.45594000000E+02  0.51100000000E-03 0.  1.
         11   -1    0    0    0    0 -0.00000000000E+00 -0.00000000000E+00 -0.45593999997E+02  0.45594000000E+02  0.51100000000E-03 0. -1.
    9900012    2    1    2    0    0 -0.37969950597E+02  0.10152442352E+02 -0.10410404187E+02  0.50528858968E+02  0.29999997320E+02 0.  0.
        -12    1    1    2    0    0  0.37969950597E+02 -0.10152442352E+02  0.10410404187E+02  0.40659141032E+02  0.00000000000E+00 0.  1.
         11    1    3    3    0    0 -0.38024866432E+01 -0.24810447793E+01 -0.37763245703E+01  0.59055156752E+01  0.51100000000E-03 0. -1.
        -11    1    3    3    0    0 -0.68864873787E+01  0.15196521115E+02 -0.34593987584E+01  0.17038937832E+02  0.51100000000E-03 0.  1.
         12    1    3    3    0    0 -0.27280976575E+02 -0.25630339829E+01 -0.31746808586E+01  0.27584405462E+02  0.00000000000E+00 0. -1.
</event>
<event>
 7    1  0.2835316E-011  0.5052887E+02  0.7816164E-02  0.1300439E+00
        -11   -1    0    0    0    0  0.00000000000E+00  0.00000000000E+00  0.45593999997E+02  0.45594000000E+02  0.51100000000E-03 0. -1.
         11   -1    0    0    0    0 -0.00000000000E+00 -0.00000000000E+00 -0.45593999997E+02  0.45594000000E+02  0.51100000000E-03 0.  1.
    9900012    2    1    2    0    0  0.38288136957E+02 -0.13607327025E+02 -0.14226286238E+01  0.50528872456E+02  0.30000038318E+02 0.  0.
        -12    1    1    2    0    0 -0.38288136957E+02  0.13607327025E+02  0.14226286238E+01  0.40659127544E+02  0.00000000000E+00 0.  1.
         11    1    3    3    0    0  0.19014298597E+02 -0.41008207379E+01  0.92673209243E+01  0.21546311036E+02  0.51100000000E-03 0. -1.
        -11    1    3    3    0    0 -0.24340064781E+01  0.12030057833E+01 -0.76329555781E+00  0.28203245948E+01  0.51100000000E-03 0.  1.
         12    1    3    3    0    0  0.21707844838E+02 -0.10709512071E+02 -0.99266539903E+01  0.26162236826E+02  0.00000000000E+00 0. -1.
</event>
<event>
 7    1  0.2835316E-011  0.5052893E+02  0.7816164E-02  0.1300439E+00
        -11   -1    0    0    0    0  0.00000000000E+00  0.00000000000E+00  0.45593999997E+02  0.45594000000E+02  0.51100000000E-03 0.  1.
         11   -1    0    0    0    0 -0.00000000000E+00 -0.00000000000E+00 -0.45593999997E+02  0.45594000000E+02  0.51100000000E-03 0. -1.
    9900012    2    1    2    0    0 -0.11052969635E+01 -0.22460920562E+02 -0.33873963409E+02  0.50528929291E+02  0.30000211072E+02 0.  0.
        -12    1    1    2    0    0  0.11052969635E+01  0.22460920562E+02  0.33873963409E+02  0.40659070709E+02  0.00000000000E+00 0.  1.
         11    1    3    3    0    0 -0.38456933190E+01 -0.24048163049E+02 -0.29753133767E+02  0.38449349440E+02  0.51100000000E-03 0. -1.
        -11    1    3    3    0    0 -0.34335864945E+01 -0.21699265739E+01 -0.86564497601E+00  0.41530036163E+01  0.51100000000E-03 0.  1.
         12    1    3    3    0    0  0.61739828501E+01  0.37571690615E+01 -0.32551846658E+01  0.79265762343E+01  0.00000000000E+00 0. -1.
</event>
<event>
 7    1  0.2835316E-011  0.5052886E+02  0.7816164E-02  0.1300439E+00
        -11   -1    0    0    0    0  0.00000000000E+00  0.00000000000E+00  0.45593999997E+02  0.45594000000E+02  0.51100000000E-03 0.  1.
         11   -1    0    0    0    0 -0.00000000000E+00 -0.00000000000E+00 -0.45593999997E+02  0.45594000000E+02  0.51100000000E-03 0. -1.
    9900012    2    1    2    0    0  0.53109792965E+01 -0.35580304453E+02 -0.18947334515E+02  0.50528855256E+02  0.29999986036E+02 0.  0.
        -12    1    1    2    0    0 -0.53109792965E+01  0.35580304453E+02  0.18947334515E+02  0.40659144744E+02  0.00000000000E+00 0.  1.
         11    1    3    3    0    0 -0.18701104340E+01 -0.73019806122E+00 -0.18304900953E+01  0.27168357503E+01  0.51100000000E-03 0. -1.
        -11    1    3    3    0    0  0.51298243443E+00 -0.31561992011E+02 -0.28128514208E+01  0.31691238916E+02  0.51100000000E-03 0.  1.
        -12    1    3    3    0    0  0.66681072961E+01 -0.32881143814E+01 -0.14303992999E+02  0.16120780590E+02  0.00000000000E+00 0.  1.
</event>
<event>
 7    1  0.2835316E-011  0.5052885E+02  0.7816164E-02  0.1300439E+00
        -11   -1    0    0    0    0  0.00000000000E+00  0.00000000000E+00  0.45593999997E+02  0.45594000000E+02  0.51100000000E-03 0.  1.
         11   -1    0    0    0    0 -0.00000000000E+00 -0.00000000000E+00 -0.45593999997E+02  0.45594000000E+02  0.51100000000E-03 0. -1.
    9900012    2    1    2    0    0  0.21361432702E+02 -0.19257243415E+02 -0.28740468783E+02  0.50528846334E+02  0.29999958915E+02 0.  0.
        -12    1    1    2    0    0 -0.21361432702E+02  0.19257243415E+02  0.28740468783E+02  0.40659153666E+02  0.00000000000E+00 0.  1.
         11    1    3    3    0    0  0.12029683278E+02 -0.12667902481E+02 -0.15519423077E+02  0.23367531447E+02  0.51100000000E-03 0. -1.
        -11    1    3    3    0    0  0.11333834909E+02  0.40485048841E+01 -0.10567547840E+02  0.16016219065E+02  0.51100000000E-03 0.  1.
        -12    1    3    3    0    0 -0.20020854857E+01 -0.10637845817E+02 -0.26534978670E+01  0.11145095821E+02  0.00000000000E+00 0.  1.
</event>
<event>
 7    1  0.2835316E-011  0.5052887E+02  0.7816164E-02  0.1300439E+00
        -11   -1    0    0    0    0  0.00000000000E+00  0.00000000000E+00  0.45593999997E+02  0.45594000000E+02  0.51100000000E-03 0.  1.
         11   -1    0    0    0    0 -0.00000000000E+00 -0.00000000000E+00 -0.45593999997E+02  0.45594000000E+02  0.51100000000E-03 0. -1.
    9900012    2    1    2    0    0  0.29726511601E+02 -0.14684840864E+02 -0.23534118143E+02  0.50528871137E+02  0.30000034307E+02 0.  0.
        -12    1    1    2    0    0 -0.29726511601E+02  0.14684840864E+02  0.23534118143E+02  0.40659128863E+02  0.00000000000E+00 0.  1.
         11    1    3    3    0    0  0.13626609964E+02  0.34019719320E+01 -0.14393798906E+02  0.20110677744E+02  0.51100000000E-03 0. -1.
        -11    1    3    3    0    0  0.10411459509E+00  0.18900674578E+01  0.17757870888E+01  0.25954989674E+01  0.51100000000E-03 0.  1.
        -12    1    3    3    0    0  0.15995787042E+02 -0.19976880253E+02 -0.10916106326E+02  0.27822694425E+02  0.00000000000E+00 0.  1.
</event>
<event>
 7    1  0.2835316E-011  0.5052885E+02  0.7816164E-02  0.1300439E+00
        -11   -1    0    0    0    0  0.00000000000E+00  0.00000000000E+00  0.45593999997E+02  0.45594000000E+02  0.51100000000E-03 0.  1.
         11   -1    0    0    0    0 -0.00000000000E+00 -0.00000000000E+00 -0.45593999997E+02  0.45594000000E+02  0.51100000000E-03 0. -1.
    9900012    2    1    2    0    0 -0.29826217207E+02  0.26580368451E+02 -0.75529884383E+01  0.50528845382E+02  0.29999956023E+02 0.  0.
        -12    1    1    2    0    0  0.29826217207E+02 -0.26580368451E+02  0.75529884383E+01  0.40659154618E+02  0.00000000000E+00 0.  1.
         11    1    3    3    0    0 -0.26806028648E+02  0.19908380397E+02 -0.12793514096E+02  0.35757248008E+02  0.51100000000E-03 0. -1.
        -11    1    3    3    0    0 -0.29609041235E+01  0.82151202562E+01 -0.57809857824E+00  0.87515342815E+01  0.51100000000E-03 0.  1.
         12    1    3    3    0    0 -0.59284435700E-01 -0.15431322023E+01  0.58186242360E+01  0.60200630925E+01  0.00000000000E+00 0. -1.
</event>
<event>
 7    1  0.2835316E-011  0.5052886E+02  0.7816164E-02  0.1300439E+00
        -11   -1    0    0    0    0  0.00000000000E+00  0.00000000000E+00  0.45593999997E+02  0.45594000000E+02  0.51100000000E-03 0.  1.
         11   -1    0    0    0    0 -0.00000000000E+00 -0.00000000000E+00 -0.45593999997E+02  0.45594000000E+02  0.51100000000E-03 0. -1.
    9900012    2    1    2    0    0 -0.17828297571E+02 -0.17103850604E+02 -0.32292043353E+02  0.50528856334E+02  0.29999989312E+02 0.  0.
        -12    1    1    2    0    0  0.17828297571E+02  0.17103850604E+02  0.32292043353E+02  0.40659143666E+02  0.00000000000E+00 0.  1.
         11    1    3    3    0    0 -0.33988165609E+00 -0.13417618215E+02 -0.33088670407E+01  0.13823769365E+02  0.51100000000E-03 0. -1.
        -11    1    3    3    0    0 -0.57293776665E+01 -0.76364282145E+01 -0.16770213306E+02  0.19297172303E+02  0.51100000000E-03 0.  1.
        -12    1    3    3    0    0 -0.11759038248E+02  0.39501958257E+01 -0.12212963007E+02  0.17407914665E+02  0.00000000000E+00 0.  1.
</event>
<event>
 7    1  0.2835316E-011  0.5052888E+02  0.7816164E-02  0.1300439E+00
        -11   -1    0    0    0    0  0.00000000000E+00  0.00000000000E+00  0.45593999997E+02  0.45594000000E+02  0.51100000000E-03 0.  1.
         11   -1    0    0    0    0 -0.00000000000E+00 -0.00000000000E+00 -0.45593999997E+02  0.45594000000E+02  0.51100000000E-03 0. -1.
    9900012    2    1    2    0    0  0.38040728839E+02 -0.80221501680E+01 -0.11904291213E+02  0.50528879335E+02  0.30000059228E+02 0.  0.
        -12    1    1    2    0    0 -0.38040728839E+02  0.80221501680E+01  0.11904291213E+02  0.40659120665E+02  0.00000000000E+00 0.  1.
         11    1    3    3    0    0  0.20817029198E+01  0.50653680520E+01  0.18897234753E+01  0.57933147354E+01  0.51100000000E-03 0.  1.
        -11    1    3    3    0    0  0.23611774547E+02 -0.14261933599E+01 -0.13730626285E+01  0.23694624411E+02  0.51100000000E-03 0. -1.
        -12    1    3    3    0    0  0.12347251373E+02 -0.11661324860E+02 -0.12420952060E+02  0.21040940189E+02  0.00000000000E+00 0.  1.
</event>
<event>
 7    1  0.2835316E-011  0.5052886E+02  0.7816164E-02  0.1300439E+00
        -11   -1    0    0    0    0  0.00000000000E+00  0.00000000000E+00  0.45593999997E+02  0.45594000000E+02  0.51100000000E-03 0. -1.
         11   -1    0    0    0    0 -0.00000000000E+00 -0.00000000000E+00 -0.45593999997E+02  0.45594000000E+02  0.51100000000E-03 0.  1.
    9900012    2    1    2    0    0  0.17570291019E+01 -0.51082495649E+01  0.40298685264E+02  0.50528863279E+02  0.30000010423E+02 0.  0.
        -12    1    1    2    0    0 -0.17570291019E+01  0.51082495649E+01 -0.40298685264E+02  0.40659136721E+02  0.00000000000E+00 0.  1.
         11    1    3    3    0    0 -0.50084903014E+01 -0.11792974952E+01  0.11472068580E+02  0.12573148987E+02  0.51100000000E-03 0.  1.
        -11    1    3    3    0    0  0.69756764817E+01 -0.49089041473E+01  0.32782922830E+02  0.33874436258E+02  0.51100000000E-03 0. -1.
         12    1    3    3    0    0 -0.21015707834E+00  0.97995207755E+00 -0.39563061454E+01  0.40812780337E+01  0.00000000000E+00 0. -1.
</event>
<event>
 7    1  0.2835316E-011  0.5052886E+02  0.7816164E-02  0.1300439E+00
        -11   -1    0    0    0    0  0.00000000000E+00  0.00000000000E+00  0.45593999997E+02  0.45594000000E+02  0.51100000000E-03 0.  1.
         11   -1    0    0    0    0 -0.00000000000E+00 -0.00000000000E+00 -0.45593999997E+02  0.45594000000E+02  0.51100000000E-03 0. -1.
    9900012    2    1    2    0    0  0.35725700142E+01 -0.10821441431E+02 -0.39029456668E+02  0.50528864016E+02  0.30000012663E+02 0.  0.
        -12    1    1    2    0    0 -0.35725700142E+01  0.10821441431E+02  0.39029456668E+02  0.40659135984E+02  0.00000000000E+00 0.  1.
         11    1    3    3    0    0 -0.42563789792E+00  0.15508061018E+01  0.17138657209E+01  0.23502134278E+01  0.51100000000E-03 0. -1.
        -11    1    3    3    0    0 -0.89612252837E+01 -0.49074813342E+01 -0.11867151585E+02  0.15659381170E+02  0.51100000000E-03 0.  1.
         12    1    3    3    0    0  0.12959433196E+02 -0.74647661986E+01 -0.28876170805E+02  0.32519269418E+02  0.00000000000E+00 0. -1.
</event>
<event>
 7    1  0.2835316E-011  0.5052889E+02  0.7816164E-02  0.1300439E+00
        -11   -1    0    0    0    0  0.00000000000E+00  0.00000000000E+00  0.45593999997E+02  0.45594000000E+02  0.51100000000E-03 0. -1.
         11   -1    0    0    0    0 -0.00000000000E+00 -0.00000000000E+00 -0.45593999997E+02  0.45594000000E+02  0.51100000000E-03 0.  1.
    9900012    2    1    2    0    0  0.59300528597E+01  0.14358540313E+01  0.40198711095E+02  0.50528885678E+02  0.30000078508E+02 0.  0.
        -12    1    1    2    0    0 -0.59300528597E+01 -0.14358540313E+01 -0.40198711095E+02  0.40659114322E+02  0.00000000000E+00 0.  1.
         11    1    3    3    0    0  0.12227372444E+01  0.12334822620E+02  0.94908813175E+01  0.15611526635E+02  0.51100000000E-03 0. -1.
        -11    1    3    3    0    0  0.62088848775E+01 -0.81197828628E+00  0.93982515775E+01  0.11293214473E+02  0.51100000000E-03 0.  1.
        -12    1    3    3    0    0 -0.15015692622E+01 -0.10086990302E+02  0.21309578200E+02  0.23624144570E+02  0.00000000000E+00 0.  1.
</event>
<event>
 7    1  0.2835316E-011  0.5052886E+02  0.7816164E-02  0.1300439E+00
        -11   -1    0    0    0    0  0.00000000000E+00  0.00000000000E+00  0.45593999997E+02  0.45594000000E+02  0.51100000000E-03 0.  1.
         11   -1    0    0    0    0 -0.00000000000E+00 -0.00000000000E+00 -0.45593999997E+02  0.45594000000E+02  0.51100000000E-03 0. -1.
    9900012    2    1    2    0    0  0.11962292428E+02 -0.35571883722E+02 -0.15643213887E+02  0.50528862129E+02  0.30000006928E+02 0.  0.
        -12    1    1    2    0    0 -0.11962292428E+02  0.35571883722E+02  0.15643213887E+02  0.40659137871E+02  0.00000000000E+00 0.  1.
         11    1    3    3    0    0 -0.40502728270E+01 -0.29039474486E+02 -0.12913334863E+02  0.32038258473E+02  0.51100000000E-03 0.  1.
        -11    1    3    3    0    0  0.34754324997E+01  0.39526233673E+00 -0.22494474838E+01  0.41587110525E+01  0.51100000000E-03 0. -1.
        -12    1    3    3    0    0  0.12537132755E+02 -0.69276715727E+01 -0.48043154029E+00  0.14331892604E+02  0.00000000000E+00 0.  1.
</event>
<event>
 7    1  0.2835316E-011  0.5052886E+02  0.7816164E-02  0.1300439E+00
        -11   -1    0    0    0    0  0.00000000000E+00  0.00000000000E+00  0.45593999997E+02  0.45594000000E+02  0.51100000000E-03 0. -1.
         11   -1    0    0    0    0 -0.00000000000E+00 -0.00000000000E+00 -0.45593999997E+02  0.45594000000E+02  0.51100000000E-03 0.  1.
    9900012    2    1    2    0    0  0.19492023604E+02  0.34260378380E+02 -0.99726326793E+01  0.50528856952E+02  0.29999991190E+02 0.  0.
        -12    1    1    2    0    0 -0.19492023604E+02 -0.34260378380E+02  0.99726326793E+01  0.40659143048E+02  0.00000000000E+00 0.  1.
         11    1    3    3    0    0  0.36222450890E+00  0.78797822377E+01  0.48234436097E+01  0.92459603733E+01  0.51100000000E-03 0. -1.
        -11    1    3    3    0    0  0.67308925968E+01  0.19106711103E+02 -0.17363032499E+02  0.26680446438E+02  0.51100000000E-03 0.  1.
         12    1    3    3    0    0  0.12398906498E+02  0.72738850391E+01  0.25669562100E+01  0.14602450140E+02  0.00000000000E+00 0. -1.
</event>
<event>
 7    1  0.2835316E-011  0.5052875E+02  0.7816164E-02  0.1300439E+00
        -11   -1    0    0    0    0  0.00000000000E+00  0.00000000000E+00  0.45593999997E+02  0.45594000000E+02  0.51100000000E-03 0.  1.
         11   -1    0    0    0    0 -0.00000000000E+00 -0.00000000000E+00 -0.45593999997E+02  0.45594000000E+02  0.51100000000E-03 0. -1.
    9900012    2    1    2    0    0 -0.25837797262E+02 -0.23475350615E+02 -0.20844437782E+02  0.50528752094E+02  0.29999672462E+02 0.  0.
        -12    1    1    2    0    0  0.25837797262E+02  0.23475350615E+02  0.20844437782E+02  0.40659247906E+02  0.00000000000E+00 0.  1.
         11    1    3    3    0    0 -0.50099911492E+00 -0.17529934244E+02 -0.75335001428E+00  0.17553265543E+02  0.51100000000E-03 0. -1.
        -11    1    3    3    0    0 -0.86983811104E+01 -0.32812791978E+01 -0.72944112416E+01  0.11816812715E+02  0.51100000000E-03 0.  1.
        -12    1    3    3    0    0 -0.16638417037E+02 -0.26641371727E+01 -0.12796676526E+02  0.21158673836E+02  0.00000000000E+00 0.  1.
</event>
<event>
 7    1  0.2835316E-011  0.5052885E+02  0.7816164E-02  0.1300439E+00
        -11   -1    0    0    0    0  0.00000000000E+00  0.00000000000E+00  0.45593999997E+02  0.45594000000E+02  0.51100000000E-03 0.  1.
         11   -1    0    0    0    0 -0.00000000000E+00 -0.00000000000E+00 -0.45593999997E+02  0.45594000000E+02  0.51100000000E-03 0. -1.
    9900012    2    1    2    0    0  0.21724204939E+02  0.18630401842E+01 -0.34318424331E+02  0.50528852843E+02  0.29999978701E+02 0.  0.
        -12    1    1    2    0    0 -0.21724204939E+02 -0.18630401842E+01  0.34318424331E+02  0.40659147157E+02  0.00000000000E+00 0.  1.
         11    1    3    3    0    0  0.11263051038E+02  0.13221235474E+01 -0.22948936562E+02  0.25598008105E+02  0.51100000000E-03 0. -1.
        -11    1    3    3    0    0  0.37636999696E+01  0.51451890107E+01 -0.14795818440E+02  0.16110699891E+02  0.51100000000E-03 0.  1.
        -12    1    3    3    0    0  0.66974539315E+01 -0.46042723739E+01  0.34263306700E+01  0.88201448468E+01  0.00000000000E+00 0.  1.
</event>
<event>
 7    1  0.2835316E-011  0.5052886E+02  0.7816164E-02  0.1300439E+00
        -11   -1    0    0    0    0  0.00000000000E+00  0.00000000000E+00  0.45593999997E+02  0.45594000000E+02  0.51100000000E-03 0.  1.
         11   -1    0    0    0    0 -0.00000000000E+00 -0.00000000000E+00 -0.45593999997E+02  0.45594000000E+02  0.51100000000E-03 0. -1.
    9900012    2    1    2    0    0 -0.30091877396E+02  0.18364870003E+02 -0.20257741362E+02  0.50528860553E+02  0.30000002137E+02 0.  0.
        -12    1    1    2    0    0  0.30091877396E+02 -0.18364870003E+02  0.20257741362E+02  0.40659139447E+02  0.00000000000E+00 0.  1.
         11    1    3    3    0    0 -0.20397386787E+02  0.11358070451E+02 -0.12514840654E+02  0.26489250442E+02  0.51100000000E-03 0. -1.
        -11    1    3    3    0    0 -0.15543723750E+02  0.48438742583E+01 -0.39958712519E+01  0.16764171712E+02  0.51100000000E-03 0.  1.
        -12    1    3    3    0    0  0.58492331409E+01  0.21629252938E+01 -0.37470294558E+01  0.72754383995E+01  0.00000000000E+00 0.  1.
</event>
<event>
 7    1  0.2835316E-011  0.5052886E+02  0.7816164E-02  0.1300439E+00
        -11   -1    0    0    0    0  0.00000000000E+00  0.00000000000E+00  0.45593999997E+02  0.45594000000E+02  0.51100000000E-03 0.  1.
         11   -1    0    0    0    0 -0.00000000000E+00 -0.00000000000E+00 -0.45593999997E+02  0.45594000000E+02  0.51100000000E-03 0. -1.
    9900012    2    1    2    0    0 -0.60094775398E+01  0.20393782115E+02 -0.34657547834E+02  0.50528858456E+02  0.29999995762E+02 0.  0.
        -12    1    1    2    0    0  0.60094775398E+01 -0.20393782115E+02  0.34657547834E+02  0.40659141544E+02  0.00000000000E+00 0.  1.
         11    1    3    3    0    0  0.38214095048E+01  0.12394643928E+02 -0.20625208825E+02  0.24364515346E+02  0.51100000000E-03 0. -1.
        -11    1    3    3    0    0 -0.91743243543E+01 -0.40166271406E+01 -0.71028251085E+01  0.12278096177E+02  0.51100000000E-03 0.  1.
         12    1    3    3    0    0 -0.65656269028E+00  0.12015765328E+02 -0.69295139001E+01  0.13886246933E+02  0.00000000000E+00 0. -1.
</event>
<event>
 7    1  0.2835316E-011  0.5052887E+02  0.7816164E-02  0.1300439E+00
        -11   -1    0    0    0    0  0.00000000000E+00  0.00000000000E+00  0.45593999997E+02  0.45594000000E+02  0.51100000000E-03 0.  1.
         11   -1    0    0    0    0 -0.00000000000E+00 -0.00000000000E+00 -0.45593999997E+02  0.45594000000E+02  0.51100000000E-03 0. -1.
    9900012    2    1    2    0    0 -0.10499271151E+02 -0.20563248761E+01 -0.39226287650E+02  0.50528870528E+02  0.30000032455E+02 0.  0.
        -12    1    1    2    0    0  0.10499271151E+02  0.20563248761E+01  0.39226287650E+02  0.40659129472E+02  0.00000000000E+00 0.  1.
         11    1    3    3    0    0 -0.46860967608E+01 -0.36196518618E+01 -0.31638474721E+02  0.32187799946E+02  0.51100000000E-03 0. -1.
        -11    1    3    3    0    0 -0.83815210696E+01 -0.25091766704E+01 -0.97180104682E+01  0.13076145867E+02  0.51100000000E-03 0.  1.
        -12    1    3    3    0    0  0.25683466797E+01  0.40725036561E+01  0.21301975394E+01  0.52649247148E+01  0.00000000000E+00 0.  1.
</event>
<event>
 7    1  0.2835316E-011  0.5052886E+02  0.7816164E-02  0.1300439E+00
        -11   -1    0    0    0    0  0.00000000000E+00  0.00000000000E+00  0.45593999997E+02  0.45594000000E+02  0.51100000000E-03 0.  1.
         11   -1    0    0    0    0 -0.00000000000E+00 -0.00000000000E+00 -0.45593999997E+02  0.45594000000E+02  0.51100000000E-03 0. -1.
    9900012    2    1    2    0    0  0.40102114044E+01  0.21562311289E+02 -0.34236682324E+02  0.50528862280E+02  0.30000007386E+02 0.  0.
        -12    1    1    2    0    0 -0.40102114044E+01 -0.21562311289E+02  0.34236682324E+02  0.40659137720E+02  0.00000000000E+00 0.  1.
         11    1    3    3    0    0  0.71086654343E+00  0.13310032858E+00 -0.15346915245E+02  0.15363946588E+02  0.51100000000E-03 0. -1.
        -11    1    3    3    0    0  0.68903126841E+01 -0.65251382042E+00 -0.22302617635E+01  0.72716058038E+01  0.51100000000E-03 0.  1.
        -12    1    3    3    0    0 -0.35909678232E+01  0.22081724781E+02 -0.16659505315E+02  0.27893309888E+02  0.00000000000E+00 0.  1.
</event>
<event>
 7    1  0.2835316E-011  0.5052886E+02  0.7816164E-02  0.1300439E+00
        -11   -1    0    0    0    0  0.00000000000E+00  0.00000000000E+00  0.45593999997E+02  0.45594000000E+02  0.51100000000E-03 0.  1.
         11   -1    0    0    0    0 -0.00000000000E+00 -0.00000000000E+00 -0.45593999997E+02  0.45594000000E+02  0.51100000000E-03 0. -1.
    9900012    2    1    2    0    0 -0.19800760635E+01 -0.15199477732E+02 -0.37659271623E+02  0.50528861252E+02  0.30000004263E+02 0.  0.
        -12    1    1    2    0    0  0.19800760635E+01  0.15199477732E+02  0.37659271623E+02  0.40659138748E+02  0.00000000000E+00 0.  1.
         11    1    3    3    0    0  0.42188102286E+01  0.41659542070E+01 -0.89416084721E+01  0.10728741610E+02  0.51100000000E-03 0. -1.
        -11    1    3    3    0    0 -0.70196830672E+01  0.79402207251E+00 -0.49634133219E+01  0.86337647339E+01  0.51100000000E-03 0.  1.
        -12    1    3    3    0    0  0.82079677511E+00 -0.20159454011E+02 -0.23754249829E+02  0.31166354909E+02  0.00000000000E+00 0.  1.
</event>
<event>
 7    1  0.2835316E-011  0.5052886E+02  0.7816164E-02  0.1300439E+00
        -11   -1    0    0    0    0  0.00000000000E+00  0.00000000000E+00  0.45593999997E+02  0.45594000000E+02  0.51100000000E-03 0. -1.
         11   -1    0    0    0    0 -0.00000000000E+00 -0.00000000000E+00 -0.45593999997E+02  0.45594000000E+02  0.51100000000E-03 0.  1.
    9900012    2    1    2    0    0  0.34252251976E+02 -0.20833152410E+02  0.67770640970E+01  0.50528860775E+02  0.30000002812E+02 0.  0.
        -12    1    1    2    0    0 -0.34252251976E+02  0.20833152410E+02 -0.67770640970E+01  0.40659139225E+02  0.00000000000E+00 0.  1.
         11    1    3    3    0    0  0.16424379532E+02 -0.43460955864E+01  0.72399589581E+01  0.18467966749E+02  0.51100000000E-03 0. -1.
        -11    1    3    3    0    0  0.70177731932E+01  0.18659684720E+01 -0.66855169641E+01  0.98705175279E+01  0.51100000000E-03 0.  1.
        -12    1    3    3    0    0  0.10810099250E+02 -0.18353025295E+02  0.62226221031E+01  0.22190376498E+02  0.00000000000E+00 0.  1.
</event>
<event>
 7    1  0.2835316E-011  0.5052886E+02  0.7816164E-02  0.1300439E+00
        -11   -1    0    0    0    0  0.00000000000E+00  0.00000000000E+00  0.45593999997E+02  0.45594000000E+02  0.51100000000E-03 0. -1.
         11   -1    0    0    0    0 -0.00000000000E+00 -0.00000000000E+00 -0.45593999997E+02  0.45594000000E+02  0.51100000000E-03 0.  1.
    9900012    2    1    2    0    0  0.62835812191E+01 -0.26709682597E+02  0.30004578544E+02  0.50528864852E+02  0.30000015205E+02 0.  0.
        -12    1    1    2    0    0 -0.62835812191E+01  0.26709682597E+02 -0.30004578544E+02  0.40659135148E+02  0.00000000000E+00 0.  1.
         11    1    3    3    0    0 -0.61254755389E+01 -0.18814767846E+02  0.85014929156E+01  0.21535838078E+02  0.51100000000E-03 0. -1.
        -11    1    3    3    0    0 -0.11936891831E+01 -0.69039279440E+00  0.91581797883E+01  0.92614142210E+01  0.51100000000E-03 0.  1.
         12    1    3    3    0    0  0.13602745941E+02 -0.72045219568E+01  0.12344905840E+02  0.19731612553E+02  0.00000000000E+00 0. -1.
</event>
<event>
 7    1  0.2835316E-011  0.5052885E+02  0.7816164E-02  0.1300439E+00
        -11   -1    0    0    0    0  0.00000000000E+00  0.00000000000E+00  0.45593999997E+02  0.45594000000E+02  0.51100000000E-03 0. -1.
         11   -1    0    0    0    0 -0.00000000000E+00 -0.00000000000E+00 -0.45593999997E+02  0.45594000000E+02  0.51100000000E-03 0.  1.
    9900012    2    1    2    0    0 -0.35878628502E+02  0.32642451329E+01  0.18847688861E+02  0.50528847833E+02  0.29999963474E+02 0.  0.
        -12    1    1    2    0    0  0.35878628502E+02 -0.32642451329E+01 -0.18847688861E+02  0.40659152167E+02  0.00000000000E+00 0.  1.
         11    1    3    3    0    0 -0.22115005214E+02 -0.46549613533E+01  0.60444353210E+01  0.23393959037E+02  0.51100000000E-03 0. -1.
        -11    1    3    3    0    0 -0.10434816395E+01 -0.44374074366E+01  0.72279351492E+01  0.85453195068E+01  0.51100000000E-03 0.  1.
         12    1    3    3    0    0 -0.12720141649E+02  0.12356613923E+02  0.55753183910E+01  0.18589569289E+02  0.00000000000E+00 0. -1.
</event>
<event>
 7    1  0.2835316E-011  0.5052886E+02  0.7816164E-02  0.1300439E+00
        -11   -1    0    0    0    0  0.00000000000E+00  0.00000000000E+00  0.45593999997E+02  0.45594000000E+02  0.51100000000E-03 0. -1.
         11   -1    0    0    0    0 -0.00000000000E+00 -0.00000000000E+00 -0.45593999997E+02  0.45594000000E+02  0.51100000000E-03 0.  1.
    9900012    2    1    2    0    0  0.33551969632E+02  0.23110308658E+01  0.22849297769E+02  0.50528856644E+02  0.29999990256E+02 0.  0.
        -12    1    1    2    0    0 -0.33551969632E+02 -0.23110308658E+01 -0.22849297769E+02  0.40659143356E+02  0.00000000000E+00 0.  1.
         11    1    3    3    0    0  0.13187845532E+02  0.10106513286E+01  0.11889704254E+02  0.17784986741E+02  0.51100000000E-03 0. -1.
        -11    1    3    3    0    0  0.38248611542E+01  0.98071670053E+01 -0.10900823857E+01  0.10582928110E+02  0.51100000000E-03 0.  1.
         12    1    3    3    0    0  0.16539262947E+02 -0.85067874680E+01  0.12049675901E+02  0.22160941793E+02  0.00000000000E+00 0. -1.
</event>
<event>
 7    1  0.2835316E-011  0.5052884E+02  0.7816164E-02  0.1300439E+00
        -11   -1    0    0    0    0  0.00000000000E+00  0.00000000000E+00  0.45593999997E+02  0.45594000000E+02  0.51100000000E-03 0.  1.
         11   -1    0    0    0    0 -0.00000000000E+00 -0.00000000000E+00 -0.45593999997E+02  0.45594000000E+02  0.51100000000E-03 0. -1.
    9900012    2    1    2    0    0  0.39227852902E+02 -0.61678780642E+01 -0.87349824615E+01  0.50528842584E+02  0.29999947519E+02 0.  0.
        -12    1    1    2    0    0 -0.39227852902E+02  0.61678780642E+01  0.87349824615E+01  0.40659157416E+02  0.00000000000E+00 0.  1.
         11    1    3    3    0    0  0.83760171730E+01 -0.62586130653E+00 -0.36874862228E+01  0.91731630838E+01  0.51100000000E-03 0. -1.
        -11    1    3    3    0    0  0.14971687031E+02 -0.13400247487E+02  0.53752409153E+01  0.20799309134E+02  0.51100000000E-03 0.  1.
        -12    1    3    3    0    0  0.15880148698E+02  0.78582307297E+01 -0.10422737154E+02  0.20556370367E+02  0.00000000000E+00 0.  1.
</event>
<event>
 7    1  0.2835316E-011  0.5052886E+02  0.7816164E-02  0.1300439E+00
        -11   -1    0    0    0    0  0.00000000000E+00  0.00000000000E+00  0.45593999997E+02  0.45594000000E+02  0.51100000000E-03 0.  1.
         11   -1    0    0    0    0 -0.00000000000E+00 -0.00000000000E+00 -0.45593999997E+02  0.45594000000E+02  0.51100000000E-03 0. -1.
    9900012    2    1    2    0    0 -0.11515783530E+01 -0.40009909359E+02  0.71446725020E+01  0.50528864191E+02  0.30000013194E+02 0.  0.
        -12    1    1    2    0    0  0.11515783530E+01  0.40009909359E+02 -0.71446725020E+01  0.40659135809E+02  0.00000000000E+00 0.  1.
         11    1    3    3    0    0 -0.23239797203E+01 -0.10952661554E+02  0.87666793556E+01  0.14220279323E+02  0.51100000000E-03 0. -1.
        -11    1    3    3    0    0  0.52730007931E+01  0.66441117514E+00 -0.33044965969E+01  0.62582487641E+01  0.51100000000E-03 0.  1.
         12    1    3    3    0    0 -0.41005994257E+01 -0.29721658980E+02  0.16824897434E+01  0.30050336103E+02  0.00000000000E+00 0. -1.
</event>
<event>
 7    1  0.2835316E-011  0.5052886E+02  0.7816164E-02  0.1300439E+00
        -11   -1    0    0    0    0  0.00000000000E+00  0.00000000000E+00  0.45593999997E+02  0.45594000000E+02  0.51100000000E-03 0.  1.
         11   -1    0    0    0    0 -0.00000000000E+00 -0.00000000000E+00 -0.45593999997E+02  0.45594000000E+02  0.51100000000E-03 0. -1.
    9900012    2    1    2    0    0  0.89555486112E+01 -0.39273628114E+02  0.55268408901E+01  0.50528859743E+02  0.29999999676E+02 0.  0.
        -12    1    1    2    0    0 -0.89555486112E+01  0.39273628114E+02 -0.55268408901E+01  0.40659140257E+02  0.00000000000E+00 0.  1.
         11    1    3    3    0    0  0.12878455758E+02 -0.13989344752E+02  0.10698262901E+02  0.21817635497E+02  0.51100000000E-03 0.  1.
        -11    1    3    3    0    0 -0.91534362834E+00 -0.55050247704E+01 -0.66126576560E+01  0.86527679512E+01  0.51100000000E-03 0. -1.
        -12    1    3    3    0    0 -0.30075635184E+01 -0.19779258592E+02  0.14412356446E+01  0.20058456296E+02  0.00000000000E+00 0.  1.
</event>
<event>
 7    1  0.2835316E-011  0.5052887E+02  0.7816164E-02  0.1300439E+00
        -11   -1    0    0    0    0  0.00000000000E+00  0.00000000000E+00  0.45593999997E+02  0.45594000000E+02  0.51100000000E-03 0. -1.
         11   -1    0    0    0    0 -0.00000000000E+00 -0.00000000000E+00 -0.45593999997E+02  0.45594000000E+02  0.51100000000E-03 0.  1.
    9900012    2    1    2    0    0 -0.14471997605E+02 -0.36146874898E+02  0.11710230162E+02  0.50528871012E+02  0.30000033930E+02 0.  0.
        -12    1    1    2    0    0  0.14471997605E+02  0.36146874898E+02 -0.11710230162E+02  0.40659128988E+02  0.00000000000E+00 0.  1.
         11    1    3    3    0    0 -0.84532029161E+01  0.52623197571E+00  0.83610669457E+01  0.11901302465E+02  0.51100000000E-03 0. -1.
        -11    1    3    3    0    0 -0.60317982765E+01 -0.13651460939E+02  0.44669831057E+01  0.15578796954E+02  0.51100000000E-03 0.  1.
        -12    1    3    3    0    0  0.13003587906E-01 -0.23021645935E+02 -0.11178198893E+01  0.23048771593E+02  0.00000000000E+00 0.  1.
</event>
<event>
 7    1  0.2835316E-011  0.5052889E+02  0.7816164E-02  0.1300439E+00
        -11   -1    0    0    0    0  0.00000000000E+00  0.00000000000E+00  0.45593999997E+02  0.45594000000E+02  0.51100000000E-03 0. -1.
         11   -1    0    0    0    0 -0.00000000000E+00 -0.00000000000E+00 -0.45593999997E+02  0.45594000000E+02  0.51100000000E-03 0.  1.
    9900012    2    1    2    0    0  0.34969951979E+02 -0.83011357292E+01  0.19009387933E+02  0.50528890008E+02  0.30000091667E+02 0.  0.
        -12    1    1    2    0    0 -0.34969951979E+02  0.83011357292E+01 -0.19009387933E+02  0.40659109992E+02  0.00000000000E+00 0.  1.
         11    1    3    3    0    0  0.30009354545E+01 -0.30638383957E+01 -0.17050902919E+01  0.46151979894E+01  0.51100000000E-03 0. -1.
        -11    1    3    3    0    0  0.31279985759E+01  0.80620625265E+01  0.14507616113E+01  0.87684626239E+01  0.51100000000E-03 0.  1.
         12    1    3    3    0    0  0.28841017948E+02 -0.13299359860E+02  0.19263716613E+02  0.37145229394E+02  0.00000000000E+00 0. -1.
</event>
<event>
 7    1  0.2835316E-011  0.5052886E+02  0.7816164E-02  0.1300439E+00
        -11   -1    0    0    0    0  0.00000000000E+00  0.00000000000E+00  0.45593999997E+02  0.45594000000E+02  0.51100000000E-03 0. -1.
         11   -1    0    0    0    0 -0.00000000000E+00 -0.00000000000E+00 -0.45593999997E+02  0.45594000000E+02  0.51100000000E-03 0.  1.
    9900012    2    1    2    0    0  0.40211624653E+02  0.47264909747E+01 -0.37217020008E+01  0.50528861545E+02  0.30000005151E+02 0.  0.
        -12    1    1    2    0    0 -0.40211624653E+02 -0.47264909747E+01  0.37217020008E+01  0.40659138455E+02  0.00000000000E+00 0.  1.
         11    1    3    3    0    0  0.19500438335E+02  0.46540556661E+01  0.26222543893E+01  0.20218890864E+02  0.51100000000E-03 0. -1.
        -11    1    3    3    0    0  0.45204122864E+01  0.85897405676E+00  0.76288489767E+01  0.89090572250E+01  0.51100000000E-03 0.  1.
        -12    1    3    3    0    0  0.16190774031E+02 -0.78653874817E+00 -0.13972805367E+02  0.21400913456E+02  0.00000000000E+00 0.  1.
</event>
<event>
 7    1  0.2835316E-011  0.5052882E+02  0.7816164E-02  0.1300439E+00
        -11   -1    0    0    0    0  0.00000000000E+00  0.00000000000E+00  0.45593999997E+02  0.45594000000E+02  0.51100000000E-03 0.  1.
         11   -1    0    0    0    0 -0.00000000000E+00 -0.00000000000E+00 -0.45593999997E+02  0.45594000000E+02  0.51100000000E-03 0. -1.
    9900012    2    1    2    0    0  0.28299546355E+02  0.35237865897E+00 -0.29192131467E+02  0.50528818575E+02  0.29999874539E+02 0.  0.
        -12    1    1    2    0    0 -0.28299546355E+02 -0.35237865897E+00  0.29192131467E+02  0.40659181425E+02  0.00000000000E+00 0.  1.
         11    1    3    3    0    0  0.19393786076E+02  0.46340405304E+01 -0.21059836644E+02  0.29001896313E+02  0.51100000000E-03 0. -1.
        -11    1    3    3    0    0 -0.10334439144E+01 -0.22820751040E+01 -0.10764730827E+02  0.11052389024E+02  0.51100000000E-03 0.  1.
        -12    1    3    3    0    0  0.99392041936E+01 -0.19995867674E+01  0.26324360042E+01  0.10474533238E+02  0.00000000000E+00 0.  1.
</event>
<event>
 7    1  0.2835316E-011  0.5052886E+02  0.7816164E-02  0.1300439E+00
        -11   -1    0    0    0    0  0.00000000000E+00  0.00000000000E+00  0.45593999997E+02  0.45594000000E+02  0.51100000000E-03 0.  1.
         11   -1    0    0    0    0 -0.00000000000E+00 -0.00000000000E+00 -0.45593999997E+02  0.45594000000E+02  0.51100000000E-03 0. -1.
    9900012    2    1    2    0    0  0.34265484807E+02  0.21582331777E+02 -0.36393778182E+01  0.50528861238E+02  0.30000004219E+02 0.  0.
        -12    1    1    2    0    0 -0.34265484807E+02 -0.21582331777E+02  0.36393778182E+01  0.40659138762E+02  0.00000000000E+00 0.  1.
         11    1    3    3    0    0  0.18773379092E+02  0.22118081535E+00  0.66780036109E+01  0.19926977091E+02  0.51100000000E-03 0. -1.
        -11    1    3    3    0    0  0.41189374973E+01  0.10710315661E+02  0.73470904246E+00  0.11498534920E+02  0.51100000000E-03 0.  1.
        -12    1    3    3    0    0  0.11373168217E+02  0.10650835301E+02 -0.11052090472E+02  0.19103349227E+02  0.00000000000E+00 0.  1.
</event>
<event>
 7    1  0.2835316E-011  0.5052886E+02  0.7816164E-02  0.1300439E+00
        -11   -1    0    0    0    0  0.00000000000E+00  0.00000000000E+00  0.45593999997E+02  0.45594000000E+02  0.51100000000E-03 0.  1.
         11   -1    0    0    0    0 -0.00000000000E+00 -0.00000000000E+00 -0.45593999997E+02  0.45594000000E+02  0.51100000000E-03 0. -1.
    9900012    2    1    2    0    0  0.17417188147E+02 -0.45580448305E+01 -0.36455883184E+02  0.50528860383E+02  0.30000001621E+02 0.  0.
        -12    1    1    2    0    0 -0.17417188147E+02  0.45580448305E+01  0.36455883184E+02  0.40659139617E+02  0.00000000000E+00 0.  1.
         11    1    3    3    0    0  0.36648668383E+01  0.39089839133E+01 -0.11279999064E+02  0.12487985559E+02  0.51100000000E-03 0. -1.
        -11    1    3    3    0    0 -0.29436552241E+01 -0.97804705846E+01 -0.38279874099E+01  0.10907621134E+02  0.51100000000E-03 0.  1.
         12    1    3    3    0    0  0.16695976533E+02  0.13134418408E+01 -0.21347896710E+02  0.27133253690E+02  0.00000000000E+00 0. -1.
</event>
<event>
 7    1  0.2835316E-011  0.5052886E+02  0.7816164E-02  0.1300439E+00
        -11   -1    0    0    0    0  0.00000000000E+00  0.00000000000E+00  0.45593999997E+02  0.45594000000E+02  0.51100000000E-03 0.  1.
         11   -1    0    0    0    0 -0.00000000000E+00 -0.00000000000E+00 -0.45593999997E+02  0.45594000000E+02  0.51100000000E-03 0. -1.
    9900012    2    1    2    0    0 -0.39921075265E+02 -0.76716453638E+01 -0.78695939838E+00  0.50528859601E+02  0.29999999242E+02 0.  0.
        -12    1    1    2    0    0  0.39921075265E+02  0.76716453638E+01  0.78695939838E+00  0.40659140399E+02  0.00000000000E+00 0.  1.
         11    1    3    3    0    0 -0.82113079727E+01 -0.12658118052E+02 -0.19509041207E+01  0.15213795003E+02  0.51100000000E-03 0. -1.
        -11    1    3    3    0    0  0.69949079678E+00 -0.20170315766E+01 -0.50798696106E-01  0.21354822697E+01  0.51100000000E-03 0.  1.
         12    1    3    3    0    0 -0.32409258089E+02  0.70035042650E+01  0.12147434185E+01  0.33179582328E+02  0.00000000000E+00 0. -1.
</event>
<event>
 7    1  0.2835316E-011  0.5052895E+02  0.7816164E-02  0.1300438E+00
        -11   -1    0    0    0    0  0.00000000000E+00  0.00000000000E+00  0.45593999997E+02  0.45594000000E+02  0.51100000000E-03 0. -1.
         11   -1    0    0    0    0 -0.00000000000E+00 -0.00000000000E+00 -0.45593999997E+02  0.45594000000E+02  0.51100000000E-03 0.  1.
    9900012    2    1    2    0    0  0.30650128664E+02  0.12812373379E+01  0.26684941548E+02  0.50528953508E+02  0.30000284680E+02 0.  0.
        -12    1    1    2    0    0 -0.30650128664E+02 -0.12812373379E+01 -0.26684941548E+02  0.40659046492E+02  0.00000000000E+00 0.  1.
         11    1    3    3    0    0  0.21346176060E+02 -0.58178671817E+01  0.97222261613E+01  0.24166681459E+02  0.51100000000E-03 0. -1.
        -11    1    3    3    0    0 -0.14025343105E+01 -0.26746636626E+01 -0.10887690904E+01  0.32103499176E+01  0.51100000000E-03 0.  1.
         12    1    3    3    0    0  0.10706486914E+02  0.97737681823E+01  0.18051484478E+02  0.23151922131E+02  0.00000000000E+00 0. -1.
</event>
<event>
 7    1  0.2835316E-011  0.5052886E+02  0.7816164E-02  0.1300439E+00
        -11   -1    0    0    0    0  0.00000000000E+00  0.00000000000E+00  0.45593999997E+02  0.45594000000E+02  0.51100000000E-03 0.  1.
         11   -1    0    0    0    0 -0.00000000000E+00 -0.00000000000E+00 -0.45593999997E+02  0.45594000000E+02  0.51100000000E-03 0. -1.
    9900012    2    1    2    0    0  0.32015790409E+02  0.14486128336E+02 -0.20452551482E+02  0.50528860660E+02  0.30000002463E+02 0.  0.
        -12    1    1    2    0    0 -0.32015790409E+02 -0.14486128336E+02  0.20452551482E+02  0.40659139340E+02  0.00000000000E+00 0.  1.
         11    1    3    3    0    0  0.19255437402E+02  0.92707635606E+01 -0.14514027214E+02  0.25833619815E+02  0.51100000000E-03 0. -1.
        -11    1    3    3    0    0  0.11229987886E+02  0.11789986346E+02 -0.96584379800E+00  0.16311016536E+02  0.51100000000E-03 0.  1.
        -12    1    3    3    0    0  0.15303651221E+01 -0.65746215700E+01 -0.49726804706E+01  0.83842243087E+01  0.00000000000E+00 0.  1.
</event>
<event>
 7    1  0.2835316E-011  0.5052885E+02  0.7816164E-02  0.1300439E+00
        -11   -1    0    0    0    0  0.00000000000E+00  0.00000000000E+00  0.45593999997E+02  0.45594000000E+02  0.51100000000E-03 0.  1.
         11   -1    0    0    0    0 -0.00000000000E+00 -0.00000000000E+00 -0.45593999997E+02  0.45594000000E+02  0.51100000000E-03 0. -1.
    9900012    2    1    2    0    0 -0.36660400839E+02  0.92047262374E+01  0.14981804811E+02  0.50528850351E+02  0.29999971128E+02 0.  0.
        -12    1    1    2    0    0  0.36660400839E+02 -0.92047262374E+01 -0.14981804811E+02  0.40659149649E+02  0.00000000000E+00 0.  1.
         11    1    3    3    0    0 -0.23081055054E+02 -0.10696193293E+01  0.10342797672E+02  0.25315067684E+02  0.51100000000E-03 0. -1.
        -11    1    3    3    0    0 -0.14904832120E+02  0.12638602440E+02  0.78077146955E+01  0.21043970661E+02  0.51100000000E-03 0.  1.
        -12    1    3    3    0    0  0.13254863350E+01 -0.23642568736E+01 -0.31687075563E+01  0.41698120061E+01  0.00000000000E+00 0.  1.
</event>
<event>
 7    1  0.2835316E-011  0.5052887E+02  0.7816164E-02  0.1300439E+00
        -11   -1    0    0    0    0  0.00000000000E+00  0.00000000000E+00  0.45593999997E+02  0.45594000000E+02  0.51100000000E-03 0.  1.
         11   -1    0    0    0    0 -0.00000000000E+00 -0.00000000000E+00 -0.45593999997E+02  0.45594000000E+02  0.51100000000E-03 0. -1.
    9900012    2    1    2    0    0 -0.23085618014E+02  0.32466370768E+02 -0.81335063729E+01  0.50528869219E+02  0.30000028479E+02 0.  0.
        -12    1    1    2    0    0  0.23085618014E+02 -0.32466370768E+02  0.81335063729E+01  0.40659130781E+02  0.00000000000E+00 0.  1.
         11    1    3    3    0    0 -0.85697016729E+01  0.84060831423E+01  0.41392736597E+01  0.12697858373E+02  0.51100000000E-03 0.  1.
        -11    1    3    3    0    0 -0.15324156279E+02  0.27657899721E+02 -0.89355683182E+01  0.32857777832E+02  0.51100000000E-03 0. -1.
         12    1    3    3    0    0  0.80823993828E+00 -0.35976120955E+01 -0.33372117143E+01  0.49732330142E+01  0.00000000000E+00 0. -1.
</event>
<event>
 7    1  0.2835316E-011  0.5052885E+02  0.7816164E-02  0.1300439E+00
        -11   -1    0    0    0    0  0.00000000000E+00  0.00000000000E+00  0.45593999997E+02  0.45594000000E+02  0.51100000000E-03 0.  1.
         11   -1    0    0    0    0 -0.00000000000E+00 -0.00000000000E+00 -0.45593999997E+02  0.45594000000E+02  0.51100000000E-03 0. -1.
    9900012    2    1    2    0    0 -0.17196788999E+02  0.24938873770E+01 -0.36758909804E+02  0.50528850032E+02  0.29999970159E+02 0.  0.
        -12    1    1    2    0    0  0.17196788999E+02 -0.24938873770E+01  0.36758909804E+02  0.40659149968E+02  0.00000000000E+00 0.  1.
         11    1    3    3    0    0 -0.15801268149E+02 -0.46118131263E+01 -0.14693204658E+02  0.22064431984E+02  0.51100000000E-03 0. -1.
        -11    1    3    3    0    0 -0.63715266716E+01  0.10143557384E+02 -0.16618098941E+02  0.20485344059E+02  0.51100000000E-03 0.  1.
         12    1    3    3    0    0  0.49760058216E+01 -0.30378568806E+01 -0.54476062051E+01  0.79790739894E+01  0.00000000000E+00 0. -1.
</event>
<event>
 7    1  0.2835316E-011  0.5052886E+02  0.7816164E-02  0.1300439E+00
        -11   -1    0    0    0    0  0.00000000000E+00  0.00000000000E+00  0.45593999997E+02  0.45594000000E+02  0.51100000000E-03 0.  1.
         11   -1    0    0    0    0 -0.00000000000E+00 -0.00000000000E+00 -0.45593999997E+02  0.45594000000E+02  0.51100000000E-03 0. -1.
    9900012    2    1    2    0    0  0.23369892551E+02 -0.90184961224E+01 -0.32026249733E+02  0.50528858075E+02  0.29999994604E+02 0.  0.
        -12    1    1    2    0    0 -0.23369892551E+02  0.90184961224E+01  0.32026249733E+02  0.40659141925E+02  0.00000000000E+00 0.  1.
         11    1    3    3    0    0  0.89185560223E+01 -0.88476792666E+01 -0.30289890202E+01  0.12922725899E+02  0.51100000000E-03 0. -1.
        -11    1    3    3    0    0  0.26206419973E+01  0.60946475914E+01 -0.11844477550E+01  0.67390956728E+01  0.51100000000E-03 0.  1.
        -12    1    3    3    0    0  0.11830694531E+02 -0.62654644472E+01 -0.27812812957E+02  0.30867036502E+02  0.00000000000E+00 0.  1.
</event>
<event>
 7    1  0.2835316E-011  0.5052885E+02  0.7816164E-02  0.1300439E+00
        -11   -1    0    0    0    0  0.00000000000E+00  0.00000000000E+00  0.45593999997E+02  0.45594000000E+02  0.51100000000E-03 0. -1.
         11   -1    0    0    0    0 -0.00000000000E+00 -0.00000000000E+00 -0.45593999997E+02  0.45594000000E+02  0.51100000000E-03 0.  1.
    9900012    2    1    2    0    0 -0.10495318389E+02  0.36048335120E+02  0.15605515131E+02  0.50528852499E+02  0.29999977655E+02 0.  0.
        -12    1    1    2    0    0  0.10495318389E+02 -0.36048335120E+02 -0.15605515131E+02  0.40659147501E+02  0.00000000000E+00 0.  1.
         11    1    3    3    0    0  0.13290048335E+01  0.18568333387E+01  0.66334470405E+01  0.70154617664E+01  0.51100000000E-03 0.  1.
        -11    1    3    3    0    0 -0.50957425034E+01  0.31566174416E+01  0.10091771985E+02  0.11737746266E+02  0.51100000000E-03 0. -1.
        -12    1    3    3    0    0 -0.67285807193E+01  0.31034884340E+02 -0.11197038942E+01  0.31775644467E+02  0.00000000000E+00 0.  1.
</event>
<event>
 7    1  0.2835316E-011  0.5052886E+02  0.7816164E-02  0.1300439E+00
        -11   -1    0    0    0    0  0.00000000000E+00  0.00000000000E+00  0.45593999997E+02  0.45594000000E+02  0.51100000000E-03 0.  1.
         11   -1    0    0    0    0 -0.00000000000E+00 -0.00000000000E+00 -0.45593999997E+02  0.45594000000E+02  0.51100000000E-03 0. -1.
    9900012    2    1    2    0    0  0.25031514384E+02  0.20127330374E+02  0.24929490915E+02  0.50528860097E+02  0.30000000750E+02 0.  0.
        -12    1    1    2    0    0 -0.25031514384E+02 -0.20127330374E+02 -0.24929490915E+02  0.40659139903E+02  0.00000000000E+00 0.  1.
         11    1    3    3    0    0  0.16939907073E+02  0.51918082971E+01  0.12463943904E+02  0.21662530391E+02  0.51100000000E-03 0. -1.
        -11    1    3    3    0    0  0.83107439239E+01  0.11682755834E+02  0.17651654660E+02  0.22740627980E+02  0.51100000000E-03 0.  1.
        -12    1    3    3    0    0 -0.21913661301E+00  0.32527662430E+01 -0.51861076484E+01  0.61257017253E+01  0.00000000000E+00 0.  1.
</event>
<event>
 7    1  0.2835316E-011  0.5052884E+02  0.7816164E-02  0.1300439E+00
        -11   -1    0    0    0    0  0.00000000000E+00  0.00000000000E+00  0.45593999997E+02  0.45594000000E+02  0.51100000000E-03 0. -1.
         11   -1    0    0    0    0 -0.00000000000E+00 -0.00000000000E+00 -0.45593999997E+02  0.45594000000E+02  0.51100000000E-03 0.  1.
    9900012    2    1    2    0    0  0.11574724852E+01 -0.36504507657E+02 -0.17867532910E+02  0.50528836775E+02  0.29999929861E+02 0.  0.
        -12    1    1    2    0    0 -0.11574724852E+01  0.36504507657E+02  0.17867532910E+02  0.40659163225E+02  0.00000000000E+00 0.  1.
         11    1    3    3    0    0 -0.63997299241E+01 -0.86302224523E+01 -0.91037341768E+01  0.14082445061E+02  0.51100000000E-03 0. -1.
        -11    1    3    3    0    0 -0.31499981946E+01  0.17992319413E+01 -0.21416357820E+01  0.42126391121E+01  0.51100000000E-03 0.  1.
         12    1    3    3    0    0  0.10707200604E+02 -0.29673517147E+02 -0.66221629516E+01  0.32233752602E+02  0.00000000000E+00 0. -1.
</event>
<event>
 7    1  0.2835316E-011  0.5052886E+02  0.7816164E-02  0.1300439E+00
        -11   -1    0    0    0    0  0.00000000000E+00  0.00000000000E+00  0.45593999997E+02  0.45594000000E+02  0.51100000000E-03 0.  1.
         11   -1    0    0    0    0 -0.00000000000E+00 -0.00000000000E+00 -0.45593999997E+02  0.45594000000E+02  0.51100000000E-03 0. -1.
    9900012    2    1    2    0    0  0.22186765730E+02  0.28228669372E+02 -0.19080236639E+02  0.50528858614E+02  0.29999996242E+02 0.  0.
        -12    1    1    2    0    0 -0.22186765730E+02 -0.28228669372E+02  0.19080236639E+02  0.40659141386E+02  0.00000000000E+00 0.  1.
         11    1    3    3    0    0 -0.26545247583E+00  0.10067878465E+00 -0.72458107142E+01  0.72513705189E+01  0.51100000000E-03 0. -1.
        -11    1    3    3    0    0  0.20419129805E+01  0.19123944451E+02 -0.40851559134E+01  0.19661718111E+02  0.51100000000E-03 0.  1.
         12    1    3    3    0    0  0.20410305225E+02  0.90040461365E+01 -0.77492700110E+01  0.23615769984E+02  0.00000000000E+00 0. -1.
</event>
<event>
 7    1  0.2835316E-011  0.5052886E+02  0.7816164E-02  0.1300439E+00
        -11   -1    0    0    0    0  0.00000000000E+00  0.00000000000E+00  0.45593999997E+02  0.45594000000E+02  0.51100000000E-03 0.  1.
         11   -1    0    0    0    0 -0.00000000000E+00 -0.00000000000E+00 -0.45593999997E+02  0.45594000000E+02  0.51100000000E-03 0. -1.
    9900012    2    1    2    0    0 -0.34725270832E+02 -0.19779502734E+02  0.74895049129E+01  0.50528857773E+02  0.29999993687E+02 0.  0.
        -12    1    1    2    0    0  0.34725270832E+02  0.19779502734E+02 -0.74895049129E+01  0.40659142227E+02  0.00000000000E+00 0.  1.
         11    1    3    3    0    0 -0.24006075971E+02 -0.17866983091E+02  0.64103147427E+01  0.30604132134E+02  0.51100000000E-03 0. -1.
        -11    1    3    3    0    0 -0.10900440105E+02  0.47667988903E+01 -0.27674983810E+01  0.12214786682E+02  0.51100000000E-03 0.  1.
         12    1    3    3    0    0  0.18124524356E+00 -0.66793185337E+01  0.38466885513E+01  0.77099389572E+01  0.00000000000E+00 0. -1.
</event>
<event>
 7    1  0.2835316E-011  0.5052886E+02  0.7816164E-02  0.1300439E+00
        -11   -1    0    0    0    0  0.00000000000E+00  0.00000000000E+00  0.45593999997E+02  0.45594000000E+02  0.51100000000E-03 0.  1.
         11   -1    0    0    0    0 -0.00000000000E+00 -0.00000000000E+00 -0.45593999997E+02  0.45594000000E+02  0.51100000000E-03 0. -1.
    9900012    2    1    2    0    0  0.20445634863E+02 -0.58220986436E+01 -0.34658980726E+02  0.50528858807E+02  0.29999996831E+02 0.  0.
        -12    1    1    2    0    0 -0.20445634863E+02  0.58220986436E+01  0.34658980726E+02  0.40659141193E+02  0.00000000000E+00 0.  1.
         11    1    3    3    0    0  0.18683264321E+02  0.16755139256E+01 -0.24890110825E+02  0.31167119369E+02  0.51100000000E-03 0. -1.
        -11    1    3    3    0    0  0.47933583281E+01 -0.71197123895E+01 -0.12567725090E+02  0.15218879813E+02  0.51100000000E-03 0.  1.
        -12    1    3    3    0    0 -0.30309877856E+01 -0.37790017978E+00  0.27988551896E+01  0.41428596253E+01  0.00000000000E+00 0.  1.
</event>
<event>
 7    1  0.2835316E-011  0.5052871E+02  0.7816164E-02  0.1300439E+00
        -11   -1    0    0    0    0  0.00000000000E+00  0.00000000000E+00  0.45593999997E+02  0.45594000000E+02  0.51100000000E-03 0.  1.
         11   -1    0    0    0    0 -0.00000000000E+00 -0.00000000000E+00 -0.45593999997E+02  0.45594000000E+02  0.51100000000E-03 0. -1.
    9900012    2    1    2    0    0 -0.21043023815E+02 -0.10849909576E+02 -0.33055230797E+02  0.50528712351E+02  0.29999551658E+02 0.  0.
        -12    1    1    2    0    0  0.21043023815E+02  0.10849909576E+02  0.33055230797E+02  0.40659287649E+02  0.00000000000E+00 0.  1.
         11    1    3    3    0    0 -0.23305519854E+01 -0.11815426543E+02 -0.24536049705E+02  0.27332279678E+02  0.51100000000E-03 0. -1.
        -11    1    3    3    0    0 -0.25773624801E+01 -0.11801695989E+01  0.23009949185E+01  0.36510512886E+01  0.51100000000E-03 0.  1.
        -12    1    3    3    0    0 -0.16135109350E+02  0.21456865666E+01 -0.10820176010E+02  0.19545381385E+02  0.00000000000E+00 0.  1.
</event>
<event>
 7    1  0.2835316E-011  0.5052886E+02  0.7816164E-02  0.1300439E+00
        -11   -1    0    0    0    0  0.00000000000E+00  0.00000000000E+00  0.45593999997E+02  0.45594000000E+02  0.51100000000E-03 0. -1.
         11   -1    0    0    0    0 -0.00000000000E+00 -0.00000000000E+00 -0.45593999997E+02  0.45594000000E+02  0.51100000000E-03 0.  1.
    9900012    2    1    2    0    0 -0.34652705894E+02 -0.48725172904E+01 -0.20702991513E+02  0.50528864395E+02  0.30000013816E+02 0.  0.
        -12    1    1    2    0    0  0.34652705894E+02  0.48725172904E+01  0.20702991513E+02  0.40659135605E+02  0.00000000000E+00 0.  1.
         11    1    3    3    0    0 -0.29922056770E+01  0.63083154005E+00 -0.11824682342E+02  0.12213695427E+02  0.51100000000E-03 0. -1.
        -11    1    3    3    0    0 -0.63772556177E+01  0.24491272511E+01 -0.96218476920E+01  0.11800320622E+02  0.51100000000E-03 0.  1.
         12    1    3    3    0    0 -0.25283244599E+02 -0.79524760815E+01  0.74353852069E+00  0.26514848346E+02  0.00000000000E+00 0. -1.
</event>
<event>
 7    1  0.2835316E-011  0.5052886E+02  0.7816164E-02  0.1300439E+00
        -11   -1    0    0    0    0  0.00000000000E+00  0.00000000000E+00  0.45593999997E+02  0.45594000000E+02  0.51100000000E-03 0. -1.
         11   -1    0    0    0    0 -0.00000000000E+00 -0.00000000000E+00 -0.45593999997E+02  0.45594000000E+02  0.51100000000E-03 0.  1.
    9900012    2    1    2    0    0  0.13348017932E+02  0.29744195135E+02  0.24295653119E+02  0.50528862191E+02  0.30000007115E+02 0.  0.
        -12    1    1    2    0    0 -0.13348017932E+02 -0.29744195135E+02 -0.24295653119E+02  0.40659137809E+02  0.00000000000E+00 0.  1.
         11    1    3    3    0    0  0.24549672072E+01 -0.11141145158E+00  0.26838226052E+01  0.36389807003E+01  0.51100000000E-03 0. -1.
        -11    1    3    3    0    0 -0.77266927124E+01  0.16544717770E+02  0.13087236144E+02  0.22465645250E+02  0.51100000000E-03 0.  1.
         12    1    3    3    0    0  0.18619743437E+02  0.13310888816E+02  0.85245943689E+01  0.24424236240E+02  0.00000000000E+00 0. -1.
</event>
<event>
 7    1  0.2835316E-011  0.5052886E+02  0.7816164E-02  0.1300439E+00
        -11   -1    0    0    0    0  0.00000000000E+00  0.00000000000E+00  0.45593999997E+02  0.45594000000E+02  0.51100000000E-03 0. -1.
         11   -1    0    0    0    0 -0.00000000000E+00 -0.00000000000E+00 -0.45593999997E+02  0.45594000000E+02  0.51100000000E-03 0.  1.
    9900012    2    1    2    0    0 -0.18552194029E+02  0.68698985994E+01  0.35521633885E+02  0.50528857314E+02  0.29999992293E+02 0.  0.
        -12    1    1    2    0    0  0.18552194029E+02 -0.68698985994E+01 -0.35521633885E+02  0.40659142686E+02  0.00000000000E+00 0.  1.
         11    1    3    3    0    0  0.39772818203E+01  0.56403818997E+01  0.74149944004E+01  0.10129897377E+02  0.51100000000E-03 0. -1.
        -11    1    3    3    0    0 -0.23910604992E+02  0.54179684005E+01  0.22602198364E+02  0.33345626158E+02  0.51100000000E-03 0.  1.
         12    1    3    3    0    0  0.13811291429E+01 -0.41884517008E+01  0.55044411205E+01  0.70533337797E+01  0.00000000000E+00 0. -1.
</event>
<event>
 7    1  0.2835316E-011  0.5052893E+02  0.7816164E-02  0.1300439E+00
        -11   -1    0    0    0    0  0.00000000000E+00  0.00000000000E+00  0.45593999997E+02  0.45594000000E+02  0.51100000000E-03 0.  1.
         11   -1    0    0    0    0 -0.00000000000E+00 -0.00000000000E+00 -0.45593999997E+02  0.45594000000E+02  0.51100000000E-03 0. -1.
    9900012    2    1    2    0    0 -0.31297848073E+02  0.14725775588E+02  0.21371852898E+02  0.50528931430E+02  0.30000217574E+02 0.  0.
        -12    1    1    2    0    0  0.31297848073E+02 -0.14725775588E+02 -0.21371852898E+02  0.40659068570E+02  0.00000000000E+00 0.  1.
         11    1    3    3    0    0 -0.16100422660E+02  0.54013135295E+01  0.15174937221E+02  0.22774470743E+02  0.51100000000E-03 0. -1.
        -11    1    3    3    0    0 -0.76719015409E+01 -0.49415620902E+01  0.71558926824E+01  0.11596719773E+02  0.51100000000E-03 0.  1.
         12    1    3    3    0    0 -0.75255238719E+01  0.14266024149E+02 -0.95897700548E+00  0.16157740914E+02  0.00000000000E+00 0. -1.
</event>
<event>
 7    1  0.2835316E-011  0.5052885E+02  0.7816164E-02  0.1300439E+00
        -11   -1    0    0    0    0  0.00000000000E+00  0.00000000000E+00  0.45593999997E+02  0.45594000000E+02  0.51100000000E-03 0.  1.
         11   -1    0    0    0    0 -0.00000000000E+00 -0.00000000000E+00 -0.45593999997E+02  0.45594000000E+02  0.51100000000E-03 0. -1.
    9900012    2    1    2    0    0  0.27919595038E+02 -0.13274115190E+02 -0.26409474118E+02  0.50528852882E+02  0.29999978821E+02 0.  0.
        -12    1    1    2    0    0 -0.27919595038E+02  0.13274115190E+02  0.26409474118E+02  0.40659147118E+02  0.00000000000E+00 0.  1.
         11    1    3    3    0    0 -0.25043117573E+01  0.34741854267E+00 -0.40053401675E+01  0.47365627981E+01  0.51100000000E-03 0. -1.
        -11    1    3    3    0    0  0.82395278022E+01 -0.11860939075E+01  0.39099410188E+01  0.91969710336E+01  0.51100000000E-03 0.  1.
         12    1    3    3    0    0  0.22184378993E+02 -0.12435439825E+02 -0.26314074969E+02  0.36595319051E+02  0.00000000000E+00 0. -1.
</event>
<event>
 7    1  0.2835316E-011  0.5052886E+02  0.7816164E-02  0.1300439E+00
        -11   -1    0    0    0    0  0.00000000000E+00  0.00000000000E+00  0.45593999997E+02  0.45594000000E+02  0.51100000000E-03 0.  1.
         11   -1    0    0    0    0 -0.00000000000E+00 -0.00000000000E+00 -0.45593999997E+02  0.45594000000E+02  0.51100000000E-03 0. -1.
    9900012    2    1    2    0    0  0.21130533379E+02  0.31468924214E+01 -0.34594266071E+02  0.50528860587E+02  0.30000002239E+02 0.  0.
        -12    1    1    2    0    0 -0.21130533379E+02 -0.31468924214E+01  0.34594266071E+02  0.40659139413E+02  0.00000000000E+00 0.  1.
         11    1    3    3    0    0 -0.59594682709E+00 -0.29233976425E+01  0.23689053346E+01  0.38096087913E+01  0.51100000000E-03 0. -1.
        -11    1    3    3    0    0 -0.20411172305E+01  0.62476565447E+00 -0.10583280287E+02  0.10796402806E+02  0.51100000000E-03 0.  1.
         12    1    3    3    0    0  0.23767597437E+02  0.54455244094E+01 -0.26379891120E+02  0.35922848989E+02  0.00000000000E+00 0. -1.
</event>
<event>
 7    1  0.2835316E-011  0.5052885E+02  0.7816164E-02  0.1300439E+00
        -11   -1    0    0    0    0  0.00000000000E+00  0.00000000000E+00  0.45593999997E+02  0.45594000000E+02  0.51100000000E-03 0. -1.
         11   -1    0    0    0    0 -0.00000000000E+00 -0.00000000000E+00 -0.45593999997E+02  0.45594000000E+02  0.51100000000E-03 0.  1.
    9900012    2    1    2    0    0 -0.19740881375E+00 -0.25240375401E+02 -0.31875555437E+02  0.50528849062E+02  0.29999967208E+02 0.  0.
        -12    1    1    2    0    0  0.19740881375E+00  0.25240375401E+02  0.31875555437E+02  0.40659150938E+02  0.00000000000E+00 0.  1.
         11    1    3    3    0    0 -0.59068490831E+01 -0.34804981943E+01 -0.15611598139E+01  0.70314972799E+01  0.51100000000E-03 0. -1.
        -11    1    3    3    0    0  0.41588304248E+01 -0.78042848511E+00 -0.19286797859E+02  0.19745518758E+02  0.51100000000E-03 0.  1.
         12    1    3    3    0    0  0.15506098445E+01 -0.20979448721E+02 -0.11027597765E+02  0.23751833024E+02  0.00000000000E+00 0. -1.
</event>
<event>
 7    1  0.2835316E-011  0.5052886E+02  0.7816164E-02  0.1300439E+00
        -11   -1    0    0    0    0  0.00000000000E+00  0.00000000000E+00  0.45593999997E+02  0.45594000000E+02  0.51100000000E-03 0.  1.
         11   -1    0    0    0    0 -0.00000000000E+00 -0.00000000000E+00 -0.45593999997E+02  0.45594000000E+02  0.51100000000E-03 0. -1.
    9900012    2    1    2    0    0  0.15718032680E+02 -0.22134307930E+02 -0.30268490335E+02  0.50528860240E+02  0.30000001184E+02 0.  0.
        -12    1    1    2    0    0 -0.15718032680E+02  0.22134307930E+02  0.30268490335E+02  0.40659139760E+02  0.00000000000E+00 0.  1.
         11    1    3    3    0    0  0.12367988068E+02 -0.10324940087E+02 -0.93494767345E+00  0.16138328417E+02  0.51100000000E-03 0.  1.
        -11    1    3    3    0    0 -0.57202076517E-02 -0.12414475523E+02 -0.14128420161E+02  0.18807750842E+02  0.51100000000E-03 0. -1.
        -12    1    3    3    0    0  0.33557648192E+01  0.60510768048E+00 -0.15205122501E+02  0.15582780981E+02  0.00000000000E+00 0.  1.
</event>
<event>
 7    1  0.2835316E-011  0.5052888E+02  0.7816164E-02  0.1300439E+00
        -11   -1    0    0    0    0  0.00000000000E+00  0.00000000000E+00  0.45593999997E+02  0.45594000000E+02  0.51100000000E-03 0.  1.
         11   -1    0    0    0    0 -0.00000000000E+00 -0.00000000000E+00 -0.45593999997E+02  0.45594000000E+02  0.51100000000E-03 0. -1.
    9900012    2    1    2    0    0  0.16212677837E+02  0.37250709945E+02  0.16425933779E+01  0.50528875229E+02  0.30000046747E+02 0.  0.
        -12    1    1    2    0    0 -0.16212677837E+02 -0.37250709945E+02 -0.16425933779E+01  0.40659124771E+02  0.00000000000E+00 0.  1.
         11    1    3    3    0    0  0.24863725347E+01 -0.12498161161E+01 -0.21526999151E+01  0.35182674558E+01  0.51100000000E-03 0. -1.
        -11    1    3    3    0    0 -0.55639600677E+01  0.17361214585E+02  0.10471712823E+01  0.18261051215E+02  0.51100000000E-03 0.  1.
        -12    1    3    3    0    0  0.19290265370E+02  0.21139311476E+02  0.27481220107E+01  0.28749556559E+02  0.00000000000E+00 0.  1.
</event>
<event>
 7    1  0.2835316E-011  0.5052887E+02  0.7816164E-02  0.1300439E+00
        -11   -1    0    0    0    0  0.00000000000E+00  0.00000000000E+00  0.45593999997E+02  0.45594000000E+02  0.51100000000E-03 0. -1.
         11   -1    0    0    0    0 -0.00000000000E+00 -0.00000000000E+00 -0.45593999997E+02  0.45594000000E+02  0.51100000000E-03 0.  1.
    9900012    2    1    2    0    0 -0.78764400267E+01  0.13873744895E+02  0.37398476649E+02  0.50528866210E+02  0.30000019333E+02 0.  0.
        -12    1    1    2    0    0  0.78764400267E+01 -0.13873744895E+02 -0.37398476649E+02  0.40659133790E+02  0.00000000000E+00 0.  1.
         11    1    3    3    0    0 -0.11600771902E+02  0.47750150697E+01  0.13176160333E+02  0.18193127247E+02  0.51100000000E-03 0. -1.
        -11    1    3    3    0    0  0.33341531758E+01 -0.40352059133E+01  0.16002324523E+02  0.16836681816E+02  0.51100000000E-03 0.  1.
         12    1    3    3    0    0  0.39017869955E+00  0.13133935738E+02  0.82199917919E+01  0.15499057147E+02  0.00000000000E+00 0. -1.
</event>
<event>
 7    1  0.2835316E-011  0.5052886E+02  0.7816164E-02  0.1300439E+00
        -11   -1    0    0    0    0  0.00000000000E+00  0.00000000000E+00  0.45593999997E+02  0.45594000000E+02  0.51100000000E-03 0. -1.
         11   -1    0    0    0    0 -0.00000000000E+00 -0.00000000000E+00 -0.45593999997E+02  0.45594000000E+02  0.51100000000E-03 0.  1.
    9900012    2    1    2    0    0 -0.46563793930E+01  0.36940873782E+02  0.16335711983E+02  0.50528861903E+02  0.30000006240E+02 0.  0.
        -12    1    1    2    0    0  0.46563793930E+01 -0.36940873782E+02 -0.16335711983E+02  0.40659138097E+02  0.00000000000E+00 0.  1.
         11    1    3    3    0    0  0.80793039156E+01  0.20730013475E+01  0.10620536902E+01  0.84083556448E+01  0.51100000000E-03 0. -1.
        -11    1    3    3    0    0 -0.34424149903E+01  0.61522095776E+00  0.28719878471E+01  0.45251554942E+01  0.51100000000E-03 0.  1.
         12    1    3    3    0    0 -0.92932683184E+01  0.34252651477E+02  0.12401670446E+02  0.37595350764E+02  0.00000000000E+00 0. -1.
</event>
<event>
 7    1  0.2835316E-011  0.5052885E+02  0.7816164E-02  0.1300439E+00
        -11   -1    0    0    0    0  0.00000000000E+00  0.00000000000E+00  0.45593999997E+02  0.45594000000E+02  0.51100000000E-03 0.  1.
         11   -1    0    0    0    0 -0.00000000000E+00 -0.00000000000E+00 -0.45593999997E+02  0.45594000000E+02  0.51100000000E-03 0. -1.
    9900012    2    1    2    0    0 -0.34454345289E+02 -0.12758306715E+02  0.17415225528E+02  0.50528851217E+02  0.29999973760E+02 0.  0.
        -12    1    1    2    0    0  0.34454345289E+02  0.12758306715E+02 -0.17415225528E+02  0.40659148783E+02  0.00000000000E+00 0.  1.
         11    1    3    3    0    0 -0.23822022288E+01  0.35347630810E+01 -0.10353483588E+01  0.43865001976E+01  0.51100000000E-03 0. -1.
        -11    1    3    3    0    0  0.19294259522E+01 -0.66847788403E+01  0.32112331236E+01  0.76629609868E+01  0.51100000000E-03 0.  1.
        -12    1    3    3    0    0 -0.34001569013E+02 -0.96082909561E+01  0.15239340763E+02  0.38479390033E+02  0.00000000000E+00 0.  1.
</event>
<event>
 7    1  0.2835316E-011  0.5052879E+02  0.7816164E-02  0.1300439E+00
        -11   -1    0    0    0    0  0.00000000000E+00  0.00000000000E+00  0.45593999997E+02  0.45594000000E+02  0.51100000000E-03 0. -1.
         11   -1    0    0    0    0 -0.00000000000E+00 -0.00000000000E+00 -0.45593999997E+02  0.45594000000E+02  0.51100000000E-03 0.  1.
    9900012    2    1    2    0    0  0.15147150095E+02  0.13626031561E+02  0.35186167264E+02  0.50528791218E+02  0.29999791384E+02 0.  0.
        -12    1    1    2    0    0 -0.15147150095E+02 -0.13626031561E+02 -0.35186167264E+02  0.40659208782E+02  0.00000000000E+00 0.  1.
         11    1    3    3    0    0  0.10221558547E+02 -0.31268369325E+00  0.17160493412E+02  0.19976500310E+02  0.51100000000E-03 0. -1.
        -11    1    3    3    0    0 -0.41417880097E+01  0.10630348815E+01  0.13508627929E+02  0.14169244153E+02  0.51100000000E-03 0.  1.
         12    1    3    3    0    0  0.90673795581E+01  0.12875680372E+02  0.45170459224E+01  0.16383046755E+02  0.00000000000E+00 0. -1.
</event>
<event>
 7    1  0.2835316E-011  0.5052886E+02  0.7816164E-02  0.1300439E+00
        -11   -1    0    0    0    0  0.00000000000E+00  0.00000000000E+00  0.45593999997E+02  0.45594000000E+02  0.51100000000E-03 0. -1.
         11   -1    0    0    0    0 -0.00000000000E+00 -0.00000000000E+00 -0.45593999997E+02  0.45594000000E+02  0.51100000000E-03 0.  1.
    9900012    2    1    2    0    0 -0.31271168781E+02 -0.17055071401E+02  0.19606219736E+02  0.50528864375E+02  0.30000013755E+02 0.  0.
        -12    1    1    2    0    0  0.31271168781E+02  0.17055071401E+02 -0.19606219736E+02  0.40659135625E+02  0.00000000000E+00 0.  1.
         11    1    3    3    0    0 -0.24047729359E+02 -0.20789971018E+01  0.36362011652E+01  0.24409782372E+02  0.51100000000E-03 0. -1.
        -11    1    3    3    0    0 -0.93098091839E+01 -0.53601209758E+01  0.95191733088E+01  0.14353330786E+02  0.51100000000E-03 0.  1.
        -12    1    3    3    0    0  0.20863697625E+01 -0.96159533233E+01  0.64508452624E+01  0.11765751217E+02  0.00000000000E+00 0.  1.
</event>
<event>
 7    1  0.2835316E-011  0.5052885E+02  0.7816164E-02  0.1300439E+00
        -11   -1    0    0    0    0  0.00000000000E+00  0.00000000000E+00  0.45593999997E+02  0.45594000000E+02  0.51100000000E-03 0. -1.
         11   -1    0    0    0    0 -0.00000000000E+00 -0.00000000000E+00 -0.45593999997E+02  0.45594000000E+02  0.51100000000E-03 0.  1.
    9900012    2    1    2    0    0 -0.17683426707E+02 -0.35291744714E+02  0.97445199606E+01  0.50528849808E+02  0.29999969477E+02 0.  0.
        -12    1    1    2    0    0  0.17683426707E+02  0.35291744714E+02 -0.97445199606E+01  0.40659150192E+02  0.00000000000E+00 0.  1.
         11    1    3    3    0    0 -0.11185384970E+02 -0.24994451570E+02  0.13241259656E+02  0.30416548189E+02  0.51100000000E-03 0. -1.
        -11    1    3    3    0    0  0.72355555115E+00 -0.12172399285E+02 -0.95930622264E+00  0.12231561866E+02  0.51100000000E-03 0.  1.
        -12    1    3    3    0    0 -0.72215972877E+01  0.18751061407E+01 -0.25374334728E+01  0.78807397529E+01  0.00000000000E+00 0.  1.
</event>
<event>
 7    1  0.2835316E-011  0.5052885E+02  0.7816164E-02  0.1300439E+00
        -11   -1    0    0    0    0  0.00000000000E+00  0.00000000000E+00  0.45593999997E+02  0.45594000000E+02  0.51100000000E-03 0.  1.
         11   -1    0    0    0    0 -0.00000000000E+00 -0.00000000000E+00 -0.45593999997E+02  0.45594000000E+02  0.51100000000E-03 0. -1.
    9900012    2    1    2    0    0  0.21903330405E+02  0.22791819287E+02 -0.25572321672E+02  0.50528849186E+02  0.29999967585E+02 0.  0.
        -12    1    1    2    0    0 -0.21903330405E+02 -0.22791819287E+02  0.25572321672E+02  0.40659150814E+02  0.00000000000E+00 0.  1.
         11    1    3    3    0    0  0.18087732229E+00  0.79315106188E+01 -0.15218805072E+01  0.80782236811E+01  0.51100000000E-03 0. -1.
        -11    1    3    3    0    0  0.19462303932E+02  0.15441534223E+02 -0.78089209587E+01  0.26042302132E+02  0.51100000000E-03 0.  1.
        -12    1    3    3    0    0  0.22601491507E+01 -0.58122555494E+00 -0.16241520206E+02  0.16408323373E+02  0.00000000000E+00 0.  1.
</event>
<event>
 7    1  0.2835316E-011  0.5052886E+02  0.7816164E-02  0.1300439E+00
        -11   -1    0    0    0    0  0.00000000000E+00  0.00000000000E+00  0.45593999997E+02  0.45594000000E+02  0.51100000000E-03 0.  1.
         11   -1    0    0    0    0 -0.00000000000E+00 -0.00000000000E+00 -0.45593999997E+02  0.45594000000E+02  0.51100000000E-03 0. -1.
    9900012    2    1    2    0    0 -0.78949104460E+01  0.42853467523E+01 -0.39654409834E+02  0.50528855555E+02  0.29999986944E+02 0.  0.
        -12    1    1    2    0    0  0.78949104460E+01 -0.42853467523E+01  0.39654409834E+02  0.40659144445E+02  0.00000000000E+00 0.  1.
         11    1    3    3    0    0 -0.75478604646E+01  0.75273137531E+01 -0.41961990009E+01  0.11455947636E+02  0.51100000000E-03 0. -1.
        -11    1    3    3    0    0 -0.64318873449E+01  0.22861334768E+00 -0.28431978950E+02  0.29151309853E+02  0.51100000000E-03 0.  1.
        -12    1    3    3    0    0  0.60848373635E+01 -0.34705803485E+01 -0.70262318833E+01  0.99215980655E+01  0.00000000000E+00 0.  1.
</event>
<event>
 7    1  0.2835316E-011  0.5052886E+02  0.7816164E-02  0.1300439E+00
        -11   -1    0    0    0    0  0.00000000000E+00  0.00000000000E+00  0.45593999997E+02  0.45594000000E+02  0.51100000000E-03 0.  1.
         11   -1    0    0    0    0 -0.00000000000E+00 -0.00000000000E+00 -0.45593999997E+02  0.45594000000E+02  0.51100000000E-03 0. -1.
    9900012    2    1    2    0    0 -0.16342744738E+02  0.23522950570E+02 -0.28857430701E+02  0.50528858153E+02  0.29999994841E+02 0.  0.
        -12    1    1    2    0    0  0.16342744738E+02 -0.23522950570E+02  0.28857430701E+02  0.40659141847E+02  0.00000000000E+00 0.  1.
         11    1    3    3    0    0 -0.75049988133E+01  0.18697884286E+02 -0.18963165057E+02  0.27668348581E+02  0.51100000000E-03 0. -1.
        -11    1    3    3    0    0  0.19805760252E+01  0.52393897026E+01  0.27289187608E+01  0.62306407144E+01  0.51100000000E-03 0.  1.
        -12    1    3    3    0    0 -0.10818321950E+02 -0.41432341823E+00 -0.12623184404E+02  0.16629868857E+02  0.00000000000E+00 0.  1.
</event>
<event>
 7    1  0.2835316E-011  0.5052887E+02  0.7816164E-02  0.1300439E+00
        -11   -1    0    0    0    0  0.00000000000E+00  0.00000000000E+00  0.45593999997E+02  0.45594000000E+02  0.51100000000E-03 0.  1.
         11   -1    0    0    0    0 -0.00000000000E+00 -0.00000000000E+00 -0.45593999997E+02  0.45594000000E+02  0.51100000000E-03 0. -1.
    9900012    2    1    2    0    0 -0.88926954139E+01 -0.37228750508E+02 -0.13715128909E+02  0.50528872402E+02  0.30000038152E+02 0.  0.
        -12    1    1    2    0    0  0.88926954139E+01  0.37228750508E+02  0.13715128909E+02  0.40659127598E+02  0.00000000000E+00 0.  1.
         11    1    3    3    0    0 -0.10116341416E+02 -0.22175538143E+02 -0.24759487036E+01  0.24499493420E+02  0.51100000000E-03 0. -1.
        -11    1    3    3    0    0 -0.59045761071E+01 -0.51394132322E+00  0.61886427531E+00  0.59591230849E+01  0.51100000000E-03 0.  1.
        -12    1    3    3    0    0  0.71282221097E+01 -0.14539271042E+02 -0.11858044481E+02  0.20070255897E+02  0.00000000000E+00 0.  1.
</event>
<event>
 7    1  0.2835316E-011  0.5052886E+02  0.7816164E-02  0.1300439E+00
        -11   -1    0    0    0    0  0.00000000000E+00  0.00000000000E+00  0.45593999997E+02  0.45594000000E+02  0.51100000000E-03 0.  1.
         11   -1    0    0    0    0 -0.00000000000E+00 -0.00000000000E+00 -0.45593999997E+02  0.45594000000E+02  0.51100000000E-03 0. -1.
    9900012    2    1    2    0    0 -0.11932627449E+02 -0.20668750438E+02 -0.32917786293E+02  0.50528862074E+02  0.30000006759E+02 0.  0.
        -12    1    1    2    0    0  0.11932627449E+02  0.20668750438E+02  0.32917786293E+02  0.40659137926E+02  0.00000000000E+00 0.  1.
         11    1    3    3    0    0 -0.34467938204E+01 -0.42278871328E+01 -0.48684779018E+00  0.54765352441E+01  0.51100000000E-03 0. -1.
        -11    1    3    3    0    0 -0.12677232707E+02 -0.16714346376E+00 -0.21642258254E+02  0.25082414331E+02  0.51100000000E-03 0.  1.
         12    1    3    3    0    0  0.41913990790E+01 -0.16273719842E+02 -0.10788680248E+02  0.19969912499E+02  0.00000000000E+00 0. -1.
</event>
<event>
 7    1  0.3743154E-011  0.5052884E+02  0.7816164E-02  0.1300439E+00
        -11   -1    0    0    0    0  0.00000000000E+00  0.00000000000E+00  0.45593999997E+02  0.45594000000E+02  0.51100000000E-03 0.  1.
         11   -1    0    0    0    0 -0.00000000000E+00 -0.00000000000E+00 -0.45593999997E+02  0.45594000000E+02  0.51100000000E-03 0. -1.
    9900012    2    1    2    0    0 -0.40094855171E+02 -0.60740700659E+01 -0.29454179478E+01  0.50528840820E+02  0.29999942156E+02 0.  0.
        -12    1    1    2    0    0  0.40094855171E+02  0.60740700659E+01  0.29454179478E+01  0.40659159180E+02  0.00000000000E+00 0.  1.
         11    1    3    3    0    0 -0.24939390132E+02 -0.10416545639E+02  0.92301667016E-01  0.27027506786E+02  0.51100000000E-03 0. -1.
        -11    1    3    3    0    0 -0.10338850640E+02  0.15289915447E+01 -0.10078180509E+02  0.14518931446E+02  0.51100000000E-03 0.  1.
        -12    1    3    3    0    0 -0.48166143998E+01  0.28134840285E+01  0.70404608945E+01  0.89824025885E+01  0.00000000000E+00 0.  1.
</event>
<event>
 7    1  0.2835316E-011  0.5052886E+02  0.7816164E-02  0.1300439E+00
        -11   -1    0    0    0    0  0.00000000000E+00  0.00000000000E+00  0.45593999997E+02  0.45594000000E+02  0.51100000000E-03 0.  1.
         11   -1    0    0    0    0 -0.00000000000E+00 -0.00000000000E+00 -0.45593999997E+02  0.45594000000E+02  0.51100000000E-03 0. -1.
    9900012    2    1    2    0    0  0.64355463944E+01  0.12284637013E+02 -0.38220900322E+02  0.50528858527E+02  0.29999995977E+02 0.  0.
        -12    1    1    2    0    0 -0.64355463944E+01 -0.12284637013E+02  0.38220900322E+02  0.40659141473E+02  0.00000000000E+00 0.  1.
         11    1    3    3    0    0  0.63676256720E+01  0.52244455802E+01 -0.19044154340E+02  0.20749007280E+02  0.51100000000E-03 0. -1.
        -11    1    3    3    0    0 -0.73059046697E+01 -0.69238069450E-01 -0.18036177941E+02  0.19459824046E+02  0.51100000000E-03 0.  1.
         12    1    3    3    0    0  0.73738253921E+01  0.71294295027E+01 -0.11405680409E+01  0.10320027200E+02  0.00000000000E+00 0. -1.
</event>
<event>
 7    1  0.2835316E-011  0.5052874E+02  0.7816164E-02  0.1300439E+00
        -11   -1    0    0    0    0  0.00000000000E+00  0.00000000000E+00  0.45593999997E+02  0.45594000000E+02  0.51100000000E-03 0.  1.
         11   -1    0    0    0    0 -0.00000000000E+00 -0.00000000000E+00 -0.45593999997E+02  0.45594000000E+02  0.51100000000E-03 0. -1.
    9900012    2    1    2    0    0 -0.23375206684E+02 -0.12271875715E+02 -0.30922105259E+02  0.50528735192E+02  0.29999621088E+02 0.  0.
        -12    1    1    2    0    0  0.23375206684E+02  0.12271875715E+02  0.30922105259E+02  0.40659264808E+02  0.00000000000E+00 0.  1.
         11    1    3    3    0    0 -0.23839108974E+01  0.20220107687E+01 -0.14169055370E+02  0.14509779083E+02  0.51100000000E-03 0. -1.
        -11    1    3    3    0    0  0.24855723152E+01  0.38465741535E+00 -0.56559328910E+01  0.61899602737E+01  0.51100000000E-03 0.  1.
        -12    1    3    3    0    0 -0.23476868102E+02 -0.14678543899E+02 -0.11097116998E+02  0.29828995835E+02  0.00000000000E+00 0.  1.
</event>
<event>
 7    1  0.2835316E-011  0.5052886E+02  0.7816164E-02  0.1300439E+00
        -11   -1    0    0    0    0  0.00000000000E+00  0.00000000000E+00  0.45593999997E+02  0.45594000000E+02  0.51100000000E-03 0. -1.
         11   -1    0    0    0    0 -0.00000000000E+00 -0.00000000000E+00 -0.45593999997E+02  0.45594000000E+02  0.51100000000E-03 0.  1.
    9900012    2    1    2    0    0  0.33906784315E+02 -0.11292834883E+02  0.19389881241E+02  0.50528860353E+02  0.30000001529E+02 0.  0.
        -12    1    1    2    0    0 -0.33906784315E+02  0.11292834883E+02 -0.19389881241E+02  0.40659139647E+02  0.00000000000E+00 0.  1.
         11    1    3    3    0    0  0.14069356782E+02 -0.21911328407E+01  0.54136374816E+01  0.15233362545E+02  0.51100000000E-03 0. -1.
        -11    1    3    3    0    0  0.81452823612E+01 -0.15854719645E+02  0.12373689991E+02  0.21698524467E+02  0.51100000000E-03 0.  1.
         12    1    3    3    0    0  0.11692145172E+02  0.67530176025E+01  0.16025537683E+01  0.13596973341E+02  0.00000000000E+00 0. -1.
</event>
<event>
 7    1  0.4279993E-011  0.5052886E+02  0.7816164E-02  0.1300439E+00
        -11   -1    0    0    0    0  0.00000000000E+00  0.00000000000E+00  0.45593999997E+02  0.45594000000E+02  0.51100000000E-03 0. -1.
         11   -1    0    0    0    0 -0.00000000000E+00 -0.00000000000E+00 -0.45593999997E+02  0.45594000000E+02  0.51100000000E-03 0.  1.
    9900012    2    1    2    0    0 -0.31537524895E+02 -0.14910684052E+02  0.20885929258E+02  0.50528855686E+02  0.29999987343E+02 0.  0.
        -12    1    1    2    0    0  0.31537524895E+02  0.14910684052E+02 -0.20885929258E+02  0.40659144314E+02  0.00000000000E+00 0.  1.
         11    1    3    3    0    0 -0.25532615260E+02 -0.67062520937E+01  0.12042094577E+02  0.29015518283E+02  0.51100000000E-03 0. -1.
        -11    1    3    3    0    0 -0.21358997162E+01  0.37051904792E+01 -0.22065864045E+01  0.48124347171E+01  0.51100000000E-03 0.  1.
        -12    1    3    3    0    0 -0.38690099184E+01 -0.11909622437E+02  0.11050421086E+02  0.16700902686E+02  0.00000000000E+00 0.  1.
</event>
<event>
 7    1  0.2835316E-011  0.5052886E+02  0.7816164E-02  0.1300439E+00
        -11   -1    0    0    0    0  0.00000000000E+00  0.00000000000E+00  0.45593999997E+02  0.45594000000E+02  0.51100000000E-03 0.  1.
         11   -1    0    0    0    0 -0.00000000000E+00 -0.00000000000E+00 -0.45593999997E+02  0.45594000000E+02  0.51100000000E-03 0. -1.
    9900012    2    1    2    0    0  0.15787489174E+02  0.15066292800E+01 -0.37438627362E+02  0.50528861237E+02  0.30000004215E+02 0.  0.
        -12    1    1    2    0    0 -0.15787489174E+02 -0.15066292800E+01  0.37438627362E+02  0.40659138763E+02  0.00000000000E+00 0.  1.
         11    1    3    3    0    0  0.23336425728E+01  0.30744778239E+01  0.57017486434E+00  0.39017177222E+01  0.51100000000E-03 0. -1.
        -11    1    3    3    0    0  0.81190462715E+01 -0.12393116991E+02 -0.18712641621E+02  0.23867786194E+02  0.51100000000E-03 0.  1.
         12    1    3    3    0    0  0.53348003296E+01  0.10825268447E+02 -0.19296160606E+02  0.22759357320E+02  0.00000000000E+00 0. -1.
</event>
<event>
 7    1  0.2835316E-011  0.5052886E+02  0.7816164E-02  0.1300439E+00
        -11   -1    0    0    0    0  0.00000000000E+00  0.00000000000E+00  0.45593999997E+02  0.45594000000E+02  0.51100000000E-03 0.  1.
         11   -1    0    0    0    0 -0.00000000000E+00 -0.00000000000E+00 -0.45593999997E+02  0.45594000000E+02  0.51100000000E-03 0. -1.
    9900012    2    1    2    0    0  0.23793898788E+02  0.32956133414E+02 -0.95345869312E+00  0.50528862864E+02  0.30000009162E+02 0.  0.
        -12    1    1    2    0    0 -0.23793898788E+02 -0.32956133414E+02  0.95345869312E+00  0.40659137136E+02  0.00000000000E+00 0.  1.
         11    1    3    3    0    0  0.14807781877E+02  0.14840749309E+02 -0.74571903185E+01  0.22251470331E+02  0.51100000000E-03 0.  1.
        -11    1    3    3    0    0  0.91903670292E+01 -0.20899871312E+00  0.22889685567E+01  0.94734314748E+01  0.51100000000E-03 0. -1.
        -12    1    3    3    0    0 -0.20425011772E+00  0.18324382818E+02  0.42147630687E+01  0.18803961059E+02  0.00000000000E+00 0.  1.
</event>
<event>
 7    1  0.2835316E-011  0.5052886E+02  0.7816164E-02  0.1300439E+00
        -11   -1    0    0    0    0  0.00000000000E+00  0.00000000000E+00  0.45593999997E+02  0.45594000000E+02  0.51100000000E-03 0. -1.
         11   -1    0    0    0    0 -0.00000000000E+00 -0.00000000000E+00 -0.45593999997E+02  0.45594000000E+02  0.51100000000E-03 0.  1.
    9900012    2    1    2    0    0  0.25590092444E+02  0.14520593230E+02  0.28061813248E+02  0.50528858078E+02  0.29999994614E+02 0.  0.
        -12    1    1    2    0    0 -0.25590092444E+02 -0.14520593230E+02 -0.28061813248E+02  0.40659141922E+02  0.00000000000E+00 0.  1.
         11    1    3    3    0    0  0.19731369877E+02  0.19686161663E+01  0.90978386483E+01  0.21816807172E+02  0.51100000000E-03 0. -1.
        -11    1    3    3    0    0  0.10911357512E+02  0.12158322298E+02  0.12944813350E+02  0.20843481398E+02  0.51100000000E-03 0.  1.
         12    1    3    3    0    0 -0.50526349449E+01  0.39365476624E+00  0.60191612495E+01  0.78685695084E+01  0.00000000000E+00 0. -1.
</event>
<event>
 7    1  0.2835316E-011  0.5052885E+02  0.7816164E-02  0.1300439E+00
        -11   -1    0    0    0    0  0.00000000000E+00  0.00000000000E+00  0.45593999997E+02  0.45594000000E+02  0.51100000000E-03 0.  1.
         11   -1    0    0    0    0 -0.00000000000E+00 -0.00000000000E+00 -0.45593999997E+02  0.45594000000E+02  0.51100000000E-03 0. -1.
    9900012    2    1    2    0    0 -0.29353706884E+02 -0.19447898179E+02 -0.20329924132E+02  0.50528847690E+02  0.29999963037E+02 0.  0.
        -12    1    1    2    0    0  0.29353706884E+02  0.19447898179E+02  0.20329924132E+02  0.40659152310E+02  0.00000000000E+00 0.  1.
         11    1    3    3    0    0 -0.26197581868E+01 -0.58454004976E+00 -0.50193382518E+01  0.56919747693E+01  0.51100000000E-03 0. -1.
        -11    1    3    3    0    0  0.21517650970E+01  0.32264467511E+01 -0.62591987002E+01  0.73632615260E+01  0.51100000000E-03 0.  1.
        -12    1    3    3    0    0 -0.28885713794E+02 -0.22089804880E+02 -0.90513871795E+01  0.37473611394E+02  0.00000000000E+00 0.  1.
</event>
<event>
 7    1  0.2835316E-011  0.5052887E+02  0.7816164E-02  0.1300439E+00
        -11   -1    0    0    0    0  0.00000000000E+00  0.00000000000E+00  0.45593999997E+02  0.45594000000E+02  0.51100000000E-03 0.  1.
         11   -1    0    0    0    0 -0.00000000000E+00 -0.00000000000E+00 -0.45593999997E+02  0.45594000000E+02  0.51100000000E-03 0. -1.
    9900012    2    1    2    0    0  0.22280981466E+02 -0.33148737052E+02 -0.76081561415E+01  0.50528868884E+02  0.30000027459E+02 0.  0.
        -12    1    1    2    0    0 -0.22280981466E+02  0.33148737052E+02  0.76081561415E+01  0.40659131116E+02  0.00000000000E+00 0.  1.
         11    1    3    3    0    0  0.11170120120E+02 -0.17539589827E+02 -0.12882710814E+02  0.24461664558E+02  0.51100000000E-03 0. -1.
        -11    1    3    3    0    0  0.12702682271E+02 -0.64009786798E+01 -0.18120852081E+01  0.14339257931E+02  0.51100000000E-03 0.  1.
        -12    1    3    3    0    0 -0.15918209251E+01 -0.92081685459E+01  0.70866398811E+01  0.11727946394E+02  0.00000000000E+00 0.  1.
</event>
<event>
 7    1  0.2835316E-011  0.5052884E+02  0.7816164E-02  0.1300439E+00
        -11   -1    0    0    0    0  0.00000000000E+00  0.00000000000E+00  0.45593999997E+02  0.45594000000E+02  0.51100000000E-03 0.  1.
         11   -1    0    0    0    0 -0.00000000000E+00 -0.00000000000E+00 -0.45593999997E+02  0.45594000000E+02  0.51100000000E-03 0. -1.
    9900012    2    1    2    0    0  0.15816119290E+02  0.87900633347E+01 -0.36410879681E+02  0.50528843566E+02  0.29999950503E+02 0.  0.
        -12    1    1    2    0    0 -0.15816119290E+02 -0.87900633347E+01  0.36410879681E+02  0.40659156434E+02  0.00000000000E+00 0.  1.
         11    1    3    3    0    0  0.33255619999E+01 -0.83027485297E+01 -0.13620983474E+02  0.16294974281E+02  0.51100000000E-03 0.  1.
        -11    1    3    3    0    0 -0.31235976982E+01  0.43551236356E+01 -0.40713759752E+01  0.67305324496E+01  0.51100000000E-03 0. -1.
        -12    1    3    3    0    0  0.15614154988E+02  0.12737688229E+02 -0.18718520232E+02  0.27503336835E+02  0.00000000000E+00 0.  1.
</event>
<event>
 7    1  0.4024302E-011  0.5052886E+02  0.7816164E-02  0.1300439E+00
        -11   -1    0    0    0    0  0.00000000000E+00  0.00000000000E+00  0.45593999997E+02  0.45594000000E+02  0.51100000000E-03 0. -1.
         11   -1    0    0    0    0 -0.00000000000E+00 -0.00000000000E+00 -0.45593999997E+02  0.45594000000E+02  0.51100000000E-03 0.  1.
    9900012    2    1    2    0    0 -0.37550356303E+02 -0.24544246221E+00 -0.15590906875E+02  0.50528857391E+02  0.29999992526E+02 0.  0.
        -12    1    1    2    0    0  0.37550356303E+02  0.24544246221E+00  0.15590906875E+02  0.40659142609E+02  0.00000000000E+00 0.  1.
         11    1    3    3    0    0 -0.21960504107E+02 -0.58402018901E+01 -0.14400330714E+02  0.26902438991E+02  0.51100000000E-03 0.  1.
        -11    1    3    3    0    0 -0.16591370848E+02  0.47517894355E+01 -0.62844564678E+01  0.18367021610E+02  0.51100000000E-03 0. -1.
        -12    1    3    3    0    0  0.10015186519E+01  0.84296999240E+00  0.50938803062E+01  0.52593967898E+01  0.00000000000E+00 0.  1.
</event>
<event>
 7    1  0.2835316E-011  0.5052886E+02  0.7816164E-02  0.1300439E+00
        -11   -1    0    0    0    0  0.00000000000E+00  0.00000000000E+00  0.45593999997E+02  0.45594000000E+02  0.51100000000E-03 0. -1.
         11   -1    0    0    0    0 -0.00000000000E+00 -0.00000000000E+00 -0.45593999997E+02  0.45594000000E+02  0.51100000000E-03 0.  1.
    9900012    2    1    2    0    0 -0.23204236084E+01 -0.18478905164E+02  0.36142934238E+02  0.50528855922E+02  0.29999988062E+02 0.  0.
        -12    1    1    2    0    0  0.23204236084E+01  0.18478905164E+02 -0.36142934238E+02  0.40659144078E+02  0.00000000000E+00 0.  1.
         11    1    3    3    0    0 -0.78502417459E+01 -0.84416150462E+01  0.15664186419E+02  0.19448750512E+02  0.51100000000E-03 0. -1.
        -11    1    3    3    0    0 -0.57810490579E+01  0.12672053451E+01  0.12114644094E+01  0.60410250680E+01  0.51100000000E-03 0.  1.
        -12    1    3    3    0    0  0.11310867195E+02 -0.11304495463E+02  0.19267283410E+02  0.25039080342E+02  0.00000000000E+00 0.  1.
</event>
<event>
 7    1  0.2835316E-011  0.5052886E+02  0.7816164E-02  0.1300439E+00
        -11   -1    0    0    0    0  0.00000000000E+00  0.00000000000E+00  0.45593999997E+02  0.45594000000E+02  0.51100000000E-03 0. -1.
         11   -1    0    0    0    0 -0.00000000000E+00 -0.00000000000E+00 -0.45593999997E+02  0.45594000000E+02  0.51100000000E-03 0.  1.
    9900012    2    1    2    0    0  0.31787519415E+02  0.20798147671E+02 -0.14496774331E+02  0.50528858308E+02  0.29999995313E+02 0.  0.
        -12    1    1    2    0    0 -0.31787519415E+02 -0.20798147671E+02  0.14496774331E+02  0.40659141692E+02  0.00000000000E+00 0.  1.
         11    1    3    3    0    0  0.22673854758E+02  0.18117205301E+02 -0.94111852452E+00  0.29038294059E+02  0.51100000000E-03 0. -1.
        -11    1    3    3    0    0  0.88200810873E+01 -0.12322187875E+01 -0.17848036241E+01  0.90828254286E+01  0.51100000000E-03 0.  1.
         12    1    3    3    0    0  0.29358357020E+00  0.39131611573E+01 -0.11770852182E+02  0.12407738821E+02  0.00000000000E+00 0. -1.
</event>
<event>
 7    1  0.2835316E-011  0.5052885E+02  0.7816164E-02  0.1300439E+00
        -11   -1    0    0    0    0  0.00000000000E+00  0.00000000000E+00  0.45593999997E+02  0.45594000000E+02  0.51100000000E-03 0.  1.
         11   -1    0    0    0    0 -0.00000000000E+00 -0.00000000000E+00 -0.45593999997E+02  0.45594000000E+02  0.51100000000E-03 0. -1.
    9900012    2    1    2    0    0 -0.39478111010E+02 -0.39068882896E+01 -0.89096081088E+01  0.50528854145E+02  0.29999982658E+02 0.  0.
        -12    1    1    2    0    0  0.39478111010E+02  0.39068882896E+01  0.89096081088E+01  0.40659145855E+02  0.00000000000E+00 0.  1.
         11    1    3    3    0    0 -0.52650041104E+01  0.12152486752E+01 -0.51172354593E+01  0.74419887552E+01  0.51100000000E-03 0. -1.
        -11    1    3    3    0    0 -0.34294900924E+02 -0.41748707247E+01  0.44110395124E+01  0.34828537793E+02  0.51100000000E-03 0.  1.
        -12    1    3    3    0    0  0.81794024280E-01 -0.94726624014E+00 -0.82034121620E+01  0.82583275965E+01  0.00000000000E+00 0.  1.
</event>
<event>
 7    1  0.2835316E-011  0.5052886E+02  0.7816164E-02  0.1300439E+00
        -11   -1    0    0    0    0  0.00000000000E+00  0.00000000000E+00  0.45593999997E+02  0.45594000000E+02  0.51100000000E-03 0. -1.
         11   -1    0    0    0    0 -0.00000000000E+00 -0.00000000000E+00 -0.45593999997E+02  0.45594000000E+02  0.51100000000E-03 0.  1.
    9900012    2    1    2    0    0  0.19117918671E+02  0.22589363329E+02  0.27881739359E+02  0.50528861548E+02  0.30000005162E+02 0.  0.
        -12    1    1    2    0    0 -0.19117918671E+02 -0.22589363329E+02 -0.27881739359E+02  0.40659138452E+02  0.00000000000E+00 0.  1.
         11    1    3    3    0    0  0.66576482398E+01  0.15074683740E+01  0.63068898755E+01  0.92937398902E+01  0.51100000000E-03 0. -1.
        -11    1    3    3    0    0  0.48468836068E+01  0.13652998346E+02  0.25960251778E+02  0.29729300650E+02  0.51100000000E-03 0.  1.
        -12    1    3    3    0    0  0.76133868248E+01  0.74288966093E+01 -0.43854022943E+01  0.11505821008E+02  0.00000000000E+00 0.  1.
</event>
<event>
 7    1  0.2835316E-011  0.5052887E+02  0.7816164E-02  0.1300439E+00
        -11   -1    0    0    0    0  0.00000000000E+00  0.00000000000E+00  0.45593999997E+02  0.45594000000E+02  0.51100000000E-03 0.  1.
         11   -1    0    0    0    0 -0.00000000000E+00 -0.00000000000E+00 -0.45593999997E+02  0.45594000000E+02  0.51100000000E-03 0. -1.
    9900012    2    1    2    0    0  0.19724402705E+02  0.35069384183E+02  0.58524679964E+01  0.50528866331E+02  0.30000019700E+02 0.  0.
        -12    1    1    2    0    0 -0.19724402705E+02 -0.35069384183E+02 -0.58524679964E+01  0.40659133669E+02  0.00000000000E+00 0.  1.
         11    1    3    3    0    0  0.93448977380E+01  0.25665879153E+02  0.10214225603E+02  0.29161530676E+02  0.51100000000E-03 0. -1.
        -11    1    3    3    0    0  0.60669168821E+01  0.25283363211E+01  0.55177918274E+01  0.85817242976E+01  0.51100000000E-03 0.  1.
        -12    1    3    3    0    0  0.43125880847E+01  0.68751687089E+01 -0.98795494342E+01  0.12785611358E+02  0.00000000000E+00 0.  1.
</event>
<event>
 7    1  0.2835316E-011  0.5052887E+02  0.7816164E-02  0.1300439E+00
        -11   -1    0    0    0    0  0.00000000000E+00  0.00000000000E+00  0.45593999997E+02  0.45594000000E+02  0.51100000000E-03 0.  1.
         11   -1    0    0    0    0 -0.00000000000E+00 -0.00000000000E+00 -0.45593999997E+02  0.45594000000E+02  0.51100000000E-03 0. -1.
    9900012    2    1    2    0    0 -0.26440926633E+01 -0.79206593689E+00 -0.40565335841E+02  0.50528867368E+02  0.30000022853E+02 0.  0.
        -12    1    1    2    0    0  0.26440926633E+01  0.79206593689E+00  0.40565335841E+02  0.40659132632E+02  0.00000000000E+00 0.  1.
         11    1    3    3    0    0 -0.35705198241E+01 -0.59158219641E+01 -0.34581639315E+01  0.77268660765E+01  0.51100000000E-03 0. -1.
        -11    1    3    3    0    0  0.60676375052E+01  0.84477271800E+00 -0.11565142323E+01  0.62343717623E+01  0.51100000000E-03 0.  1.
        -12    1    3    3    0    0 -0.51412103444E+01  0.42789833093E+01 -0.35950657677E+02  0.36567629529E+02  0.00000000000E+00 0.  1.
</event>
<event>
 7    1  0.2835316E-011  0.5052885E+02  0.7816164E-02  0.1300439E+00
        -11   -1    0    0    0    0  0.00000000000E+00  0.00000000000E+00  0.45593999997E+02  0.45594000000E+02  0.51100000000E-03 0.  1.
         11   -1    0    0    0    0 -0.00000000000E+00 -0.00000000000E+00 -0.45593999997E+02  0.45594000000E+02  0.51100000000E-03 0. -1.
    9900012    2    1    2    0    0  0.36785279995E+02  0.15908564215E+02 -0.68503726907E+01  0.50528845487E+02  0.29999956343E+02 0.  0.
        -12    1    1    2    0    0 -0.36785279995E+02 -0.15908564215E+02  0.68503726907E+01  0.40659154513E+02  0.00000000000E+00 0.  1.
         11    1    3    3    0    0  0.13898939449E+02 -0.42906584620E+01 -0.21026018626E+01  0.14697319575E+02  0.51100000000E-03 0. -1.
        -11    1    3    3    0    0  0.25817687370E+02  0.16074223995E+02 -0.34536000026E+01  0.30608185367E+02  0.51100000000E-03 0.  1.
        -12    1    3    3    0    0 -0.29313468241E+01  0.41249986814E+01 -0.12941708255E+01  0.52233405451E+01  0.00000000000E+00 0.  1.
</event>
<event>
 7    1  0.2835316E-011  0.5052886E+02  0.7816164E-02  0.1300439E+00
        -11   -1    0    0    0    0  0.00000000000E+00  0.00000000000E+00  0.45593999997E+02  0.45594000000E+02  0.51100000000E-03 0.  1.
         11   -1    0    0    0    0 -0.00000000000E+00 -0.00000000000E+00 -0.45593999997E+02  0.45594000000E+02  0.51100000000E-03 0. -1.
    9900012    2    1    2    0    0  0.21922862769E+02 -0.10763493028E+02 -0.32506931474E+02  0.50528864643E+02  0.30000014568E+02 0.  0.
        -12    1    1    2    0    0 -0.21922862769E+02  0.10763493028E+02  0.32506931474E+02  0.40659135357E+02  0.00000000000E+00 0.  1.
         11    1    3    3    0    0  0.12426243954E+02 -0.14847214287E+02 -0.45287831497E+01  0.19883691508E+02  0.51100000000E-03 0.  1.
        -11    1    3    3    0    0  0.39986318051E+01  0.46319243181E+00 -0.19501061837E+02  0.19912182617E+02  0.51100000000E-03 0. -1.
        -12    1    3    3    0    0  0.54979870094E+01  0.36205288269E+01 -0.84770864868E+01  0.10732990517E+02  0.00000000000E+00 0.  1.
</event>
<event>
 7    1  0.2835316E-011  0.5052886E+02  0.7816164E-02  0.1300439E+00
        -11   -1    0    0    0    0  0.00000000000E+00  0.00000000000E+00  0.45593999997E+02  0.45594000000E+02  0.51100000000E-03 0.  1.
         11   -1    0    0    0    0 -0.00000000000E+00 -0.00000000000E+00 -0.45593999997E+02  0.45594000000E+02  0.51100000000E-03 0. -1.
    9900012    2    1    2    0    0  0.27308955165E+02 -0.30119229828E+02 -0.46784217588E+00  0.50528856945E+02  0.29999991171E+02 0.  0.
        -12    1    1    2    0    0 -0.27308955165E+02  0.30119229828E+02  0.46784217588E+00  0.40659143055E+02  0.00000000000E+00 0.  1.
         11    1    3    3    0    0  0.82664775869E+01 -0.71130665592E+01  0.97039161182E+01  0.14597820243E+02  0.51100000000E-03 0. -1.
        -11    1    3    3    0    0 -0.67445490633E+00 -0.42233460506E+01  0.34385936491E+01  0.54877561744E+01  0.51100000000E-03 0.  1.
         12    1    3    3    0    0  0.19716932484E+02 -0.18782817219E+02 -0.13610351943E+02  0.30443280527E+02  0.00000000000E+00 0. -1.
</event>
<event>
 7    1  0.2835316E-011  0.5052886E+02  0.7816164E-02  0.1300439E+00
        -11   -1    0    0    0    0  0.00000000000E+00  0.00000000000E+00  0.45593999997E+02  0.45594000000E+02  0.51100000000E-03 0.  1.
         11   -1    0    0    0    0 -0.00000000000E+00 -0.00000000000E+00 -0.45593999997E+02  0.45594000000E+02  0.51100000000E-03 0. -1.
    9900012    2    1    2    0    0 -0.49101375480E+01  0.32857068131E+02 -0.23440758927E+02  0.50528861347E+02  0.30000004551E+02 0.  0.
        -12    1    1    2    0    0  0.49101375480E+01 -0.32857068131E+02  0.23440758927E+02  0.40659138653E+02  0.00000000000E+00 0.  1.
         11    1    3    3    0    0  0.93326681735E+01  0.77044971868E+01 -0.14983015601E+02  0.19260029307E+02  0.51100000000E-03 0. -1.
        -11    1    3    3    0    0 -0.38891009296E+01  0.88428793960E+01 -0.69321278655E+01  0.11890164804E+02  0.51100000000E-03 0.  1.
        -12    1    3    3    0    0 -0.10353704792E+02  0.16309691548E+02 -0.15256154602E+01  0.19378667236E+02  0.00000000000E+00 0.  1.
</event>
<event>
 7    1  0.2835316E-011  0.5052886E+02  0.7816164E-02  0.1300439E+00
        -11   -1    0    0    0    0  0.00000000000E+00  0.00000000000E+00  0.45593999997E+02  0.45594000000E+02  0.51100000000E-03 0.  1.
         11   -1    0    0    0    0 -0.00000000000E+00 -0.00000000000E+00 -0.45593999997E+02  0.45594000000E+02  0.51100000000E-03 0. -1.
    9900012    2    1    2    0    0  0.10218379679E+02 -0.80493608991E+00 -0.39345933846E+02  0.50528859384E+02  0.29999998585E+02 0.  0.
        -12    1    1    2    0    0 -0.10218379679E+02  0.80493608991E+00  0.39345933846E+02  0.40659140616E+02  0.00000000000E+00 0.  1.
         11    1    3    3    0    0  0.79823211117E+01  0.54688119568E+01 -0.55524821745E+01  0.11155958637E+02  0.51100000000E-03 0. -1.
        -11    1    3    3    0    0 -0.74643105120E+01  0.16600279128E+01 -0.11841790986E+02  0.14096085914E+02  0.51100000000E-03 0.  1.
        -12    1    3    3    0    0  0.97003690791E+01 -0.79337759595E+01 -0.21951660686E+02  0.25276814833E+02  0.00000000000E+00 0.  1.
</event>
<event>
 7    1  0.2835316E-011  0.5052887E+02  0.7816164E-02  0.1300439E+00
        -11   -1    0    0    0    0  0.00000000000E+00  0.00000000000E+00  0.45593999997E+02  0.45594000000E+02  0.51100000000E-03 0.  1.
         11   -1    0    0    0    0 -0.00000000000E+00 -0.00000000000E+00 -0.45593999997E+02  0.45594000000E+02  0.51100000000E-03 0. -1.
    9900012    2    1    2    0    0 -0.58765889714E+01 -0.10601607009E+02 -0.38810265451E+02  0.50528867281E+02  0.30000022587E+02 0.  0.
        -12    1    1    2    0    0  0.58765889714E+01  0.10601607009E+02  0.38810265451E+02  0.40659132719E+02  0.00000000000E+00 0.  1.
         11    1    3    3    0    0 -0.11236855932E+02 -0.49741232690E+01 -0.17697794259E+02  0.21545782776E+02  0.51100000000E-03 0. -1.
        -11    1    3    3    0    0 -0.28804908229E+01  0.49380021611E+01 -0.10239816116E+02  0.11727528600E+02  0.51100000000E-03 0.  1.
        -12    1    3    3    0    0  0.82407577832E+01 -0.10565485901E+02 -0.10872655075E+02  0.17255555904E+02  0.00000000000E+00 0.  1.
</event>
<event>
 7    1  0.2835316E-011  0.5052886E+02  0.7816164E-02  0.1300439E+00
        -11   -1    0    0    0    0  0.00000000000E+00  0.00000000000E+00  0.45593999997E+02  0.45594000000E+02  0.51100000000E-03 0. -1.
         11   -1    0    0    0    0 -0.00000000000E+00 -0.00000000000E+00 -0.45593999997E+02  0.45594000000E+02  0.51100000000E-03 0.  1.
    9900012    2    1    2    0    0 -0.17018239232E+02  0.35991148575E+02  0.82572608155E+01  0.50528860824E+02  0.30000002962E+02 0.  0.
        -12    1    1    2    0    0  0.17018239232E+02 -0.35991148575E+02 -0.82572608155E+01  0.40659139176E+02  0.00000000000E+00 0.  1.
         11    1    3    3    0    0 -0.21006001883E+01  0.17285761691E+02 -0.38982484126E+01  0.17843946294E+02  0.51100000000E-03 0. -1.
        -11    1    3    3    0    0 -0.13550049950E+02  0.38975394524E+01  0.10760599687E+01  0.14140458718E+02  0.51100000000E-03 0.  1.
         12    1    3    3    0    0 -0.13675890933E+01  0.14807847432E+02  0.11079449259E+02  0.18544455813E+02  0.00000000000E+00 0. -1.
</event>
<event>
 7    1  0.2835316E-011  0.5052884E+02  0.7816164E-02  0.1300439E+00
        -11   -1    0    0    0    0  0.00000000000E+00  0.00000000000E+00  0.45593999997E+02  0.45594000000E+02  0.51100000000E-03 0. -1.
         11   -1    0    0    0    0 -0.00000000000E+00 -0.00000000000E+00 -0.45593999997E+02  0.45594000000E+02  0.51100000000E-03 0.  1.
    9900012    2    1    2    0    0  0.11634438701E+02  0.38477026041E+02 -0.61094636823E+01  0.50528840597E+02  0.29999941479E+02 0.  0.
        -12    1    1    2    0    0 -0.11634438701E+02 -0.38477026041E+02  0.61094636823E+01  0.40659159403E+02  0.00000000000E+00 0.  1.
         11    1    3    3    0    0  0.12041959956E+02  0.22048178756E+02 -0.38631844419E+01  0.25417615551E+02  0.51100000000E-03 0. -1.
        -11    1    3    3    0    0 -0.53146073767E+01  0.13070663045E+02 -0.85076887750E+01  0.16476287584E+02  0.51100000000E-03 0.  1.
         12    1    3    3    0    0  0.49070861219E+01  0.33581842404E+01  0.62614095347E+01  0.86349374614E+01  0.00000000000E+00 0. -1.
</event>
<event>
 7    1  0.2910476E-011  0.5052886E+02  0.7816164E-02  0.1300439E+00
        -11   -1    0    0    0    0  0.00000000000E+00  0.00000000000E+00  0.45593999997E+02  0.45594000000E+02  0.51100000000E-03 0. -1.
         11   -1    0    0    0    0 -0.00000000000E+00 -0.00000000000E+00 -0.45593999997E+02  0.45594000000E+02  0.51100000000E-03 0.  1.
    9900012    2    1    2    0    0 -0.20913907984E+02 -0.73334884673E+01  0.34088030515E+02  0.50528862963E+02  0.30000009462E+02 0.  0.
        -12    1    1    2    0    0  0.20913907984E+02  0.73334884673E+01 -0.34088030515E+02  0.40659137037E+02  0.00000000000E+00 0.  1.
         11    1    3    3    0    0 -0.15299431840E+02 -0.52252470588E+01  0.21077090417E+02  0.26563500563E+02  0.51100000000E-03 0. -1.
        -11    1    3    3    0    0 -0.20698442874E+01  0.49112339287E+01  0.14945396109E+02  0.15867241071E+02  0.51100000000E-03 0.  1.
        -12    1    3    3    0    0 -0.35446318564E+01 -0.70194753373E+01 -0.19344560113E+01  0.80981213295E+01  0.00000000000E+00 0.  1.
</event>
<event>
 7    1  0.2835316E-011  0.5052885E+02  0.7816164E-02  0.1300439E+00
        -11   -1    0    0    0    0  0.00000000000E+00  0.00000000000E+00  0.45593999997E+02  0.45594000000E+02  0.51100000000E-03 0.  1.
         11   -1    0    0    0    0 -0.00000000000E+00 -0.00000000000E+00 -0.45593999997E+02  0.45594000000E+02  0.51100000000E-03 0. -1.
    9900012    2    1    2    0    0  0.19966196299E+02  0.26116424459E+02 -0.23925916342E+02  0.50528854732E+02  0.29999984443E+02 0.  0.
        -12    1    1    2    0    0 -0.19966196299E+02 -0.26116424459E+02  0.23925916342E+02  0.40659145268E+02  0.00000000000E+00 0.  1.
         11    1    3    3    0    0  0.72974702530E+01  0.68096522556E+01 -0.16739322752E+02  0.19489211436E+02  0.51100000000E-03 0. -1.
        -11    1    3    3    0    0 -0.40140391968E+01  0.98973648098E+01 -0.48983437661E+01  0.11750068628E+02  0.51100000000E-03 0.  1.
         12    1    3    3    0    0  0.16682765242E+02  0.94094073932E+01 -0.22882498236E+01  0.19289574668E+02  0.00000000000E+00 0. -1.
</event>
<event>
 7    1  0.2835316E-011  0.5052887E+02  0.7816164E-02  0.1300439E+00
        -11   -1    0    0    0    0  0.00000000000E+00  0.00000000000E+00  0.45593999997E+02  0.45594000000E+02  0.51100000000E-03 0. -1.
         11   -1    0    0    0    0 -0.00000000000E+00 -0.00000000000E+00 -0.45593999997E+02  0.45594000000E+02  0.51100000000E-03 0.  1.
    9900012    2    1    2    0    0  0.36415932167E+02  0.31735255916E+01  0.17803739843E+02  0.50528873931E+02  0.30000042802E+02 0.  0.
        -12    1    1    2    0    0 -0.36415932167E+02 -0.31735255916E+01 -0.17803739843E+02  0.40659126069E+02  0.00000000000E+00 0.  1.
         11    1    3    3    0    0  0.15789679955E+02 -0.23729608479E+01  0.77510902180E+01  0.17748924928E+02  0.51100000000E-03 0. -1.
        -11    1    3    3    0    0  0.12664822069E+02  0.30070536010E+01  0.17346883802E+02  0.21687657026E+02  0.51100000000E-03 0.  1.
        -12    1    3    3    0    0  0.79614301432E+01  0.25394328385E+01 -0.72942341774E+01  0.11092291977E+02  0.00000000000E+00 0.  1.
</event>
<event>
 7    1  0.2835316E-011  0.5052886E+02  0.7816164E-02  0.1300439E+00
        -11   -1    0    0    0    0  0.00000000000E+00  0.00000000000E+00  0.45593999997E+02  0.45594000000E+02  0.51100000000E-03 0.  1.
         11   -1    0    0    0    0 -0.00000000000E+00 -0.00000000000E+00 -0.45593999997E+02  0.45594000000E+02  0.51100000000E-03 0. -1.
    9900012    2    1    2    0    0  0.18754367535E+02 -0.30619599592E+01 -0.35945283983E+02  0.50528863990E+02  0.30000012585E+02 0.  0.
        -12    1    1    2    0    0 -0.18754367535E+02  0.30619599592E+01  0.35945283983E+02  0.40659136010E+02  0.00000000000E+00 0.  1.
         11    1    3    3    0    0 -0.36220685041E+01  0.38063309632E+01 -0.41384099876E+01  0.66883460688E+01  0.51100000000E-03 0. -1.
        -11    1    3    3    0    0  0.29527761774E-01  0.36785553835E+01 -0.15082900553E+00  0.36817646921E+01  0.51100000000E-03 0.  1.
         12    1    3    3    0    0  0.22346908278E+02 -0.10546846306E+02 -0.31656044990E+02  0.40158753230E+02  0.00000000000E+00 0. -1.
</event>
<event>
 7    1  0.2835316E-011  0.5052884E+02  0.7816164E-02  0.1300439E+00
        -11   -1    0    0    0    0  0.00000000000E+00  0.00000000000E+00  0.45593999997E+02  0.45594000000E+02  0.51100000000E-03 0. -1.
         11   -1    0    0    0    0 -0.00000000000E+00 -0.00000000000E+00 -0.45593999997E+02  0.45594000000E+02  0.51100000000E-03 0.  1.
    9900012    2    1    2    0    0 -0.60273319680E+01  0.39555809449E+02  0.72233556750E+01  0.50528835485E+02  0.29999925940E+02 0.  0.
        -12    1    1    2    0    0  0.60273319680E+01 -0.39555809449E+02 -0.72233556750E+01  0.40659164515E+02  0.00000000000E+00 0.  1.
         11    1    3    3    0    0 -0.11617935925E+02  0.20173902573E+02  0.80038978551E+01  0.24617578300E+02  0.51100000000E-03 0. -1.
        -11    1    3    3    0    0 -0.27932376981E+01 -0.83828277870E+00 -0.26522595146E+01  0.39420014776E+01  0.51100000000E-03 0.  1.
         12    1    3    3    0    0  0.83838416555E+01  0.20220189655E+02  0.18717173345E+01  0.21969255708E+02  0.00000000000E+00 0. -1.
</event>
<event>
 7    1  0.2835316E-011  0.5052885E+02  0.7816164E-02  0.1300439E+00
        -11   -1    0    0    0    0  0.00000000000E+00  0.00000000000E+00  0.45593999997E+02  0.45594000000E+02  0.51100000000E-03 0. -1.
         11   -1    0    0    0    0 -0.00000000000E+00 -0.00000000000E+00 -0.45593999997E+02  0.45594000000E+02  0.51100000000E-03 0.  1.
    9900012    2    1    2    0    0 -0.25171625276E+02 -0.31541956736E+02  0.49659611200E+01  0.50528849448E+02  0.29999968382E+02 0.  0.
        -12    1    1    2    0    0  0.25171625276E+02  0.31541956736E+02 -0.49659611200E+01  0.40659150552E+02  0.00000000000E+00 0.  1.
         11    1    3    3    0    0 -0.20698849977E+02 -0.30924332619E+02  0.29107512260E+01  0.37325985738E+02  0.51100000000E-03 0. -1.
        -11    1    3    3    0    0 -0.86865552798E+01 -0.10049495735E+01  0.75962430488E+00  0.87774253412E+01  0.51100000000E-03 0.  1.
        -12    1    3    3    0    0  0.42137799810E+01  0.38732545682E+00  0.12955855891E+01  0.44254383688E+01  0.00000000000E+00 0.  1.
</event>
<event>
 7    1  0.2835316E-011  0.5052887E+02  0.7816164E-02  0.1300439E+00
        -11   -1    0    0    0    0  0.00000000000E+00  0.00000000000E+00  0.45593999997E+02  0.45594000000E+02  0.51100000000E-03 0.  1.
         11   -1    0    0    0    0 -0.00000000000E+00 -0.00000000000E+00 -0.45593999997E+02  0.45594000000E+02  0.51100000000E-03 0. -1.
    9900012    2    1    2    0    0 -0.34025764613E+01 -0.24629842096E+02 -0.32170770227E+02  0.50528866890E+02  0.30000021399E+02 0.  0.
        -12    1    1    2    0    0  0.34025764613E+01  0.24629842096E+02  0.32170770227E+02  0.40659133110E+02  0.00000000000E+00 0.  1.
         11    1    3    3    0    0  0.67624163258E+00  0.46863466503E+01 -0.70907036430E+00  0.47876851103E+01  0.51100000000E-03 0. -1.
        -11    1    3    3    0    0  0.51559727805E+01 -0.70935240512E+01 -0.55496952521E+01  0.10377921585E+02  0.51100000000E-03 0.  1.
         12    1    3    3    0    0 -0.92347908744E+01 -0.22222664695E+02 -0.25912004610E+02  0.35363260195E+02  0.00000000000E+00 0. -1.
</event>
<event>
 7    1  0.2835316E-011  0.5052887E+02  0.7816164E-02  0.1300439E+00
        -11   -1    0    0    0    0  0.00000000000E+00  0.00000000000E+00  0.45593999997E+02  0.45594000000E+02  0.51100000000E-03 0. -1.
         11   -1    0    0    0    0 -0.00000000000E+00 -0.00000000000E+00 -0.45593999997E+02  0.45594000000E+02  0.51100000000E-03 0.  1.
    9900012    2    1    2    0    0  0.37552488115E+02  0.95096463996E+01  0.12350807569E+02  0.50528865899E+02  0.30000018386E+02 0.  0.
        -12    1    1    2    0    0 -0.37552488115E+02 -0.95096463996E+01 -0.12350807569E+02  0.40659134101E+02  0.00000000000E+00 0.  1.
         11    1    3    3    0    0  0.68147968859E+01  0.22179228984E+01  0.58105909366E+01  0.92262454917E+01  0.51100000000E-03 0. -1.
        -11    1    3    3    0    0 -0.77379790398E+00 -0.53608832750E+01  0.49036881596E+01  0.73064348702E+01  0.51100000000E-03 0.  1.
         12    1    3    3    0    0  0.31511489133E+02  0.12652606776E+02  0.16365284724E+01  0.33996185537E+02  0.00000000000E+00 0. -1.
</event>
<event>
 7    1  0.2835316E-011  0.5052886E+02  0.7816164E-02  0.1300439E+00
        -11   -1    0    0    0    0  0.00000000000E+00  0.00000000000E+00  0.45593999997E+02  0.45594000000E+02  0.51100000000E-03 0. -1.
         11   -1    0    0    0    0 -0.00000000000E+00 -0.00000000000E+00 -0.45593999997E+02  0.45594000000E+02  0.51100000000E-03 0.  1.
    9900012    2    1    2    0    0 -0.56479227421E+01 -0.17426636001E+02  0.36298475609E+02  0.50528855824E+02  0.29999987762E+02 0.  0.
        -12    1    1    2    0    0  0.56479227421E+01  0.17426636001E+02 -0.36298475609E+02  0.40659144176E+02  0.00000000000E+00 0.  1.
         11    1    3    3    0    0 -0.52307022506E+01  0.26547349124E+01  0.21200745694E+02  0.21997260778E+02  0.51100000000E-03 0. -1.
        -11    1    3    3    0    0  0.45725911141E+01 -0.39009277510E+01  0.83860586583E+01  0.10317548493E+02  0.51100000000E-03 0.  1.
         12    1    3    3    0    0 -0.49898116055E+01 -0.16180443162E+02  0.67116712567E+01  0.18214046553E+02  0.00000000000E+00 0. -1.
</event>
<event>
 7    1  0.2835316E-011  0.5052886E+02  0.7816164E-02  0.1300439E+00
        -11   -1    0    0    0    0  0.00000000000E+00  0.00000000000E+00  0.45593999997E+02  0.45594000000E+02  0.51100000000E-03 0. -1.
         11   -1    0    0    0    0 -0.00000000000E+00 -0.00000000000E+00 -0.45593999997E+02  0.45594000000E+02  0.51100000000E-03 0.  1.
    9900012    2    1    2    0    0  0.19516142496E+02  0.13951296780E+02  0.32827531020E+02  0.50528864585E+02  0.30000014394E+02 0.  0.
        -12    1    1    2    0    0 -0.19516142496E+02 -0.13951296780E+02 -0.32827531020E+02  0.40659135415E+02  0.00000000000E+00 0.  1.
         11    1    3    3    0    0  0.12751786051E+02  0.78352103646E+01  0.32258103118E+02  0.35560986853E+02  0.51100000000E-03 0. -1.
        -11    1    3    3    0    0 -0.17357785027E+00 -0.26382942838E+01  0.24921289325E+01  0.36333776126E+01  0.51100000000E-03 0.  1.
         12    1    3    3    0    0  0.69379342951E+01  0.87543806993E+01 -0.19227010300E+01  0.11334500120E+02  0.00000000000E+00 0. -1.
</event>
<event>
 7    1  0.2835316E-011  0.5052887E+02  0.7816164E-02  0.1300439E+00
        -11   -1    0    0    0    0  0.00000000000E+00  0.00000000000E+00  0.45593999997E+02  0.45594000000E+02  0.51100000000E-03 0.  1.
         11   -1    0    0    0    0 -0.00000000000E+00 -0.00000000000E+00 -0.45593999997E+02  0.45594000000E+02  0.51100000000E-03 0. -1.
    9900012    2    1    2    0    0  0.54008433063E+01 -0.38492768053E+02 -0.11929050566E+02  0.50528873740E+02  0.30000042220E+02 0.  0.
        -12    1    1    2    0    0 -0.54008433063E+01  0.38492768053E+02  0.11929050566E+02  0.40659126260E+02  0.00000000000E+00 0.  1.
         11    1    3    3    0    0 -0.35070314917E+01 -0.80465764707E+01 -0.20665922868E+01  0.90176197926E+01  0.51100000000E-03 0. -1.
        -11    1    3    3    0    0 -0.66288713689E+01 -0.21026044252E+02 -0.69077444646E+01  0.23103103825E+02  0.51100000000E-03 0.  1.
         12    1    3    3    0    0  0.15536746167E+02 -0.94201473305E+01 -0.29547138142E+01  0.18408150122E+02  0.00000000000E+00 0. -1.
</event>
<event>
 7    1  0.2835316E-011  0.5052885E+02  0.7816164E-02  0.1300439E+00
        -11   -1    0    0    0    0  0.00000000000E+00  0.00000000000E+00  0.45593999997E+02  0.45594000000E+02  0.51100000000E-03 0.  1.
         11   -1    0    0    0    0 -0.00000000000E+00 -0.00000000000E+00 -0.45593999997E+02  0.45594000000E+02  0.51100000000E-03 0. -1.
    9900012    2    1    2    0    0  0.30478724891E+02 -0.87766375401E+01 -0.25439812579E+02  0.50528854638E+02  0.29999984159E+02 0.  0.
        -12    1    1    2    0    0 -0.30478724891E+02  0.87766375401E+01  0.25439812579E+02  0.40659145362E+02  0.00000000000E+00 0.  1.
         11    1    3    3    0    0  0.21596665028E+02  0.23451019779E+01 -0.13269174488E+02  0.25455577689E+02  0.51100000000E-03 0. -1.
        -11    1    3    3    0    0  0.10864180851E+02 -0.77419726563E+01 -0.15123889898E+02  0.20166819583E+02  0.51100000000E-03 0.  1.
        -12    1    3    3    0    0 -0.19821209883E+01 -0.33797668618E+01  0.29532518074E+01  0.49064573666E+01  0.00000000000E+00 0.  1.
</event>
<event>
 7    1  0.2835316E-011  0.5052885E+02  0.7816164E-02  0.1300439E+00
        -11   -1    0    0    0    0  0.00000000000E+00  0.00000000000E+00  0.45593999997E+02  0.45594000000E+02  0.51100000000E-03 0.  1.
         11   -1    0    0    0    0 -0.00000000000E+00 -0.00000000000E+00 -0.45593999997E+02  0.45594000000E+02  0.51100000000E-03 0. -1.
    9900012    2    1    2    0    0  0.28455858138E+02  0.82240235672E+01 -0.27853115205E+02  0.50528850321E+02  0.29999971036E+02 0.  0.
        -12    1    1    2    0    0 -0.28455858138E+02 -0.82240235672E+01  0.27853115205E+02  0.40659149679E+02  0.00000000000E+00 0.  1.
         11    1    3    3    0    0  0.82294947043E+01  0.10338746137E+02 -0.18400253551E+02  0.22653555698E+02  0.51100000000E-03 0. -1.
        -11    1    3    3    0    0  0.55236190729E+01 -0.41852089892E+01 -0.10943073728E+02  0.12952884035E+02  0.51100000000E-03 0.  1.
        -12    1    3    3    0    0  0.14702744360E+02  0.20704864195E+01  0.14902120735E+01  0.14922410588E+02  0.00000000000E+00 0.  1.
</event>
<event>
 7    1  0.2835316E-011  0.5052887E+02  0.7816164E-02  0.1300439E+00
        -11   -1    0    0    0    0  0.00000000000E+00  0.00000000000E+00  0.45593999997E+02  0.45594000000E+02  0.51100000000E-03 0.  1.
         11   -1    0    0    0    0 -0.00000000000E+00 -0.00000000000E+00 -0.45593999997E+02  0.45594000000E+02  0.51100000000E-03 0. -1.
    9900012    2    1    2    0    0 -0.11508336644E+02  0.12553801900E+02 -0.36920529458E+02  0.50528865111E+02  0.30000015991E+02 0.  0.
        -12    1    1    2    0    0  0.11508336644E+02 -0.12553801900E+02  0.36920529458E+02  0.40659134889E+02  0.00000000000E+00 0.  1.
         11    1    3    3    0    0  0.22994699700E+01  0.44721224892E+01 -0.24856515792E+02  0.25360083188E+02  0.51100000000E-03 0. -1.
        -11    1    3    3    0    0 -0.36489246197E+00  0.69167274407E+01  0.20804650755E+00  0.69294695762E+01  0.51100000000E-03 0.  1.
        -12    1    3    3    0    0 -0.13442914152E+02  0.11649519699E+01 -0.12272060174E+02  0.18239312347E+02  0.00000000000E+00 0.  1.
</event>
<event>
 7    1  0.2835316E-011  0.5052886E+02  0.7816164E-02  0.1300439E+00
        -11   -1    0    0    0    0  0.00000000000E+00  0.00000000000E+00  0.45593999997E+02  0.45594000000E+02  0.51100000000E-03 0.  1.
         11   -1    0    0    0    0 -0.00000000000E+00 -0.00000000000E+00 -0.45593999997E+02  0.45594000000E+02  0.51100000000E-03 0. -1.
    9900012    2    1    2    0    0 -0.30399265900E+01  0.20871127019E+02 -0.34760909531E+02  0.50528856771E+02  0.29999990641E+02 0.  0.
        -12    1    1    2    0    0  0.30399265900E+01 -0.20871127019E+02  0.34760909531E+02  0.40659143229E+02  0.00000000000E+00 0.  1.
         11    1    3    3    0    0 -0.40463992770E+01  0.91660756158E+01 -0.28626570303E+02  0.30329372181E+02  0.51100000000E-03 0. -1.
        -11    1    3    3    0    0 -0.68899624536E+01  0.37781309662E+01 -0.11156602459E+01  0.79366588849E+01  0.51100000000E-03 0.  1.
        -12    1    3    3    0    0  0.78964351406E+01  0.79269204375E+01 -0.50186789812E+01  0.12262825705E+02  0.00000000000E+00 0.  1.
</event>
<event>
 7    1  0.2835316E-011  0.5052886E+02  0.7816164E-02  0.1300439E+00
        -11   -1    0    0    0    0  0.00000000000E+00  0.00000000000E+00  0.45593999997E+02  0.45594000000E+02  0.51100000000E-03 0.  1.
         11   -1    0    0    0    0 -0.00000000000E+00 -0.00000000000E+00 -0.45593999997E+02  0.45594000000E+02  0.51100000000E-03 0. -1.
    9900012    2    1    2    0    0 -0.22783327592E+02  0.80256816228E+01 -0.32705871534E+02  0.50528860628E+02  0.30000002366E+02 0.  0.
        -12    1    1    2    0    0  0.22783327592E+02 -0.80256816228E+01  0.32705871534E+02  0.40659139372E+02  0.00000000000E+00 0.  1.
         11    1    3    3    0    0 -0.10774846233E+02 -0.18107868896E+01 -0.16129664469E+02  0.19481846336E+02  0.51100000000E-03 0. -1.
        -11    1    3    3    0    0 -0.90336359011E+01 -0.44841030443E+01 -0.17788494920E+01  0.10240999145E+02  0.51100000000E-03 0.  1.
         12    1    3    3    0    0 -0.29748454585E+01  0.14320571557E+02 -0.14797357572E+02  0.20806015148E+02  0.00000000000E+00 0. -1.
</event>
<event>
 7    1  0.2835316E-011  0.5052886E+02  0.7816164E-02  0.1300439E+00
        -11   -1    0    0    0    0  0.00000000000E+00  0.00000000000E+00  0.45593999997E+02  0.45594000000E+02  0.51100000000E-03 0.  1.
         11   -1    0    0    0    0 -0.00000000000E+00 -0.00000000000E+00 -0.45593999997E+02  0.45594000000E+02  0.51100000000E-03 0. -1.
    9900012    2    1    2    0    0  0.10172918788E+02 -0.39158664615E+02 -0.40344038366E+01  0.50528859509E+02  0.29999998964E+02 0.  0.
        -12    1    1    2    0    0 -0.10172918788E+02  0.39158664615E+02  0.40344038366E+01  0.40659140491E+02  0.00000000000E+00 0.  1.
         11    1    3    3    0    0  0.53233487114E+01 -0.11774843340E+02 -0.11670927475E+02  0.17412510605E+02  0.51100000000E-03 0. -1.
        -11    1    3    3    0    0 -0.50490806426E+01 -0.16055295363E+02  0.15994836242E+01  0.16906332324E+02  0.51100000000E-03 0.  1.
        -12    1    3    3    0    0  0.98986507190E+01 -0.11328525912E+02  0.60370400138E+01  0.16210016580E+02  0.00000000000E+00 0.  1.
</event>
<event>
 7    1  0.2835316E-011  0.5052886E+02  0.7816164E-02  0.1300439E+00
        -11   -1    0    0    0    0  0.00000000000E+00  0.00000000000E+00  0.45593999997E+02  0.45594000000E+02  0.51100000000E-03 0.  1.
         11   -1    0    0    0    0 -0.00000000000E+00 -0.00000000000E+00 -0.45593999997E+02  0.45594000000E+02  0.51100000000E-03 0. -1.
    9900012    2    1    2    0    0  0.32488130056E+02 -0.23950608528E+02  0.49045954211E+01  0.50528864500E+02  0.30000014134E+02 0.  0.
        -12    1    1    2    0    0 -0.32488130056E+02  0.23950608528E+02 -0.49045954211E+01  0.40659135500E+02  0.00000000000E+00 0.  1.
         11    1    3    3    0    0  0.10097116943E+02 -0.13905990029E+02  0.93177803432E+00  0.17210361409E+02  0.51100000000E-03 0. -1.
        -11    1    3    3    0    0  0.77939771621E+01  0.18228893883E+01  0.10679557039E+02  0.13346233347E+02  0.51100000000E-03 0.  1.
         12    1    3    3    0    0  0.14597035951E+02 -0.11867507887E+02 -0.67067396524E+01  0.19972269745E+02  0.00000000000E+00 0. -1.
</event>
<event>
 7    1  0.2835316E-011  0.5052886E+02  0.7816164E-02  0.1300439E+00
        -11   -1    0    0    0    0  0.00000000000E+00  0.00000000000E+00  0.45593999997E+02  0.45594000000E+02  0.51100000000E-03 0.  1.
         11   -1    0    0    0    0 -0.00000000000E+00 -0.00000000000E+00 -0.45593999997E+02  0.45594000000E+02  0.51100000000E-03 0. -1.
    9900012    2    1    2    0    0 -0.29856261618E+02 -0.93150004508E+01 -0.25980759510E+02  0.50528862577E+02  0.30000008290E+02 0.  0.
        -12    1    1    2    0    0  0.29856261618E+02  0.93150004508E+01  0.25980759510E+02  0.40659137423E+02  0.00000000000E+00 0.  1.
         11    1    3    3    0    0 -0.15357298382E+02 -0.15270423026E+01 -0.60170286867E+01  0.16564513463E+02  0.51100000000E-03 0. -1.
        -11    1    3    3    0    0 -0.13273031893E+02 -0.12819255332E+02 -0.65418463219E+01  0.19578111157E+02  0.51100000000E-03 0.  1.
        -12    1    3    3    0    0 -0.12259313436E+01  0.50312971838E+01 -0.13421884502E+02  0.14386237958E+02  0.00000000000E+00 0.  1.
</event>
<event>
 7    1  0.2835316E-011  0.5052886E+02  0.7816164E-02  0.1300439E+00
        -11   -1    0    0    0    0  0.00000000000E+00  0.00000000000E+00  0.45593999997E+02  0.45594000000E+02  0.51100000000E-03 0.  1.
         11   -1    0    0    0    0 -0.00000000000E+00 -0.00000000000E+00 -0.45593999997E+02  0.45594000000E+02  0.51100000000E-03 0. -1.
    9900012    2    1    2    0    0  0.61791032828E+01  0.31839603675E+01 -0.40060538761E+02  0.50528859738E+02  0.29999999659E+02 0.  0.
        -12    1    1    2    0    0 -0.61791032828E+01 -0.31839603675E+01  0.40060538761E+02  0.40659140262E+02  0.00000000000E+00 0.  1.
         11    1    3    3    0    0  0.66267012948E+00 -0.82402580126E+01 -0.21824834182E+02  0.23338045572E+02  0.51100000000E-03 0. -1.
        -11    1    3    3    0    0  0.58305906164E+01  0.18024382116E+01 -0.16254151967E+02  0.17362085902E+02  0.51100000000E-03 0.  1.
        -12    1    3    3    0    0 -0.31415746308E+00  0.96217801685E+01 -0.19815526128E+01  0.98287282636E+01  0.00000000000E+00 0.  1.
</event>
<event>
 7    1  0.2835316E-011  0.5052884E+02  0.7816164E-02  0.1300439E+00
        -11   -1    0    0    0    0  0.00000000000E+00  0.00000000000E+00  0.45593999997E+02  0.45594000000E+02  0.51100000000E-03 0.  1.
         11   -1    0    0    0    0 -0.00000000000E+00 -0.00000000000E+00 -0.45593999997E+02  0.45594000000E+02  0.51100000000E-03 0. -1.
    9900012    2    1    2    0    0  0.30128112611E+02 -0.26997611997E+02 -0.40734671557E+01  0.50528839191E+02  0.29999937205E+02 0.  0.
        -12    1    1    2    0    0 -0.30128112611E+02  0.26997611997E+02  0.40734671557E+01  0.40659160809E+02  0.00000000000E+00 0.  1.
         11    1    3    3    0    0  0.12044643064E+02 -0.11190916032E+01 -0.44919187144E+01  0.12903609052E+02  0.51100000000E-03 0. -1.
        -11    1    3    3    0    0  0.81837005302E+01 -0.12066848600E+02 -0.10011540795E+02  0.17686512908E+02  0.51100000000E-03 0.  1.
        -12    1    3    3    0    0  0.98997690169E+01 -0.13811671793E+02  0.10429992354E+02  0.19938717231E+02  0.00000000000E+00 0.  1.
</event>
<event>
 7    1  0.2835316E-011  0.5052886E+02  0.7816164E-02  0.1300439E+00
        -11   -1    0    0    0    0  0.00000000000E+00  0.00000000000E+00  0.45593999997E+02  0.45594000000E+02  0.51100000000E-03 0. -1.
         11   -1    0    0    0    0 -0.00000000000E+00 -0.00000000000E+00 -0.45593999997E+02  0.45594000000E+02  0.51100000000E-03 0.  1.
    9900012    2    1    2    0    0 -0.11145151579E+02 -0.15907534271E+02  0.35719765877E+02  0.50528859273E+02  0.29999998248E+02 0.  0.
        -12    1    1    2    0    0  0.11145151579E+02  0.15907534271E+02 -0.35719765877E+02  0.40659140727E+02  0.00000000000E+00 0.  1.
         11    1    3    3    0    0 -0.13829403042E+01 -0.18224639776E+02  0.20689813977E+02  0.27606492379E+02  0.51100000000E-03 0. -1.
        -11    1    3    3    0    0 -0.84665810070E+01 -0.25926467196E+01  0.15470677131E+02  0.17825449843E+02  0.51100000000E-03 0.  1.
        -12    1    3    3    0    0 -0.12956302676E+01  0.49097522241E+01 -0.44072523086E+00  0.50969170507E+01  0.00000000000E+00 0.  1.
</event>
<event>
 7    1  0.2835316E-011  0.5052886E+02  0.7816164E-02  0.1300439E+00
        -11   -1    0    0    0    0  0.00000000000E+00  0.00000000000E+00  0.45593999997E+02  0.45594000000E+02  0.51100000000E-03 0.  1.
         11   -1    0    0    0    0 -0.00000000000E+00 -0.00000000000E+00 -0.45593999997E+02  0.45594000000E+02  0.51100000000E-03 0. -1.
    9900012    2    1    2    0    0  0.16744194122E+02 -0.14411722389E+02 -0.34133561559E+02  0.50528858301E+02  0.29999995291E+02 0.  0.
        -12    1    1    2    0    0 -0.16744194122E+02  0.14411722389E+02  0.34133561559E+02  0.40659141699E+02  0.00000000000E+00 0.  1.
         11    1    3    3    0    0 -0.38345716232E+01 -0.30180193870E+01 -0.14440094914E+02  0.15242333218E+02  0.51100000000E-03 0. -1.
        -11    1    3    3    0    0  0.12872614105E+02  0.17320019645E+01 -0.13836923077E+02  0.18977999505E+02  0.51100000000E-03 0.  1.
        -12    1    3    3    0    0  0.77061516395E+01 -0.13125704966E+02 -0.58565435693E+01  0.16308525578E+02  0.00000000000E+00 0.  1.
</event>
<event>
 7    1  0.2835316E-011  0.5052886E+02  0.7816164E-02  0.1300439E+00
        -11   -1    0    0    0    0  0.00000000000E+00  0.00000000000E+00  0.45593999997E+02  0.45594000000E+02  0.51100000000E-03 0.  1.
         11   -1    0    0    0    0 -0.00000000000E+00 -0.00000000000E+00 -0.45593999997E+02  0.45594000000E+02  0.51100000000E-03 0. -1.
    9900012    2    1    2    0    0  0.24287138208E+02  0.43549392243E+01 -0.32316172041E+02  0.50528861379E+02  0.30000004648E+02 0.  0.
        -12    1    1    2    0    0 -0.24287138208E+02 -0.43549392243E+01  0.32316172041E+02  0.40659138621E+02  0.00000000000E+00 0.  1.
         11    1    3    3    0    0  0.56699419794E+01 -0.66855558294E+00  0.31583441308E+01  0.65245955067E+01  0.51100000000E-03 0. -1.
        -11    1    3    3    0    0 -0.24945098988E+01  0.25240554023E+01 -0.11139200311E+02  0.11690817727E+02  0.51100000000E-03 0.  1.
         12    1    3    3    0    0  0.21111706128E+02  0.24994394050E+01 -0.24335315861E+02  0.32313448145E+02  0.00000000000E+00 0. -1.
</event>
<event>
 7    1  0.2835316E-011  0.5052886E+02  0.7816164E-02  0.1300439E+00
        -11   -1    0    0    0    0  0.00000000000E+00  0.00000000000E+00  0.45593999997E+02  0.45594000000E+02  0.51100000000E-03 0.  1.
         11   -1    0    0    0    0 -0.00000000000E+00 -0.00000000000E+00 -0.45593999997E+02  0.45594000000E+02  0.51100000000E-03 0. -1.
    9900012    2    1    2    0    0  0.89431197593E+01  0.29325635615E+01 -0.39554848709E+02  0.50528863555E+02  0.30000011262E+02 0.  0.
        -12    1    1    2    0    0 -0.89431197593E+01 -0.29325635615E+01  0.39554848709E+02  0.40659136445E+02  0.00000000000E+00 0.  1.
         11    1    3    3    0    0  0.35858500309E+01  0.82199939389E+01 -0.37145879201E+02  0.38213125529E+02  0.51100000000E-03 0. -1.
        -11    1    3    3    0    0 -0.91664568807E+00 -0.50399068968E+01 -0.31182116511E+01  0.59970113397E+01  0.51100000000E-03 0.  1.
        -12    1    3    3    0    0  0.62739154164E+01 -0.24752348060E+00  0.70924214314E+00  0.63187266869E+01  0.00000000000E+00 0.  1.
</event>
<event>
 7    1  0.2835316E-011  0.5052885E+02  0.7816164E-02  0.1300439E+00
        -11   -1    0    0    0    0  0.00000000000E+00  0.00000000000E+00  0.45593999997E+02  0.45594000000E+02  0.51100000000E-03 0. -1.
         11   -1    0    0    0    0 -0.00000000000E+00 -0.00000000000E+00 -0.45593999997E+02  0.45594000000E+02  0.51100000000E-03 0.  1.
    9900012    2    1    2    0    0  0.30460581819E+02  0.23835757432E+02  0.12536974627E+02  0.50528854536E+02  0.29999983847E+02 0.  0.
        -12    1    1    2    0    0 -0.30460581819E+02 -0.23835757432E+02 -0.12536974627E+02  0.40659145464E+02  0.00000000000E+00 0.  1.
         11    1    3    3    0    0  0.23183438392E+02  0.19997702352E+02 -0.44644782228E+00  0.30619915594E+02  0.51100000000E-03 0. -1.
        -11    1    3    3    0    0 -0.10735146220E+01  0.52794129694E+01  0.14174790172E+01  0.55708062226E+01  0.51100000000E-03 0.  1.
        -12    1    3    3    0    0  0.83506580490E+01 -0.14413578902E+01  0.11565943432E+02  0.14338132720E+02  0.00000000000E+00 0.  1.
</event>
<event>
 7    1  0.2835316E-011  0.5052886E+02  0.7816164E-02  0.1300439E+00
        -11   -1    0    0    0    0  0.00000000000E+00  0.00000000000E+00  0.45593999997E+02  0.45594000000E+02  0.51100000000E-03 0.  1.
         11   -1    0    0    0    0 -0.00000000000E+00 -0.00000000000E+00 -0.45593999997E+02  0.45594000000E+02  0.51100000000E-03 0. -1.
    9900012    2    1    2    0    0  0.34968713909E+02 -0.35473672569E+01 -0.20439440957E+02  0.50528861869E+02  0.30000006138E+02 0.  0.
        -12    1    1    2    0    0 -0.34968713909E+02  0.35473672569E+01  0.20439440957E+02  0.40659138131E+02  0.00000000000E+00 0.  1.
         11    1    3    3    0    0  0.44449369228E+00  0.31679539622E+00  0.44664445416E+01  0.44996734403E+01  0.51100000000E-03 0.  1.
        -11    1    3    3    0    0  0.80982763433E+01 -0.86527907576E+01 -0.78037485660E+01  0.14189832965E+02  0.51100000000E-03 0. -1.
        -12    1    3    3    0    0  0.26425943873E+02  0.47886281045E+01 -0.17102136932E+02  0.31839355464E+02  0.00000000000E+00 0.  1.
</event>
<event>
 7    1  0.2835316E-011  0.5052886E+02  0.7816164E-02  0.1300439E+00
        -11   -1    0    0    0    0  0.00000000000E+00  0.00000000000E+00  0.45593999997E+02  0.45594000000E+02  0.51100000000E-03 0.  1.
         11   -1    0    0    0    0 -0.00000000000E+00 -0.00000000000E+00 -0.45593999997E+02  0.45594000000E+02  0.51100000000E-03 0. -1.
    9900012    2    1    2    0    0  0.17532540255E+02  0.38030774790E+01 -0.36487152783E+02  0.50528859769E+02  0.29999999753E+02 0.  0.
        -12    1    1    2    0    0 -0.17532540255E+02 -0.38030774790E+01  0.36487152783E+02  0.40659140231E+02  0.00000000000E+00 0.  1.
         11    1    3    3    0    0 -0.45349151773E+01  0.72682389103E+01 -0.79356551804E+01  0.11677644280E+02  0.51100000000E-03 0. -1.
        -11    1    3    3    0    0  0.53150263860E+01  0.12013847820E+01 -0.33555451925E-01  0.54492161921E+01  0.51100000000E-03 0.  1.
         12    1    3    3    0    0  0.16752429046E+02 -0.46665462133E+01 -0.28517942151E+02  0.33401999297E+02  0.00000000000E+00 0. -1.
</event>
<event>
 7    1  0.2835316E-011  0.5052886E+02  0.7816164E-02  0.1300439E+00
        -11   -1    0    0    0    0  0.00000000000E+00  0.00000000000E+00  0.45593999997E+02  0.45594000000E+02  0.51100000000E-03 0. -1.
         11   -1    0    0    0    0 -0.00000000000E+00 -0.00000000000E+00 -0.45593999997E+02  0.45594000000E+02  0.51100000000E-03 0.  1.
    9900012    2    1    2    0    0 -0.77592526554E+00 -0.24462081418E+02  0.32467983351E+02  0.50528862894E+02  0.30000009252E+02 0.  0.
        -12    1    1    2    0    0  0.77592526554E+00  0.24462081418E+02 -0.32467983351E+02  0.40659137106E+02  0.00000000000E+00 0.  1.
         11    1    3    3    0    0  0.79206036791E+01 -0.16298658463E+02  0.14519636897E+02  0.23220725359E+02  0.51100000000E-03 0. -1.
        -11    1    3    3    0    0  0.36484747335E+01  0.21399254899E+01  0.56839164739E+01  0.70850233399E+01  0.51100000000E-03 0.  1.
        -12    1    3    3    0    0 -0.12345003678E+02 -0.10303348445E+02  0.12264429981E+02  0.20223114195E+02  0.00000000000E+00 0.  1.
</event>
<event>
 7    1  0.2835316E-011  0.5052885E+02  0.7816164E-02  0.1300439E+00
        -11   -1    0    0    0    0  0.00000000000E+00  0.00000000000E+00  0.45593999997E+02  0.45594000000E+02  0.51100000000E-03 0. -1.
         11   -1    0    0    0    0 -0.00000000000E+00 -0.00000000000E+00 -0.45593999997E+02  0.45594000000E+02  0.51100000000E-03 0.  1.
    9900012    2    1    2    0    0  0.38905504743E+02  0.69780357779E+01  0.95307378422E+01  0.50528852857E+02  0.29999978743E+02 0.  0.
        -12    1    1    2    0    0 -0.38905504743E+02 -0.69780357779E+01 -0.95307378422E+01  0.40659147143E+02  0.00000000000E+00 0.  1.
         11    1    3    3    0    0  0.15239268618E+01 -0.32541563198E+01  0.52084453340E+01  0.63277001740E+01  0.51100000000E-03 0. -1.
        -11    1    3    3    0    0  0.18603533918E+02  0.15795261211E+02  0.23807161277E+01  0.24520390708E+02  0.51100000000E-03 0.  1.
         12    1    3    3    0    0  0.18778043964E+02 -0.55630691130E+01  0.19415763805E+01  0.19680761974E+02  0.00000000000E+00 0. -1.
</event>
<event>
 7    1  0.3216957E-011  0.5052886E+02  0.7816164E-02  0.1300439E+00
        -11   -1    0    0    0    0  0.00000000000E+00  0.00000000000E+00  0.45593999997E+02  0.45594000000E+02  0.51100000000E-03 0.  1.
         11   -1    0    0    0    0 -0.00000000000E+00 -0.00000000000E+00 -0.45593999997E+02  0.45594000000E+02  0.51100000000E-03 0. -1.
    9900012    2    1    2    0    0 -0.40456309344E+02 -0.25334876598E+01  0.31677123704E+01  0.50528856784E+02  0.29999990680E+02 0.  0.
        -12    1    1    2    0    0  0.40456309344E+02  0.25334876598E+01 -0.31677123704E+01  0.40659143216E+02  0.00000000000E+00 0.  1.
         11    1    3    3    0    0 -0.18798151995E+02  0.24678834315E+01 -0.10684978182E+01  0.18989540672E+02  0.51100000000E-03 0. -1.
        -11    1    3    3    0    0 -0.23435125308E+02 -0.86641206876E+01  0.77518829431E+01  0.26160347377E+02  0.51100000000E-03 0.  1.
        -12    1    3    3    0    0  0.17769679592E+01  0.36627495964E+01 -0.35156727545E+01  0.53789687349E+01  0.00000000000E+00 0.  1.
</event>
<event>
 7    1  0.2835316E-011  0.5052885E+02  0.7816164E-02  0.1300439E+00
        -11   -1    0    0    0    0  0.00000000000E+00  0.00000000000E+00  0.45593999997E+02  0.45594000000E+02  0.51100000000E-03 0. -1.
         11   -1    0    0    0    0 -0.00000000000E+00 -0.00000000000E+00 -0.45593999997E+02  0.45594000000E+02  0.51100000000E-03 0.  1.
    9900012    2    1    2    0    0  0.40429918458E+02  0.90139581524E+00  0.42160951439E+01  0.50528852453E+02  0.29999977517E+02 0.  0.
        -12    1    1    2    0    0 -0.40429918458E+02 -0.90139581524E+00 -0.42160951439E+01  0.40659147547E+02  0.00000000000E+00 0.  1.
         11    1    3    3    0    0  0.22183552271E+02 -0.32202636459E+01  0.15481851543E+01  0.22469467435E+02  0.51100000000E-03 0. -1.
        -11    1    3    3    0    0  0.33853010037E+01 -0.49898389733E+01 -0.60736245514E+01  0.85584853401E+01  0.51100000000E-03 0.  1.
         12    1    3    3    0    0  0.14861065184E+02  0.91114984344E+01  0.87415345410E+01  0.19500899678E+02  0.00000000000E+00 0. -1.
</event>
<event>
 7    1  0.2835316E-011  0.5052885E+02  0.7816164E-02  0.1300439E+00
        -11   -1    0    0    0    0  0.00000000000E+00  0.00000000000E+00  0.45593999997E+02  0.45594000000E+02  0.51100000000E-03 0.  1.
         11   -1    0    0    0    0 -0.00000000000E+00 -0.00000000000E+00 -0.45593999997E+02  0.45594000000E+02  0.51100000000E-03 0. -1.
    9900012    2    1    2    0    0  0.40388253685E+02  0.29459670381E+01 -0.36437509227E+01  0.50528847546E+02  0.29999962600E+02 0.  0.
        -12    1    1    2    0    0 -0.40388253685E+02 -0.29459670381E+01  0.36437509227E+01  0.40659152454E+02  0.00000000000E+00 0.  1.
         11    1    3    3    0    0  0.16202573773E+02  0.68085650317E+01 -0.58151261672E+01  0.18512040602E+02  0.51100000000E-03 0. -1.
        -11    1    3    3    0    0  0.67495612006E+01  0.66155918644E+01  0.61678498066E+01  0.11285610467E+02  0.51100000000E-03 0.  1.
         12    1    3    3    0    0  0.17436118711E+02 -0.10478189858E+02 -0.39964745621E+01  0.20731196476E+02  0.00000000000E+00 0. -1.
</event>
<event>
 7    1  0.2835316E-011  0.5052886E+02  0.7816164E-02  0.1300439E+00
        -11   -1    0    0    0    0  0.00000000000E+00  0.00000000000E+00  0.45593999997E+02  0.45594000000E+02  0.51100000000E-03 0. -1.
         11   -1    0    0    0    0 -0.00000000000E+00 -0.00000000000E+00 -0.45593999997E+02  0.45594000000E+02  0.51100000000E-03 0.  1.
    9900012    2    1    2    0    0  0.23726692175E+02  0.26162813547E+01  0.32914509809E+02  0.50528858277E+02  0.29999995219E+02 0.  0.
        -12    1    1    2    0    0 -0.23726692175E+02 -0.26162813547E+01 -0.32914509809E+02  0.40659141723E+02  0.00000000000E+00 0.  1.
         11    1    3    3    0    0 -0.25873664788E+01  0.20630518544E+01 -0.47290038773E-01  0.33095142934E+01  0.51100000000E-03 0. -1.
        -11    1    3    3    0    0  0.28469031071E+00 -0.40664144591E+00 -0.28745243216E+01  0.29170697926E+01  0.51100000000E-03 0.  1.
         12    1    3    3    0    0  0.26029368343E+02  0.95987094617E+00  0.35836324169E+02  0.44302274191E+02  0.00000000000E+00 0. -1.
</event>
<event>
 7    1  0.2835316E-011  0.5052887E+02  0.7816164E-02  0.1300439E+00
        -11   -1    0    0    0    0  0.00000000000E+00  0.00000000000E+00  0.45593999997E+02  0.45594000000E+02  0.51100000000E-03 0.  1.
         11   -1    0    0    0    0 -0.00000000000E+00 -0.00000000000E+00 -0.45593999997E+02  0.45594000000E+02  0.51100000000E-03 0. -1.
    9900012    2    1    2    0    0 -0.33794000630E+02 -0.21096266248E+02  0.81288518626E+01  0.50528866207E+02  0.30000019322E+02 0.  0.
        -12    1    1    2    0    0  0.33794000630E+02  0.21096266248E+02 -0.81288518626E+01  0.40659133793E+02  0.00000000000E+00 0.  1.
         11    1    3    3    0    0 -0.29550777404E+02 -0.17219880629E+02 -0.27234230911E+01  0.34310199178E+02  0.51100000000E-03 0. -1.
        -11    1    3    3    0    0 -0.14411016253E+01  0.36693888961E+01  0.43554595821E+01  0.58746248559E+01  0.51100000000E-03 0.  1.
        -12    1    3    3    0    0 -0.28021216009E+01 -0.75457745150E+01  0.64968153715E+01  0.10344042173E+02  0.00000000000E+00 0.  1.
</event>
<event>
 7    1  0.2835316E-011  0.5052886E+02  0.7816164E-02  0.1300439E+00
        -11   -1    0    0    0    0  0.00000000000E+00  0.00000000000E+00  0.45593999997E+02  0.45594000000E+02  0.51100000000E-03 0.  1.
         11   -1    0    0    0    0 -0.00000000000E+00 -0.00000000000E+00 -0.45593999997E+02  0.45594000000E+02  0.51100000000E-03 0. -1.
    9900012    2    1    2    0    0 -0.17318999978E+02 -0.15032361143E+02 -0.33574480613E+02  0.50528863386E+02  0.30000010747E+02 0.  0.
        -12    1    1    2    0    0  0.17318999978E+02  0.15032361143E+02  0.33574480613E+02  0.40659136614E+02  0.00000000000E+00 0.  1.
         11    1    3    3    0    0 -0.30206108669E+00 -0.14181134517E+02 -0.12395929695E+02  0.18837592478E+02  0.51100000000E-03 0. -1.
        -11    1    3    3    0    0 -0.94134137903E+01 -0.61476543867E+01 -0.35749189243E+01  0.11797714152E+02  0.51100000000E-03 0.  1.
        -12    1    3    3    0    0 -0.76035251014E+01  0.52964277614E+01 -0.17603631993E+02  0.19893556755E+02  0.00000000000E+00 0.  1.
</event>
<event>
 7    1  0.2835316E-011  0.5052886E+02  0.7816164E-02  0.1300439E+00
        -11   -1    0    0    0    0  0.00000000000E+00  0.00000000000E+00  0.45593999997E+02  0.45594000000E+02  0.51100000000E-03 0.  1.
         11   -1    0    0    0    0 -0.00000000000E+00 -0.00000000000E+00 -0.45593999997E+02  0.45594000000E+02  0.51100000000E-03 0. -1.
    9900012    2    1    2    0    0  0.26075578659E+02 -0.15733358621E+02 -0.26938663010E+02  0.50528856617E+02  0.29999990172E+02 0.  0.
        -12    1    1    2    0    0 -0.26075578659E+02  0.15733358621E+02  0.26938663010E+02  0.40659143383E+02  0.00000000000E+00 0.  1.
         11    1    3    3    0    0  0.85280067745E+01 -0.28971095674E+01 -0.61924018297E+00  0.90279345399E+01  0.51100000000E-03 0. -1.
        -11    1    3    3    0    0 -0.16649572006E+01 -0.12756248615E+02 -0.11076485899E+02  0.16975938894E+02  0.51100000000E-03 0.  1.
         12    1    3    3    0    0  0.19212529085E+02 -0.80000438724E-01 -0.15242936928E+02  0.24524983183E+02  0.00000000000E+00 0. -1.
</event>
<event>
 7    1  0.2835316E-011  0.5052886E+02  0.7816164E-02  0.1300439E+00
        -11   -1    0    0    0    0  0.00000000000E+00  0.00000000000E+00  0.45593999997E+02  0.45594000000E+02  0.51100000000E-03 0. -1.
         11   -1    0    0    0    0 -0.00000000000E+00 -0.00000000000E+00 -0.45593999997E+02  0.45594000000E+02  0.51100000000E-03 0.  1.
    9900012    2    1    2    0    0  0.25493328542E+02 -0.31279206609E+02  0.49867282079E+01  0.50528855586E+02  0.29999987038E+02 0.  0.
        -12    1    1    2    0    0 -0.25493328542E+02  0.31279206609E+02 -0.49867282079E+01  0.40659144414E+02  0.00000000000E+00 0.  1.
         11    1    3    3    0    0  0.13705368051E+02 -0.73504924720E+01 -0.43761314847E+01  0.16156032311E+02  0.51100000000E-03 0. -1.
        -11    1    3    3    0    0  0.16099220632E+02 -0.23235848021E+02  0.99473361972E+01  0.29967299443E+02  0.51100000000E-03 0.  1.
        -12    1    3    3    0    0 -0.43112601404E+01 -0.69286611672E+00 -0.58447650465E+00  0.44055238325E+01  0.00000000000E+00 0.  1.
</event>
<event>
 7    1  0.2835316E-011  0.5052885E+02  0.7816164E-02  0.1300439E+00
        -11   -1    0    0    0    0  0.00000000000E+00  0.00000000000E+00  0.45593999997E+02  0.45594000000E+02  0.51100000000E-03 0.  1.
         11   -1    0    0    0    0 -0.00000000000E+00 -0.00000000000E+00 -0.45593999997E+02  0.45594000000E+02  0.51100000000E-03 0. -1.
    9900012    2    1    2    0    0  0.10267811459E+02 -0.25645854074E+01 -0.39257631248E+02  0.50528847750E+02  0.29999963222E+02 0.  0.
        -12    1    1    2    0    0 -0.10267811459E+02  0.25645854074E+01  0.39257631248E+02  0.40659152250E+02  0.00000000000E+00 0.  1.
         11    1    3    3    0    0  0.82527279181E+01 -0.92863724757E+01 -0.15410211953E+02  0.19794414984E+02  0.51100000000E-03 0. -1.
        -11    1    3    3    0    0  0.93589023166E+01  0.25283388483E+01 -0.72458935021E+01  0.12103079063E+02  0.51100000000E-03 0.  1.
         12    1    3    3    0    0 -0.73438187753E+01  0.41934482199E+01 -0.16601525792E+02  0.18631353703E+02  0.00000000000E+00 0. -1.
</event>
<event>
 7    1  0.2835316E-011  0.5052885E+02  0.7816164E-02  0.1300439E+00
        -11   -1    0    0    0    0  0.00000000000E+00  0.00000000000E+00  0.45593999997E+02  0.45594000000E+02  0.51100000000E-03 0.  1.
         11   -1    0    0    0    0 -0.00000000000E+00 -0.00000000000E+00 -0.45593999997E+02  0.45594000000E+02  0.51100000000E-03 0. -1.
    9900012    2    1    2    0    0 -0.71854965806E+01  0.19764530365E+02 -0.34797967320E+02  0.50528849108E+02  0.29999967349E+02 0.  0.
        -12    1    1    2    0    0  0.71854965806E+01 -0.19764530365E+02  0.34797967320E+02  0.40659150892E+02  0.00000000000E+00 0.  1.
         11    1    3    3    0    0 -0.34630537880E+01  0.37201532038E+01 -0.17852929535E+02  0.18562310596E+02  0.51100000000E-03 0. -1.
        -11    1    3    3    0    0 -0.31320162899E+01 -0.10120650463E+01 -0.14327017597E+02  0.14700246092E+02  0.51100000000E-03 0.  1.
         12    1    3    3    0    0 -0.59042650272E+00  0.17056442207E+02 -0.26180201879E+01  0.17266292420E+02  0.00000000000E+00 0. -1.
</event>
<event>
 7    1  0.2835316E-011  0.5052886E+02  0.7816164E-02  0.1300439E+00
        -11   -1    0    0    0    0  0.00000000000E+00  0.00000000000E+00  0.45593999997E+02  0.45594000000E+02  0.51100000000E-03 0. -1.
         11   -1    0    0    0    0 -0.00000000000E+00 -0.00000000000E+00 -0.45593999997E+02  0.45594000000E+02  0.51100000000E-03 0.  1.
    9900012    2    1    2    0    0  0.21591944857E+02 -0.32407155223E+02  0.11693149907E+02  0.50528861457E+02  0.30000004884E+02 0.  0.
        -12    1    1    2    0    0 -0.21591944857E+02  0.32407155223E+02 -0.11693149907E+02  0.40659138543E+02  0.00000000000E+00 0.  1.
         11    1    3    3    0    0  0.48601319827E+01 -0.17596482516E+02  0.14792652059E+02  0.23496374934E+02  0.51100000000E-03 0. -1.
        -11    1    3    3    0    0  0.12722300626E+02 -0.28002802904E+01  0.23682971685E+01  0.13240367619E+02  0.51100000000E-03 0.  1.
        -12    1    3    3    0    0  0.40095122478E+01 -0.12010392416E+02 -0.54677993208E+01  0.13792118904E+02  0.00000000000E+00 0.  1.
</event>
<event>
 7    1  0.2835316E-011  0.5052886E+02  0.7816164E-02  0.1300439E+00
        -11   -1    0    0    0    0  0.00000000000E+00  0.00000000000E+00  0.45593999997E+02  0.45594000000E+02  0.51100000000E-03 0. -1.
         11   -1    0    0    0    0 -0.00000000000E+00 -0.00000000000E+00 -0.45593999997E+02  0.45594000000E+02  0.51100000000E-03 0.  1.
    9900012    2    1    2    0    0 -0.30014403596E+02  0.24682820133E+02  0.11960747811E+02  0.50528861776E+02  0.30000005853E+02 0.  0.
        -12    1    1    2    0    0  0.30014403596E+02 -0.24682820133E+02 -0.11960747811E+02  0.40659138224E+02  0.00000000000E+00 0.  1.
         11    1    3    3    0    0 -0.55365194904E+01  0.14010202738E+02  0.77125933516E+00  0.15084219239E+02  0.51100000000E-03 0.  1.
        -11    1    3    3    0    0 -0.21311145042E+02  0.13870946908E+02  0.23635242248E+01  0.25537312274E+02  0.51100000000E-03 0. -1.
        -12    1    3    3    0    0 -0.31667390631E+01 -0.31983295132E+01  0.88259642510E+01  0.99073302624E+01  0.00000000000E+00 0.  1.
</event>
<event>
 7    1  0.2835316E-011  0.5052886E+02  0.7816164E-02  0.1300439E+00
        -11   -1    0    0    0    0  0.00000000000E+00  0.00000000000E+00  0.45593999997E+02  0.45594000000E+02  0.51100000000E-03 0. -1.
         11   -1    0    0    0    0 -0.00000000000E+00 -0.00000000000E+00 -0.45593999997E+02  0.45594000000E+02  0.51100000000E-03 0.  1.
    9900012    2    1    2    0    0  0.26813353317E+02 -0.17094459543E+02  0.25337513437E+02  0.50528855268E+02  0.29999986072E+02 0.  0.
        -12    1    1    2    0    0 -0.26813353317E+02  0.17094459543E+02 -0.25337513437E+02  0.40659144732E+02  0.00000000000E+00 0.  1.
         11    1    3    3    0    0  0.83491011848E+01 -0.16762290070E+02  0.23566856562E+02  0.30101139305E+02  0.51100000000E-03 0. -1.
        -11    1    3    3    0    0  0.73914558235E+01  0.21774734979E+01  0.42595512464E+01  0.88044754021E+01  0.51100000000E-03 0.  1.
        -12    1    3    3    0    0  0.11072796309E+02 -0.25096429707E+01 -0.24888943714E+01  0.11623240561E+02  0.00000000000E+00 0.  1.
</event>
<event>
 7    1  0.2835316E-011  0.5052886E+02  0.7816164E-02  0.1300439E+00
        -11   -1    0    0    0    0  0.00000000000E+00  0.00000000000E+00  0.45593999997E+02  0.45594000000E+02  0.51100000000E-03 0.  1.
         11   -1    0    0    0    0 -0.00000000000E+00 -0.00000000000E+00 -0.45593999997E+02  0.45594000000E+02  0.51100000000E-03 0. -1.
    9900012    2    1    2    0    0  0.17071296583E+02  0.24111606562E+02 -0.27935046763E+02  0.50528861105E+02  0.30000003815E+02 0.  0.
        -12    1    1    2    0    0 -0.17071296583E+02 -0.24111606562E+02  0.27935046763E+02  0.40659138895E+02  0.00000000000E+00 0.  1.
         11    1    3    3    0    0 -0.35307407981E+01  0.12008464660E+02 -0.18989472994E+02  0.22743558185E+02  0.51100000000E-03 0. -1.
        -11    1    3    3    0    0  0.25766658266E+01 -0.21239203894E+01 -0.12800617544E+01  0.35761435875E+01  0.51100000000E-03 0.  1.
        -12    1    3    3    0    0  0.18025371554E+02  0.14227062292E+02 -0.76655120144E+01  0.24209159332E+02  0.00000000000E+00 0.  1.
</event>
<event>
 7    1  0.2835316E-011  0.5052887E+02  0.7816164E-02  0.1300439E+00
        -11   -1    0    0    0    0  0.00000000000E+00  0.00000000000E+00  0.45593999997E+02  0.45594000000E+02  0.51100000000E-03 0.  1.
         11   -1    0    0    0    0 -0.00000000000E+00 -0.00000000000E+00 -0.45593999997E+02  0.45594000000E+02  0.51100000000E-03 0. -1.
    9900012    2    1    2    0    0 -0.34011683459E+02 -0.57469533819E+01  0.21525395476E+02  0.50528871439E+02  0.30000035227E+02 0.  0.
        -12    1    1    2    0    0  0.34011683459E+02  0.57469533819E+01 -0.21525395476E+02  0.40659128561E+02  0.00000000000E+00 0.  1.
         11    1    3    3    0    0 -0.21174370308E+01  0.54037456846E+01  0.46611040146E+01  0.74437824995E+01  0.51100000000E-03 0. -1.
        -11    1    3    3    0    0 -0.21860266836E+02  0.23975414867E+01  0.13762781164E+02  0.25942891453E+02  0.51100000000E-03 0.  1.
        -12    1    3    3    0    0 -0.10033979593E+02 -0.13548240553E+02  0.31015102973E+01  0.17142197487E+02  0.00000000000E+00 0.  1.
</event>
<event>
 7    1  0.2835316E-011  0.5052885E+02  0.7816164E-02  0.1300439E+00
        -11   -1    0    0    0    0  0.00000000000E+00  0.00000000000E+00  0.45593999997E+02  0.45594000000E+02  0.51100000000E-03 0.  1.
         11   -1    0    0    0    0 -0.00000000000E+00 -0.00000000000E+00 -0.45593999997E+02  0.45594000000E+02  0.51100000000E-03 0. -1.
    9900012    2    1    2    0    0  0.30431134352E+02  0.14795956332E+01 -0.26924396078E+02  0.50528852869E+02  0.29999978782E+02 0.  0.
        -12    1    1    2    0    0 -0.30431134352E+02 -0.14795956332E+01  0.26924396078E+02  0.40659147131E+02  0.00000000000E+00 0.  1.
         11    1    3    3    0    0  0.13619115391E-01 -0.51334304170E+01  0.28168664244E+00  0.51411711654E+01  0.51100000000E-03 0.  1.
        -11    1    3    3    0    0  0.22007494862E+02  0.27255212498E+01 -0.71580319566E+01  0.23302268515E+02  0.51100000000E-03 0. -1.
         12    1    3    3    0    0  0.84100203748E+01  0.38875048004E+01 -0.20048050764E+02  0.22085413189E+02  0.00000000000E+00 0. -1.
</event>
<event>
 7    1  0.2835316E-011  0.5052885E+02  0.7816164E-02  0.1300439E+00
        -11   -1    0    0    0    0  0.00000000000E+00  0.00000000000E+00  0.45593999997E+02  0.45594000000E+02  0.51100000000E-03 0.  1.
         11   -1    0    0    0    0 -0.00000000000E+00 -0.00000000000E+00 -0.45593999997E+02  0.45594000000E+02  0.51100000000E-03 0. -1.
    9900012    2    1    2    0    0 -0.25293067309E+01  0.17757221914E+02 -0.36489038314E+02  0.50528852939E+02  0.29999978994E+02 0.  0.
        -12    1    1    2    0    0  0.25293067309E+01 -0.17757221914E+02  0.36489038314E+02  0.40659147061E+02  0.00000000000E+00 0.  1.
         11    1    3    3    0    0  0.80012321094E+01  0.81668324338E+01 -0.20605279940E+02  0.23564686057E+02  0.51100000000E-03 0. -1.
        -11    1    3    3    0    0 -0.95187283960E+00 -0.20978966846E+01 -0.10765330862E+02  0.11009068136E+02  0.51100000000E-03 0.  1.
        -12    1    3    3    0    0 -0.95786660008E+01  0.11688286164E+02 -0.51184275121E+01  0.15955098746E+02  0.00000000000E+00 0.  1.
</event>
<event>
 7    1  0.2835316E-011  0.5052886E+02  0.7816164E-02  0.1300439E+00
        -11   -1    0    0    0    0  0.00000000000E+00  0.00000000000E+00  0.45593999997E+02  0.45594000000E+02  0.51100000000E-03 0. -1.
         11   -1    0    0    0    0 -0.00000000000E+00 -0.00000000000E+00 -0.45593999997E+02  0.45594000000E+02  0.51100000000E-03 0.  1.
    9900012    2    1    2    0    0  0.19411784293E+02 -0.15549812242E+02  0.32164447284E+02  0.50528859585E+02  0.29999999194E+02 0.  0.
        -12    1    1    2    0    0 -0.19411784293E+02  0.15549812242E+02 -0.32164447284E+02  0.40659140415E+02  0.00000000000E+00 0.  1.
         11    1    3    3    0    0 -0.32964499387E+01 -0.54066536768E+01  0.95625093896E+01  0.11469092042E+02  0.51100000000E-03 0. -1.
        -11    1    3    3    0    0 -0.30006294524E+01 -0.31062507587E+01  0.68525593598E+01  0.81000086992E+01  0.51100000000E-03 0.  1.
         12    1    3    3    0    0  0.25708863684E+02 -0.70369078067E+01  0.15749378535E+02  0.30959758844E+02  0.00000000000E+00 0. -1.
</event>
<event>
 7    1  0.2835316E-011  0.5052886E+02  0.7816164E-02  0.1300439E+00
        -11   -1    0    0    0    0  0.00000000000E+00  0.00000000000E+00  0.45593999997E+02  0.45594000000E+02  0.51100000000E-03 0.  1.
         11   -1    0    0    0    0 -0.00000000000E+00 -0.00000000000E+00 -0.45593999997E+02  0.45594000000E+02  0.51100000000E-03 0. -1.
    9900012    2    1    2    0    0 -0.22092038355E+02 -0.30830501155E+02 -0.14648815598E+02  0.50528858856E+02  0.29999996980E+02 0.  0.
        -12    1    1    2    0    0  0.22092038355E+02  0.30830501155E+02  0.14648815598E+02  0.40659141144E+02  0.00000000000E+00 0.  1.
         11    1    3    3    0    0 -0.19835075845E+02 -0.11217208938E+02  0.11692002259E+01  0.22817165458E+02  0.51100000000E-03 0. -1.
        -11    1    3    3    0    0  0.14008782554E+01 -0.21315603800E+01  0.13946965311E+01  0.29070927428E+01  0.51100000000E-03 0.  1.
         12    1    3    3    0    0 -0.36578407661E+01 -0.17481731836E+02 -0.17212712355E+02  0.24804600655E+02  0.00000000000E+00 0. -1.
</event>
<event>
 7    1  0.2835316E-011  0.5052886E+02  0.7816164E-02  0.1300439E+00
        -11   -1    0    0    0    0  0.00000000000E+00  0.00000000000E+00  0.45593999997E+02  0.45594000000E+02  0.51100000000E-03 0. -1.
         11   -1    0    0    0    0 -0.00000000000E+00 -0.00000000000E+00 -0.45593999997E+02  0.45594000000E+02  0.51100000000E-03 0.  1.
    9900012    2    1    2    0    0  0.26278449224E+01  0.30489191407E+02  0.26770675955E+02  0.50528862618E+02  0.30000008412E+02 0.  0.
        -12    1    1    2    0    0 -0.26278449224E+01 -0.30489191407E+02 -0.26770675955E+02  0.40659137382E+02  0.00000000000E+00 0.  1.
         11    1    3    3    0    0  0.86556871160E+01  0.30372366589E+02  0.19304409150E+02  0.37014345659E+02  0.51100000000E-03 0. -1.
        -11    1    3    3    0    0 -0.48996502656E+01  0.86512869375E+00 -0.88559657164E+00  0.50536424419E+01  0.51100000000E-03 0.  1.
        -12    1    3    3    0    0 -0.11281919279E+01 -0.74830387590E+00  0.83518633772E+01  0.84608745167E+01  0.00000000000E+00 0.  1.
</event>
<event>
 7    1  0.2835316E-011  0.5052888E+02  0.7816164E-02  0.1300439E+00
        -11   -1    0    0    0    0  0.00000000000E+00  0.00000000000E+00  0.45593999997E+02  0.45594000000E+02  0.51100000000E-03 0. -1.
         11   -1    0    0    0    0 -0.00000000000E+00 -0.00000000000E+00 -0.45593999997E+02  0.45594000000E+02  0.51100000000E-03 0.  1.
    9900012    2    1    2    0    0 -0.36719989852E+02  0.48772593513E+01  0.16763617380E+02  0.50528878254E+02  0.30000055940E+02 0.  0.
        -12    1    1    2    0    0  0.36719989852E+02 -0.48772593513E+01 -0.16763617380E+02  0.40659121746E+02  0.00000000000E+00 0.  1.
         11    1    3    3    0    0 -0.45890146079E+01  0.33852762787E+01  0.97015670625E+01  0.11253424114E+02  0.51100000000E-03 0. -1.
        -11    1    3    3    0    0 -0.14191863484E+02 -0.84117816059E+01  0.88228917423E+01  0.18708566966E+02  0.51100000000E-03 0.  1.
        -12    1    3    3    0    0 -0.17939111759E+02  0.99037646786E+01 -0.17608414247E+01  0.20566887175E+02  0.00000000000E+00 0.  1.
</event>
<event>
 7    1  0.2835316E-011  0.5052890E+02  0.7816164E-02  0.1300439E+00
        -11   -1    0    0    0    0  0.00000000000E+00  0.00000000000E+00  0.45593999997E+02  0.45594000000E+02  0.51100000000E-03 0.  1.
         11   -1    0    0    0    0 -0.00000000000E+00 -0.00000000000E+00 -0.45593999997E+02  0.45594000000E+02  0.51100000000E-03 0. -1.
    9900012    2    1    2    0    0 -0.38623335611E+01 -0.40433301802E+02  0.18419684058E+01  0.50528900616E+02  0.30000123911E+02 0.  0.
        -12    1    1    2    0    0  0.38623335611E+01  0.40433301802E+02 -0.18419684058E+01  0.40659099384E+02  0.00000000000E+00 0.  1.
         11    1    3    3    0    0 -0.67895163847E+01 -0.19149911219E+02  0.22216356489E+01  0.20438989644E+02  0.51100000000E-03 0. -1.
        -11    1    3    3    0    0 -0.82319023057E+01 -0.33509506350E+01 -0.11062969217E+01  0.89563931841E+01  0.51100000000E-03 0.  1.
         12    1    3    3    0    0  0.11159085129E+02 -0.17932439947E+02  0.72662967858E+00  0.21133517788E+02  0.00000000000E+00 0. -1.
</event>
<event>
 7    1  0.2835316E-011  0.5052885E+02  0.7816164E-02  0.1300439E+00
        -11   -1    0    0    0    0  0.00000000000E+00  0.00000000000E+00  0.45593999997E+02  0.45594000000E+02  0.51100000000E-03 0. -1.
         11   -1    0    0    0    0 -0.00000000000E+00 -0.00000000000E+00 -0.45593999997E+02  0.45594000000E+02  0.51100000000E-03 0.  1.
    9900012    2    1    2    0    0  0.83258841836E+01  0.45429902824E+01  0.39537413040E+02  0.50528854190E+02  0.29999982795E+02 0.  0.
        -12    1    1    2    0    0 -0.83258841836E+01 -0.45429902824E+01 -0.39537413040E+02  0.40659145810E+02  0.00000000000E+00 0.  1.
         11    1    3    3    0    0  0.20053427153E+01 -0.73089812544E+01  0.67921495313E+01  0.10177224666E+02  0.51100000000E-03 0. -1.
        -11    1    3    3    0    0 -0.47865136704E+01  0.19152819848E+01  0.95741889991E+00  0.52436313190E+01  0.51100000000E-03 0.  1.
         12    1    3    3    0    0  0.11107055139E+02  0.99366895521E+01  0.31787844608E+02  0.35107998205E+02  0.00000000000E+00 0. -1.
</event>
<event>
 7    1  0.2853185E-011  0.5052885E+02  0.7816164E-02  0.1300439E+00
        -11   -1    0    0    0    0  0.00000000000E+00  0.00000000000E+00  0.45593999997E+02  0.45594000000E+02  0.51100000000E-03 0. -1.
         11   -1    0    0    0    0 -0.00000000000E+00 -0.00000000000E+00 -0.45593999997E+02  0.45594000000E+02  0.51100000000E-03 0.  1.
    9900012    2    1    2    0    0 -0.18110845398E+02 -0.27259662525E+01  0.36300590366E+02  0.50528850059E+02  0.29999970239E+02 0.  0.
        -12    1    1    2    0    0  0.18110845398E+02  0.27259662525E+01 -0.36300590366E+02  0.40659149941E+02  0.00000000000E+00 0.  1.
         11    1    3    3    0    0 -0.53898222615E+01  0.66633802159E+01  0.75489026616E+01  0.11420891015E+02  0.51100000000E-03 0. -1.
        -11    1    3    3    0    0 -0.53801123341E+01 -0.43490971463E+01 -0.19120209759E+01  0.71774702500E+01  0.51100000000E-03 0.  1.
         12    1    3    3    0    0 -0.73409108019E+01 -0.50402493221E+01  0.30663708680E+02  0.31930488794E+02  0.00000000000E+00 0. -1.
</event>
<event>
 7    1  0.2835316E-011  0.5052901E+02  0.7816164E-02  0.1300438E+00
        -11   -1    0    0    0    0  0.00000000000E+00  0.00000000000E+00  0.45593999997E+02  0.45594000000E+02  0.51100000000E-03 0.  1.
         11   -1    0    0    0    0 -0.00000000000E+00 -0.00000000000E+00 -0.45593999997E+02  0.45594000000E+02  0.51100000000E-03 0. -1.
    9900012    2    1    2    0    0 -0.16994868391E+02  0.27607122145E+02  0.24539254626E+02  0.50529006378E+02  0.30000445383E+02 0.  0.
        -12    1    1    2    0    0  0.16994868391E+02 -0.27607122145E+02 -0.24539254626E+02  0.40658993622E+02  0.00000000000E+00 0.  1.
         11    1    3    3    0    0 -0.87611795331E+01  0.70160946313E+01  0.74528560498E+01  0.13473266651E+02  0.51100000000E-03 0. -1.
        -11    1    3    3    0    0 -0.33447939505E+01 -0.14283579838E+01  0.13788772379E+02  0.14260368055E+02  0.51100000000E-03 0.  1.
        -12    1    3    3    0    0 -0.48888949077E+01  0.22019385498E+02  0.32976261976E+01  0.22795371672E+02  0.00000000000E+00 0.  1.
</event>
<event>
 7    1  0.2835316E-011  0.5052885E+02  0.7816164E-02  0.1300439E+00
        -11   -1    0    0    0    0  0.00000000000E+00  0.00000000000E+00  0.45593999997E+02  0.45594000000E+02  0.51100000000E-03 0.  1.
         11   -1    0    0    0    0 -0.00000000000E+00 -0.00000000000E+00 -0.45593999997E+02  0.45594000000E+02  0.51100000000E-03 0. -1.
    9900012    2    1    2    0    0 -0.22983135398E+02 -0.33230407915E+02 -0.45477442004E+01  0.50528849736E+02  0.29999969257E+02 0.  0.
        -12    1    1    2    0    0  0.22983135398E+02  0.33230407915E+02  0.45477442004E+01  0.40659150264E+02  0.00000000000E+00 0.  1.
         11    1    3    3    0    0 -0.23918441151E+01  0.20834613148E+01  0.39848815191E+01  0.50932318132E+01  0.51100000000E-03 0. -1.
        -11    1    3    3    0    0 -0.21985188670E+01 -0.99701838882E+01 -0.97226879648E+01  0.14098535864E+02  0.51100000000E-03 0.  1.
         12    1    3    3    0    0 -0.18392772416E+02 -0.25343685341E+02  0.11900622453E+01  0.31337082059E+02  0.00000000000E+00 0. -1.
</event>
<event>
 7    1  0.2835316E-011  0.5052885E+02  0.7816164E-02  0.1300439E+00
        -11   -1    0    0    0    0  0.00000000000E+00  0.00000000000E+00  0.45593999997E+02  0.45594000000E+02  0.51100000000E-03 0. -1.
         11   -1    0    0    0    0 -0.00000000000E+00 -0.00000000000E+00 -0.45593999997E+02  0.45594000000E+02  0.51100000000E-03 0.  1.
    9900012    2    1    2    0    0 -0.29336579851E+02  0.26049348745E+02  0.10675345708E+02  0.50528849820E+02  0.29999969513E+02 0.  0.
        -12    1    1    2    0    0  0.29336579851E+02 -0.26049348745E+02 -0.10675345708E+02  0.40659150180E+02  0.00000000000E+00 0.  1.
         11    1    3    3    0    0 -0.12024077650E+02 -0.28304991961E+01  0.46169338651E+01  0.13187351805E+02  0.51100000000E-03 0. -1.
        -11    1    3    3    0    0  0.26448831096E+01  0.19941592723E+01  0.11156769106E+01  0.34952557985E+01  0.51100000000E-03 0.  1.
        -12    1    3    3    0    0 -0.19957385310E+02  0.26885688669E+02  0.49427349322E+01  0.33846242217E+02  0.00000000000E+00 0.  1.
</event>
<event>
 7    1  0.2835316E-011  0.5052886E+02  0.7816164E-02  0.1300439E+00
        -11   -1    0    0    0    0  0.00000000000E+00  0.00000000000E+00  0.45593999997E+02  0.45594000000E+02  0.51100000000E-03 0.  1.
         11   -1    0    0    0    0 -0.00000000000E+00 -0.00000000000E+00 -0.45593999997E+02  0.45594000000E+02  0.51100000000E-03 0. -1.
    9900012    2    1    2    0    0 -0.29994039305E+02  0.65696995366E+01 -0.26652619689E+02  0.50528862255E+02  0.30000007311E+02 0.  0.
        -12    1    1    2    0    0  0.29994039305E+02 -0.65696995366E+01  0.26652619689E+02  0.40659137745E+02  0.00000000000E+00 0.  1.
         11    1    3    3    0    0 -0.87543885058E+01  0.44834413145E+01 -0.11746191766E+02  0.15320365054E+02  0.51100000000E-03 0. -1.
        -11    1    3    3    0    0 -0.12692661335E+02  0.11790324558E+02 -0.29042585034E+01  0.17565594857E+02  0.51100000000E-03 0.  1.
         12    1    3    3    0    0 -0.85469894645E+01 -0.97040663359E+01 -0.12002169420E+02  0.17642902344E+02  0.00000000000E+00 0. -1.
</event>
<event>
 7    1  0.2835316E-011  0.5052887E+02  0.7816164E-02  0.1300439E+00
        -11   -1    0    0    0    0  0.00000000000E+00  0.00000000000E+00  0.45593999997E+02  0.45594000000E+02  0.51100000000E-03 0. -1.
         11   -1    0    0    0    0 -0.00000000000E+00 -0.00000000000E+00 -0.45593999997E+02  0.45594000000E+02  0.51100000000E-03 0.  1.
    9900012    2    1    2    0    0 -0.99352170575E+01  0.24357447594E+02  0.31002764694E+02  0.50528865603E+02  0.30000017486E+02 0.  0.
        -12    1    1    2    0    0  0.99352170575E+01 -0.24357447594E+02 -0.31002764694E+02  0.40659134397E+02  0.00000000000E+00 0.  1.
         11    1    3    3    0    0 -0.98866177211E+00  0.35435187505E+01 -0.40136057349E+00  0.37006847753E+01  0.51100000000E-03 0. -1.
        -11    1    3    3    0    0 -0.64960329764E+01  0.21748223078E+02  0.92349948203E+01  0.24504464513E+02  0.51100000000E-03 0.  1.
        -12    1    3    3    0    0 -0.24505223090E+01 -0.93429423445E+00  0.22169130447E+02  0.22323716314E+02  0.00000000000E+00 0.  1.
</event>
<event>
 7    1  0.2835316E-011  0.5052887E+02  0.7816164E-02  0.1300439E+00
        -11   -1    0    0    0    0  0.00000000000E+00  0.00000000000E+00  0.45593999997E+02  0.45594000000E+02  0.51100000000E-03 0. -1.
         11   -1    0    0    0    0 -0.00000000000E+00 -0.00000000000E+00 -0.45593999997E+02  0.45594000000E+02  0.51100000000E-03 0.  1.
    9900012    2    1    2    0    0  0.30533826791E+01 -0.14107666861E+02  0.38010724814E+02  0.50528872969E+02  0.30000039876E+02 0.  0.
        -12    1    1    2    0    0 -0.30533826791E+01  0.14107666861E+02 -0.38010724814E+02  0.40659127031E+02  0.00000000000E+00 0.  1.
         11    1    3    3    0    0  0.80631722166E+01 -0.12084851115E+02  0.13299526089E+02  0.19696085071E+02  0.51100000000E-03 0. -1.
        -11    1    3    3    0    0 -0.95938396966E+01 -0.43310800349E+01  0.23209951651E+02  0.25485326568E+02  0.51100000000E-03 0.  1.
         12    1    3    3    0    0  0.45840501591E+01  0.23082642899E+01  0.15012470744E+01  0.53474613296E+01  0.00000000000E+00 0. -1.
</event>
<event>
 7    1  0.2835316E-011  0.5052872E+02  0.7816164E-02  0.1300439E+00
        -11   -1    0    0    0    0  0.00000000000E+00  0.00000000000E+00  0.45593999997E+02  0.45594000000E+02  0.51100000000E-03 0.  1.
         11   -1    0    0    0    0 -0.00000000000E+00 -0.00000000000E+00 -0.45593999997E+02  0.45594000000E+02  0.51100000000E-03 0. -1.
    9900012    2    1    2    0    0 -0.33747124237E+02  0.22510309975E+02 -0.27557701933E+01  0.50528724075E+02  0.29999587294E+02 0.  0.
        -12    1    1    2    0    0  0.33747124237E+02 -0.22510309975E+02  0.27557701933E+01  0.40659275925E+02  0.00000000000E+00 0.  1.
         11    1    3    3    0    0 -0.15206367053E+02  0.31300182099E+01 -0.20705750817E+01  0.15662627314E+02  0.51100000000E-03 0. -1.
        -11    1    3    3    0    0 -0.22934061311E+02  0.19989848216E+02 -0.51587425656E+00  0.30427476504E+02  0.51100000000E-03 0.  1.
        -12    1    3    3    0    0  0.43933041277E+01 -0.60955645091E+00 -0.16932085506E+00  0.44386202561E+01  0.00000000000E+00 0.  1.
</event>
<event>
 7    1  0.2835316E-011  0.5052883E+02  0.7816164E-02  0.1300439E+00
        -11   -1    0    0    0    0  0.00000000000E+00  0.00000000000E+00  0.45593999997E+02  0.45594000000E+02  0.51100000000E-03 0.  1.
         11   -1    0    0    0    0 -0.00000000000E+00 -0.00000000000E+00 -0.45593999997E+02  0.45594000000E+02  0.51100000000E-03 0. -1.
    9900012    2    1    2    0    0 -0.36792176902E+02 -0.17285177144E+02 -0.85253015905E+00  0.50528825909E+02  0.29999896832E+02 0.  0.
        -12    1    1    2    0    0  0.36792176902E+02  0.17285177144E+02  0.85253015905E+00  0.40659174091E+02  0.00000000000E+00 0.  1.
         11    1    3    3    0    0 -0.33773289292E+02 -0.13160837271E+02  0.84455224600E+01  0.37217866102E+02  0.51100000000E-03 0. -1.
        -11    1    3    3    0    0 -0.38812512668E+01 -0.56215365840E+01 -0.44212940262E+01  0.81371755596E+01  0.51100000000E-03 0.  1.
        -12    1    3    3    0    0  0.86236365652E+00  0.14971967107E+01 -0.48767585928E+01  0.51737842475E+01  0.00000000000E+00 0.  1.
</event>
<event>
 7    1  0.2835316E-011  0.5052887E+02  0.7816164E-02  0.1300439E+00
        -11   -1    0    0    0    0  0.00000000000E+00  0.00000000000E+00  0.45593999997E+02  0.45594000000E+02  0.51100000000E-03 0.  1.
         11   -1    0    0    0    0 -0.00000000000E+00 -0.00000000000E+00 -0.45593999997E+02  0.45594000000E+02  0.51100000000E-03 0. -1.
    9900012    2    1    2    0    0 -0.48680271850E+01 -0.16545454497E+02 -0.36820040503E+02  0.50528866514E+02  0.30000020256E+02 0.  0.
        -12    1    1    2    0    0  0.48680271850E+01  0.16545454497E+02  0.36820040503E+02  0.40659133486E+02  0.00000000000E+00 0.  1.
         11    1    3    3    0    0 -0.46262075285E+01 -0.49871753702E+01 -0.19403521101E+02  0.20561379955E+02  0.51100000000E-03 0. -1.
        -11    1    3    3    0    0  0.42219974417E+01  0.50648694000E+01 -0.20802506708E+01  0.69141599309E+01  0.51100000000E-03 0.  1.
         12    1    3    3    0    0 -0.44638170981E+01 -0.16623148527E+02 -0.15336268731E+02  0.23053326628E+02  0.00000000000E+00 0. -1.
</event>
<event>
 7    1  0.2835316E-011  0.5052885E+02  0.7816164E-02  0.1300439E+00
        -11   -1    0    0    0    0  0.00000000000E+00  0.00000000000E+00  0.45593999997E+02  0.45594000000E+02  0.51100000000E-03 0. -1.
         11   -1    0    0    0    0 -0.00000000000E+00 -0.00000000000E+00 -0.45593999997E+02  0.45594000000E+02  0.51100000000E-03 0.  1.
    9900012    2    1    2    0    0  0.20836870597E+02  0.15889072513E+02  0.31089040880E+02  0.50528852635E+02  0.29999978069E+02 0.  0.
        -12    1    1    2    0    0 -0.20836870597E+02 -0.15889072513E+02 -0.31089040880E+02  0.40659147365E+02  0.00000000000E+00 0.  1.
         11    1    3    3    0    0  0.29695675499E+01  0.67142187587E+01  0.36079185667E+01  0.81802287020E+01  0.51100000000E-03 0. -1.
        -11    1    3    3    0    0  0.50155044242E+01 -0.38578858751E+01 -0.28364574764E+01  0.69342670363E+01  0.51100000000E-03 0.  1.
        -12    1    3    3    0    0  0.12851798623E+02  0.13032739630E+02  0.30317579789E+02  0.35414356897E+02  0.00000000000E+00 0.  1.
</event>
<event>
 7    1  0.2835316E-011  0.5052886E+02  0.7816164E-02  0.1300439E+00
        -11   -1    0    0    0    0  0.00000000000E+00  0.00000000000E+00  0.45593999997E+02  0.45594000000E+02  0.51100000000E-03 0.  1.
         11   -1    0    0    0    0 -0.00000000000E+00 -0.00000000000E+00 -0.45593999997E+02  0.45594000000E+02  0.51100000000E-03 0. -1.
    9900012    2    1    2    0    0 -0.43666102122E+01  0.76840000963E+01 -0.39686951969E+02  0.50528864509E+02  0.30000014163E+02 0.  0.
        -12    1    1    2    0    0  0.43666102122E+01 -0.76840000963E+01  0.39686951969E+02  0.40659135491E+02  0.00000000000E+00 0.  1.
         11    1    3    3    0    0 -0.17717152643E+01 -0.49681660796E+01 -0.16145747346E+02  0.16985488124E+02  0.51100000000E-03 0. -1.
        -11    1    3    3    0    0 -0.74899390471E+01 -0.22787272989E+00 -0.16439074698E+01  0.76716064120E+01  0.51100000000E-03 0.  1.
        -12    1    3    3    0    0  0.48950440992E+01  0.12880038906E+02 -0.21897297153E+02  0.25871769974E+02  0.00000000000E+00 0.  1.
</event>
<event>
 7    1  0.2835316E-011  0.5052886E+02  0.7816164E-02  0.1300439E+00
        -11   -1    0    0    0    0  0.00000000000E+00  0.00000000000E+00  0.45593999997E+02  0.45594000000E+02  0.51100000000E-03 0.  1.
         11   -1    0    0    0    0 -0.00000000000E+00 -0.00000000000E+00 -0.45593999997E+02  0.45594000000E+02  0.51100000000E-03 0. -1.
    9900012    2    1    2    0    0 -0.21625699776E+02 -0.33999692594E+02 -0.54328118045E+01  0.50528862879E+02  0.30000009208E+02 0.  0.
        -12    1    1    2    0    0  0.21625699776E+02  0.33999692594E+02  0.54328118045E+01  0.40659137121E+02  0.00000000000E+00 0.  1.
         11    1    3    3    0    0 -0.14735572719E+02 -0.25555511511E+02 -0.40082681914E+01  0.29770580882E+02  0.51100000000E-03 0. -1.
        -11    1    3    3    0    0  0.30398149283E+01 -0.91674050306E+01  0.26271607160E+01  0.10009183957E+02  0.51100000000E-03 0.  1.
         12    1    3    3    0    0 -0.99299419851E+01  0.72322394708E+00 -0.40517043291E+01  0.10749098040E+02  0.00000000000E+00 0. -1.
</event>
<event>
 7    1  0.2835316E-011  0.5052888E+02  0.7816164E-02  0.1300439E+00
        -11   -1    0    0    0    0  0.00000000000E+00  0.00000000000E+00  0.45593999997E+02  0.45594000000E+02  0.51100000000E-03 0.  1.
         11   -1    0    0    0    0 -0.00000000000E+00 -0.00000000000E+00 -0.45593999997E+02  0.45594000000E+02  0.51100000000E-03 0. -1.
    9900012    2    1    2    0    0  0.13099799856E+01 -0.23281781351E+02 -0.33307760747E+02  0.50528876590E+02  0.30000050884E+02 0.  0.
        -12    1    1    2    0    0 -0.13099799856E+01  0.23281781351E+02  0.33307760747E+02  0.40659123410E+02  0.00000000000E+00 0.  1.
         11    1    3    3    0    0 -0.36218841688E+01 -0.72748200658E+01 -0.18591974155E+02  0.20290454780E+02  0.51100000000E-03 0. -1.
        -11    1    3    3    0    0 -0.69342999859E+01 -0.68827743008E+01 -0.11199893072E+02  0.14862526819E+02  0.51100000000E-03 0.  1.
        -12    1    3    3    0    0  0.11866164140E+02 -0.91241869847E+01 -0.35158935202E+01  0.15375894991E+02  0.00000000000E+00 0.  1.
</event>
<event>
 7    1  0.2835316E-011  0.5052886E+02  0.7816164E-02  0.1300439E+00
        -11   -1    0    0    0    0  0.00000000000E+00  0.00000000000E+00  0.45593999997E+02  0.45594000000E+02  0.51100000000E-03 0. -1.
         11   -1    0    0    0    0 -0.00000000000E+00 -0.00000000000E+00 -0.45593999997E+02  0.45594000000E+02  0.51100000000E-03 0.  1.
    9900012    2    1    2    0    0 -0.32876472595E+02 -0.21829739808E+02  0.97859889538E+01  0.50528861173E+02  0.30000004020E+02 0.  0.
        -12    1    1    2    0    0  0.32876472595E+02  0.21829739808E+02 -0.97859889538E+01  0.40659138827E+02  0.00000000000E+00 0.  1.
         11    1    3    3    0    0 -0.17422507886E+02 -0.19769952941E+02  0.84215560705E+01  0.27664371080E+02  0.51100000000E-03 0. -1.
        -11    1    3    3    0    0 -0.16872546390E+02 -0.61080579160E+01  0.31492493428E+01  0.18218368886E+02  0.51100000000E-03 0.  1.
        -12    1    3    3    0    0  0.14185816810E+01  0.40482710489E+01 -0.17848164596E+01  0.46461212065E+01  0.00000000000E+00 0.  1.
</event>
<event>
 7    1  0.2835316E-011  0.5052883E+02  0.7816164E-02  0.1300439E+00
        -11   -1    0    0    0    0  0.00000000000E+00  0.00000000000E+00  0.45593999997E+02  0.45594000000E+02  0.51100000000E-03 0. -1.
         11   -1    0    0    0    0 -0.00000000000E+00 -0.00000000000E+00 -0.45593999997E+02  0.45594000000E+02  0.51100000000E-03 0.  1.
    9900012    2    1    2    0    0 -0.39680654432E+02  0.83028342983E+01  0.31107046243E+01  0.50528832807E+02  0.29999917801E+02 0.  0.
        -12    1    1    2    0    0  0.39680654432E+02 -0.83028342983E+01 -0.31107046243E+01  0.40659167193E+02  0.00000000000E+00 0.  1.
         11    1    3    3    0    0 -0.33356852949E+02  0.22070703427E+01 -0.64457237013E+01  0.34045530580E+02  0.51100000000E-03 0. -1.
        -11    1    3    3    0    0 -0.24337003458E+01 -0.28055842241E+01  0.27716653987E+01  0.46342560951E+01  0.51100000000E-03 0.  1.
        -12    1    3    3    0    0 -0.38901011373E+01  0.89013481797E+01  0.67847629268E+01  0.11849046132E+02  0.00000000000E+00 0.  1.
</event>
<event>
 7    1  0.2835316E-011  0.5052886E+02  0.7816164E-02  0.1300439E+00
        -11   -1    0    0    0    0  0.00000000000E+00  0.00000000000E+00  0.45593999997E+02  0.45594000000E+02  0.51100000000E-03 0.  1.
         11   -1    0    0    0    0 -0.00000000000E+00 -0.00000000000E+00 -0.45593999997E+02  0.45594000000E+02  0.51100000000E-03 0. -1.
    9900012    2    1    2    0    0  0.90997709136E+01  0.17501800389E+01 -0.39589101965E+02  0.50528856437E+02  0.29999989627E+02 0.  0.
        -12    1    1    2    0    0 -0.90997709136E+01 -0.17501800389E+01  0.39589101965E+02  0.40659143563E+02  0.00000000000E+00 0.  1.
         11    1    3    3    0    0  0.64212783671E+01 -0.58104403925E+01 -0.55221027008E+01  0.10270718179E+02  0.51100000000E-03 0. -1.
        -11    1    3    3    0    0 -0.30425504454E+01  0.23229216278E+01  0.13060863053E+01  0.40446186223E+01  0.51100000000E-03 0.  1.
         12    1    3    3    0    0  0.57210429919E+01  0.52376988036E+01 -0.35373085570E+02  0.36213519635E+02  0.00000000000E+00 0. -1.
</event>
<event>
 7    1  0.2835316E-011  0.5052885E+02  0.7816164E-02  0.1300439E+00
        -11   -1    0    0    0    0  0.00000000000E+00  0.00000000000E+00  0.45593999997E+02  0.45594000000E+02  0.51100000000E-03 0. -1.
         11   -1    0    0    0    0 -0.00000000000E+00 -0.00000000000E+00 -0.45593999997E+02  0.45594000000E+02  0.51100000000E-03 0.  1.
    9900012    2    1    2    0    0  0.27146867113E+02  0.23260784265E+02  0.19368781611E+02  0.50528853676E+02  0.29999981234E+02 0.  0.
        -12    1    1    2    0    0 -0.27146867113E+02 -0.23260784265E+02 -0.19368781611E+02  0.40659146324E+02  0.00000000000E+00 0.  1.
         11    1    3    3    0    0  0.12132764333E+02  0.31221524739E+01  0.68398603006E+01  0.14273594348E+02  0.51100000000E-03 0. -1.
        -11    1    3    3    0    0  0.13970778546E+02  0.15840395702E+02 -0.18590749268E+01  0.21202758052E+02  0.51100000000E-03 0.  1.
        -12    1    3    3    0    0  0.10433242343E+01  0.42982360898E+01  0.14387996237E+02  0.15052501276E+02  0.00000000000E+00 0.  1.
</event>
<event>
 7    1  0.2835316E-011  0.5052886E+02  0.7816164E-02  0.1300439E+00
        -11   -1    0    0    0    0  0.00000000000E+00  0.00000000000E+00  0.45593999997E+02  0.45594000000E+02  0.51100000000E-03 0. -1.
         11   -1    0    0    0    0 -0.00000000000E+00 -0.00000000000E+00 -0.45593999997E+02  0.45594000000E+02  0.51100000000E-03 0.  1.
    9900012    2    1    2    0    0  0.24951432879E+02 -0.23988389197E+02  0.21334215467E+02  0.50528861192E+02  0.30000004081E+02 0.  0.
        -12    1    1    2    0    0 -0.24951432879E+02  0.23988389197E+02 -0.21334215467E+02  0.40659138808E+02  0.00000000000E+00 0.  1.
         11    1    3    3    0    0  0.36245406588E+00 -0.40059530841E+01 -0.10909224900E+01  0.41676306460E+01  0.51100000000E-03 0.  1.
        -11    1    3    3    0    0  0.21588410476E+02 -0.24147689736E+02  0.24712101843E+02  0.40741359382E+02  0.51100000000E-03 0. -1.
         12    1    3    3    0    0  0.30005683371E+01  0.41652536235E+01 -0.22869638862E+01  0.56198711649E+01  0.00000000000E+00 0. -1.
</event>
<event>
 7    1  0.2835316E-011  0.5052887E+02  0.7816164E-02  0.1300439E+00
        -11   -1    0    0    0    0  0.00000000000E+00  0.00000000000E+00  0.45593999997E+02  0.45594000000E+02  0.51100000000E-03 0.  1.
         11   -1    0    0    0    0 -0.00000000000E+00 -0.00000000000E+00 -0.45593999997E+02  0.45594000000E+02  0.51100000000E-03 0. -1.
    9900012    2    1    2    0    0 -0.17749652737E+02 -0.35715708440E+02  0.79058515543E+01  0.50528874450E+02  0.30000044379E+02 0.  0.
        -12    1    1    2    0    0  0.17749652737E+02  0.35715708440E+02 -0.79058515543E+01  0.40659125550E+02  0.00000000000E+00 0.  1.
         11    1    3    3    0    0 -0.11320124480E+02 -0.14324068452E+02  0.72438000692E+01  0.19641710592E+02  0.51100000000E-03 0. -1.
        -11    1    3    3    0    0  0.76410730229E+01 -0.51181658775E+01 -0.12854456256E+01  0.92862258000E+01  0.51100000000E-03 0.  1.
         12    1    3    3    0    0 -0.14070601280E+02 -0.16273474111E+02  0.19474971107E+01  0.21600938058E+02  0.00000000000E+00 0. -1.
</event>
<event>
 7    1  0.2835316E-011  0.5052884E+02  0.7816164E-02  0.1300439E+00
        -11   -1    0    0    0    0  0.00000000000E+00  0.00000000000E+00  0.45593999997E+02  0.45594000000E+02  0.51100000000E-03 0. -1.
         11   -1    0    0    0    0 -0.00000000000E+00 -0.00000000000E+00 -0.45593999997E+02  0.45594000000E+02  0.51100000000E-03 0.  1.
    9900012    2    1    2    0    0 -0.10706845999E+02  0.21700821131E+02  0.32674227118E+02  0.50528839817E+02  0.29999939108E+02 0.  0.
        -12    1    1    2    0    0  0.10706845999E+02 -0.21700821131E+02 -0.32674227118E+02  0.40659160183E+02  0.00000000000E+00 0.  1.
         11    1    3    3    0    0 -0.74100384565E+01  0.76802319562E+01  0.17642653427E+02  0.20619356271E+02  0.51100000000E-03 0.  1.
        -11    1    3    3    0    0 -0.66103404572E+01  0.18820703265E+02  0.12574477735E+02  0.23580351205E+02  0.51100000000E-03 0. -1.
        -12    1    3    3    0    0  0.33135329152E+01 -0.48001140901E+01  0.24570959557E+01  0.63291323413E+01  0.00000000000E+00 0.  1.
</event>
<event>
 7    1  0.2835316E-011  0.5052886E+02  0.7816164E-02  0.1300439E+00
        -11   -1    0    0    0    0  0.00000000000E+00  0.00000000000E+00  0.45593999997E+02  0.45594000000E+02  0.51100000000E-03 0.  1.
         11   -1    0    0    0    0 -0.00000000000E+00 -0.00000000000E+00 -0.45593999997E+02  0.45594000000E+02  0.51100000000E-03 0. -1.
    9900012    2    1    2    0    0 -0.35640713672E+02  0.14262168809E+02  0.13397607780E+02  0.50528858047E+02  0.29999994518E+02 0.  0.
        -12    1    1    2    0    0  0.35640713672E+02 -0.14262168809E+02 -0.13397607780E+02  0.40659141953E+02  0.00000000000E+00 0.  1.
         11    1    3    3    0    0 -0.15444964949E+02  0.40479114683E+01  0.34246733022E+01  0.16329755571E+02  0.51100000000E-03 0. -1.
        -11    1    3    3    0    0 -0.16905838318E+02  0.16922038503E+02  0.11551332453E+02  0.26563057769E+02  0.51100000000E-03 0.  1.
        -12    1    3    3    0    0 -0.32899104043E+01 -0.67077811623E+01 -0.15783979750E+01  0.76360447063E+01  0.00000000000E+00 0.  1.
</event>
<event>
 7    1  0.2835316E-011  0.5052886E+02  0.7816164E-02  0.1300439E+00
        -11   -1    0    0    0    0  0.00000000000E+00  0.00000000000E+00  0.45593999997E+02  0.45594000000E+02  0.51100000000E-03 0. -1.
         11   -1    0    0    0    0 -0.00000000000E+00 -0.00000000000E+00 -0.45593999997E+02  0.45594000000E+02  0.51100000000E-03 0.  1.
    9900012    2    1    2    0    0 -0.36411532815E+02  0.18091506796E+02 -0.25118006739E+00  0.50528862878E+02  0.30000009203E+02 0.  0.
        -12    1    1    2    0    0  0.36411532815E+02 -0.18091506796E+02  0.25118006739E+00  0.40659137122E+02  0.00000000000E+00 0.  1.
         11    1    3    3    0    0  0.76869800386E+00 -0.35598598524E+01  0.36089322135E+00  0.36597462983E+01  0.51100000000E-03 0. -1.
        -11    1    3    3    0    0 -0.14253080952E+02  0.55732197180E+01  0.83925133575E+01  0.17454093370E+02  0.51100000000E-03 0.  1.
        -12    1    3    3    0    0 -0.22927149867E+02  0.16078146931E+02 -0.90045866462E+01  0.29415023209E+02  0.00000000000E+00 0.  1.
</event>
<event>
 7    1  0.2835316E-011  0.5052886E+02  0.7816164E-02  0.1300439E+00
        -11   -1    0    0    0    0  0.00000000000E+00  0.00000000000E+00  0.45593999997E+02  0.45594000000E+02  0.51100000000E-03 0.  1.
         11   -1    0    0    0    0 -0.00000000000E+00 -0.00000000000E+00 -0.45593999997E+02  0.45594000000E+02  0.51100000000E-03 0. -1.
    9900012    2    1    2    0    0 -0.21484714541E+02 -0.26580045937E+02  0.22024392268E+02  0.50528860121E+02  0.30000000824E+02 0.  0.
        -12    1    1    2    0    0  0.21484714541E+02  0.26580045937E+02 -0.22024392268E+02  0.40659139879E+02  0.00000000000E+00 0.  1.
         11    1    3    3    0    0 -0.82675662007E+01 -0.41734368979E+01  0.23621580249E+01  0.95577202941E+01  0.51100000000E-03 0. -1.
        -11    1    3    3    0    0 -0.11053930901E+02 -0.27108201947E+02  0.20485172787E+02  0.35730747341E+02  0.51100000000E-03 0.  1.
         12    1    3    3    0    0 -0.21632174395E+01  0.47015929079E+01 -0.82293854395E+00  0.52403924861E+01  0.00000000000E+00 0. -1.
</event>
<event>
 7    1  0.2835316E-011  0.5052875E+02  0.7816164E-02  0.1300439E+00
        -11   -1    0    0    0    0  0.00000000000E+00  0.00000000000E+00  0.45593999997E+02  0.45594000000E+02  0.51100000000E-03 0.  1.
         11   -1    0    0    0    0 -0.00000000000E+00 -0.00000000000E+00 -0.45593999997E+02  0.45594000000E+02  0.51100000000E-03 0. -1.
    9900012    2    1    2    0    0  0.27805874190E+02  0.64987220330E+01 -0.28944333698E+02  0.50528751596E+02  0.29999670950E+02 0.  0.
        -12    1    1    2    0    0 -0.27805874190E+02 -0.64987220330E+01  0.28944333698E+02  0.40659248404E+02  0.00000000000E+00 0.  1.
         11    1    3    3    0    0  0.17431667228E+02  0.53930545478E+01 -0.30529426862E+02  0.35566753640E+02  0.51100000000E-03 0. -1.
        -11    1    3    3    0    0  0.60659859406E+01 -0.33877495563E+01 -0.26465007302E+01  0.74348502920E+01  0.51100000000E-03 0.  1.
        -12    1    3    3    0    0  0.43082210211E+01  0.44934170416E+01  0.42315938938E+01  0.75271476641E+01  0.00000000000E+00 0.  1.
</event>
<event>
 7    1  0.2835316E-011  0.5052887E+02  0.7816164E-02  0.1300439E+00
        -11   -1    0    0    0    0  0.00000000000E+00  0.00000000000E+00  0.45593999997E+02  0.45594000000E+02  0.51100000000E-03 0. -1.
         11   -1    0    0    0    0 -0.00000000000E+00 -0.00000000000E+00 -0.45593999997E+02  0.45594000000E+02  0.51100000000E-03 0.  1.
    9900012    2    1    2    0    0 -0.30803408846E+02  0.21758112562E+02 -0.15195362163E+02  0.50528874455E+02  0.30000044395E+02 0.  0.
        -12    1    1    2    0    0  0.30803408846E+02 -0.21758112562E+02  0.15195362163E+02  0.40659125545E+02  0.00000000000E+00 0.  1.
         11    1    3    3    0    0 -0.83732873307E+01  0.15004306819E+02 -0.11877923239E+02  0.20888423219E+02  0.51100000000E-03 0.  1.
        -11    1    3    3    0    0 -0.19680191259E+02  0.10358783047E+02 -0.75013418504E+01  0.23470927634E+02  0.51100000000E-03 0. -1.
        -12    1    3    3    0    0 -0.27499302565E+01 -0.36049773043E+01  0.41839029265E+01  0.61695236022E+01  0.00000000000E+00 0.  1.
</event>
<event>
 7    1  0.2835316E-011  0.5052886E+02  0.7816164E-02  0.1300439E+00
        -11   -1    0    0    0    0  0.00000000000E+00  0.00000000000E+00  0.45593999997E+02  0.45594000000E+02  0.51100000000E-03 0.  1.
         11   -1    0    0    0    0 -0.00000000000E+00 -0.00000000000E+00 -0.45593999997E+02  0.45594000000E+02  0.51100000000E-03 0. -1.
    9900012    2    1    2    0    0 -0.73381157390E+01  0.13478697182E+02 -0.37651595221E+02  0.50528857817E+02  0.29999993821E+02 0.  0.
        -12    1    1    2    0    0  0.73381157390E+01 -0.13478697182E+02  0.37651595221E+02  0.40659142183E+02  0.00000000000E+00 0.  1.
         11    1    3    3    0    0 -0.98009693932E+01  0.13636518759E+01 -0.30794711997E+01  0.10363478693E+02  0.51100000000E-03 0. -1.
        -11    1    3    3    0    0 -0.13051709632E+00  0.10158334403E+02 -0.68483001456E+01  0.12251857316E+02  0.51100000000E-03 0.  1.
         12    1    3    3    0    0  0.25933707505E+01  0.19567109029E+01 -0.27723823876E+02  0.27913521808E+02  0.00000000000E+00 0. -1.
</event>
<event>
 7    1  0.2835316E-011  0.5052885E+02  0.7816164E-02  0.1300439E+00
        -11   -1    0    0    0    0  0.00000000000E+00  0.00000000000E+00  0.45593999997E+02  0.45594000000E+02  0.51100000000E-03 0. -1.
         11   -1    0    0    0    0 -0.00000000000E+00 -0.00000000000E+00 -0.45593999997E+02  0.45594000000E+02  0.51100000000E-03 0.  1.
    9900012    2    1    2    0    0  0.27836182667E+02  0.58505324810E+01 -0.29053135748E+02  0.50528849829E+02  0.29999969542E+02 0.  0.
        -12    1    1    2    0    0 -0.27836182667E+02 -0.58505324810E+01  0.29053135748E+02  0.40659150171E+02  0.00000000000E+00 0.  1.
         11    1    3    3    0    0  0.93663249151E+01 -0.29354983133E+01 -0.19528859682E+02  0.21856842258E+02  0.51100000000E-03 0.  1.
        -11    1    3    3    0    0  0.13523328413E+02 -0.33373414000E+01 -0.54760590393E+01  0.14966812681E+02  0.51100000000E-03 0. -1.
         12    1    3    3    0    0  0.49465293393E+01  0.12123372194E+02 -0.40482170266E+01  0.13705194890E+02  0.00000000000E+00 0. -1.
</event>
<event>
 7    1  0.2835316E-011  0.5052886E+02  0.7816164E-02  0.1300439E+00
        -11   -1    0    0    0    0  0.00000000000E+00  0.00000000000E+00  0.45593999997E+02  0.45594000000E+02  0.51100000000E-03 0.  1.
         11   -1    0    0    0    0 -0.00000000000E+00 -0.00000000000E+00 -0.45593999997E+02  0.45594000000E+02  0.51100000000E-03 0. -1.
    9900012    2    1    2    0    0  0.25674241940E+02  0.13741698691E+02 -0.28375427484E+02  0.50528857523E+02  0.29999992927E+02 0.  0.
        -12    1    1    2    0    0 -0.25674241940E+02 -0.13741698691E+02  0.28375427484E+02  0.40659142477E+02  0.00000000000E+00 0.  1.
         11    1    3    3    0    0  0.35641843613E+01  0.16138730990E+02 -0.13122011196E+02  0.21103298942E+02  0.51100000000E-03 0. -1.
        -11    1    3    3    0    0  0.38131371223E+01 -0.10655281358E+00 -0.92945941646E+01  0.10046932326E+02  0.51100000000E-03 0.  1.
         12    1    3    3    0    0  0.18296920456E+02 -0.22904794853E+01 -0.59588221226E+01  0.19378626255E+02  0.00000000000E+00 0. -1.
</event>
<event>
 7    1  0.2835316E-011  0.5052886E+02  0.7816164E-02  0.1300439E+00
        -11   -1    0    0    0    0  0.00000000000E+00  0.00000000000E+00  0.45593999997E+02  0.45594000000E+02  0.51100000000E-03 0.  1.
         11   -1    0    0    0    0 -0.00000000000E+00 -0.00000000000E+00 -0.45593999997E+02  0.45594000000E+02  0.51100000000E-03 0. -1.
    9900012    2    1    2    0    0  0.11013930951E+02  0.33433415966E+02 -0.20348594148E+02  0.50528864963E+02  0.30000015543E+02 0.  0.
        -12    1    1    2    0    0 -0.11013930951E+02 -0.33433415966E+02  0.20348594148E+02  0.40659135037E+02  0.00000000000E+00 0.  1.
         11    1    3    3    0    0  0.62543575633E+01  0.94456718133E+01 -0.17345376793E+02  0.20717137854E+02  0.51100000000E-03 0. -1.
        -11    1    3    3    0    0  0.10172647252E+02  0.86393161363E+01 -0.21128621380E+01  0.13512391428E+02  0.51100000000E-03 0.  1.
         12    1    3    3    0    0 -0.54130738648E+01  0.15348428016E+02 -0.89035521730E+00  0.16299335681E+02  0.00000000000E+00 0. -1.
</event>
<event>
 7    1  0.2835316E-011  0.5052886E+02  0.7816164E-02  0.1300439E+00
        -11   -1    0    0    0    0  0.00000000000E+00  0.00000000000E+00  0.45593999997E+02  0.45594000000E+02  0.51100000000E-03 0. -1.
         11   -1    0    0    0    0 -0.00000000000E+00 -0.00000000000E+00 -0.45593999997E+02  0.45594000000E+02  0.51100000000E-03 0.  1.
    9900012    2    1    2    0    0 -0.31458719660E+02  0.14226674349E+02 -0.21473628204E+02  0.50528855716E+02  0.29999987433E+02 0.  0.
        -12    1    1    2    0    0  0.31458719660E+02 -0.14226674349E+02  0.21473628204E+02  0.40659144284E+02  0.00000000000E+00 0.  1.
         11    1    3    3    0    0 -0.59563027258E+01 -0.20418754036E+01 -0.14638458339E+02  0.15935220743E+02  0.51100000000E-03 0.  1.
        -11    1    3    3    0    0 -0.17361063757E+02  0.20054853072E+01 -0.30621964219E+01  0.17742760587E+02  0.51100000000E-03 0. -1.
        -12    1    3    3    0    0 -0.81413531776E+01  0.14263064445E+02 -0.37729734431E+01  0.16850874385E+02  0.00000000000E+00 0.  1.
</event>
<event>
 7    1  0.2835316E-011  0.5052887E+02  0.7816164E-02  0.1300439E+00
        -11   -1    0    0    0    0  0.00000000000E+00  0.00000000000E+00  0.45593999997E+02  0.45594000000E+02  0.51100000000E-03 0.  1.
         11   -1    0    0    0    0 -0.00000000000E+00 -0.00000000000E+00 -0.45593999997E+02  0.45594000000E+02  0.51100000000E-03 0. -1.
    9900012    2    1    2    0    0  0.25949727912E+02  0.96484411909E+00 -0.31286510674E+02  0.50528867532E+02  0.30000023349E+02 0.  0.
        -12    1    1    2    0    0 -0.25949727912E+02 -0.96484411909E+00  0.31286510674E+02  0.40659132468E+02  0.00000000000E+00 0.  1.
         11    1    3    3    0    0  0.75051536993E+01  0.52479861175E+01 -0.69610196926E+01  0.11503238055E+02  0.51100000000E-03 0. -1.
        -11    1    3    3    0    0  0.16406671004E+02  0.70413669464E+01 -0.93922624548E+01  0.20173603947E+02  0.51100000000E-03 0.  1.
        -12    1    3    3    0    0  0.20379032089E+01 -0.11324508945E+02 -0.14933228527E+02  0.18852025530E+02  0.00000000000E+00 0.  1.
</event>
<event>
 7    1  0.2835316E-011  0.5052885E+02  0.7816164E-02  0.1300439E+00
        -11   -1    0    0    0    0  0.00000000000E+00  0.00000000000E+00  0.45593999997E+02  0.45594000000E+02  0.51100000000E-03 0. -1.
         11   -1    0    0    0    0 -0.00000000000E+00 -0.00000000000E+00 -0.45593999997E+02  0.45594000000E+02  0.51100000000E-03 0.  1.
    9900012    2    1    2    0    0  0.86330143138E+01 -0.37842130066E+02  0.12108294083E+02  0.50528849373E+02  0.29999968154E+02 0.  0.
        -12    1    1    2    0    0 -0.86330143138E+01  0.37842130066E+02 -0.12108294083E+02  0.40659150627E+02  0.00000000000E+00 0.  1.
         11    1    3    3    0    0 -0.22149320157E+01 -0.19593478599E+01  0.71720259220E+01  0.77577653971E+01  0.51100000000E-03 0. -1.
        -11    1    3    3    0    0  0.58060714475E+01 -0.33580154301E+01 -0.50280350179E+01  0.83825932554E+01  0.51100000000E-03 0.  1.
        -12    1    3    3    0    0  0.50418748820E+01 -0.32524766776E+02  0.99643031792E+01  0.34388490720E+02  0.00000000000E+00 0.  1.
</event>
<event>
 7    1  0.2835316E-011  0.5052887E+02  0.7816164E-02  0.1300439E+00
        -11   -1    0    0    0    0  0.00000000000E+00  0.00000000000E+00  0.45593999997E+02  0.45594000000E+02  0.51100000000E-03 0.  1.
         11   -1    0    0    0    0 -0.00000000000E+00 -0.00000000000E+00 -0.45593999997E+02  0.45594000000E+02  0.51100000000E-03 0. -1.
    9900012    2    1    2    0    0  0.36996592373E+02 -0.35323180353E+00 -0.16860973236E+02  0.50528867712E+02  0.30000023899E+02 0.  0.
        -12    1    1    2    0    0 -0.36996592373E+02  0.35323180353E+00  0.16860973236E+02  0.40659132288E+02  0.00000000000E+00 0.  1.
         11    1    3    3    0    0 -0.24805241013E+01 -0.19612991666E+01 -0.14293778514E+01  0.34702760036E+01  0.51100000000E-03 0. -1.
        -11    1    3    3    0    0 -0.11423420264E+01 -0.31977779545E+01 -0.16525082226E+00  0.33997113476E+01  0.51100000000E-03 0.  1.
         12    1    3    3    0    0  0.40619458501E+02  0.48058453176E+01 -0.15266344562E+02  0.43658880361E+02  0.00000000000E+00 0. -1.
</event>
<event>
 7    1  0.2835316E-011  0.5052886E+02  0.7816164E-02  0.1300439E+00
        -11   -1    0    0    0    0  0.00000000000E+00  0.00000000000E+00  0.45593999997E+02  0.45594000000E+02  0.51100000000E-03 0.  1.
         11   -1    0    0    0    0 -0.00000000000E+00 -0.00000000000E+00 -0.45593999997E+02  0.45594000000E+02  0.51100000000E-03 0. -1.
    9900012    2    1    2    0    0  0.37780406273E+02  0.10255969090E+02  0.10982773639E+02  0.50528864287E+02  0.30000013486E+02 0.  0.
        -12    1    1    2    0    0 -0.37780406273E+02 -0.10255969090E+02 -0.10982773639E+02  0.40659135713E+02  0.00000000000E+00 0.  1.
         11    1    3    3    0    0  0.25940555690E+02  0.15993819783E+02  0.94167325311E+01  0.31896544524E+02  0.51100000000E-03 0. -1.
        -11    1    3    3    0    0  0.27360384669E+01  0.41760713422E+01  0.13458163501E+01  0.51707543218E+01  0.51100000000E-03 0.  1.
         12    1    3    3    0    0  0.91038121168E+01 -0.99139220351E+01  0.22022475745E+00  0.13461565441E+02  0.00000000000E+00 0. -1.
</event>
<event>
 7    1  0.2835316E-011  0.5052893E+02  0.7816164E-02  0.1300439E+00
        -11   -1    0    0    0    0  0.00000000000E+00  0.00000000000E+00  0.45593999997E+02  0.45594000000E+02  0.51100000000E-03 0.  1.
         11   -1    0    0    0    0 -0.00000000000E+00 -0.00000000000E+00 -0.45593999997E+02  0.45594000000E+02  0.51100000000E-03 0. -1.
    9900012    2    1    2    0    0  0.19811620527E+02  0.44878990931E+01 -0.35220990704E+02  0.50528932963E+02  0.30000222232E+02 0.  0.
        -12    1    1    2    0    0 -0.19811620527E+02 -0.44878990931E+01  0.35220990704E+02  0.40659067037E+02  0.00000000000E+00 0.  1.
         11    1    3    3    0    0  0.28008249611E+01 -0.53583976167E+01 -0.20474000643E+02  0.21348108770E+02  0.51100000000E-03 0. -1.
        -11    1    3    3    0    0  0.59157307608E+01 -0.34736418125E+01 -0.75211016313E+00  0.69012845061E+01  0.51100000000E-03 0.  1.
        -12    1    3    3    0    0  0.11095064806E+02  0.13319938522E+02 -0.13994879898E+02  0.22279539686E+02  0.00000000000E+00 0.  1.
</event>
<event>
 7    1  0.2835316E-011  0.5052882E+02  0.7816164E-02  0.1300439E+00
        -11   -1    0    0    0    0  0.00000000000E+00  0.00000000000E+00  0.45593999997E+02  0.45594000000E+02  0.51100000000E-03 0. -1.
         11   -1    0    0    0    0 -0.00000000000E+00 -0.00000000000E+00 -0.45593999997E+02  0.45594000000E+02  0.51100000000E-03 0.  1.
    9900012    2    1    2    0    0 -0.75258229436E+01 -0.30916285459E+02 -0.25312329522E+02  0.50528822151E+02  0.29999885408E+02 0.  0.
        -12    1    1    2    0    0  0.75258229436E+01  0.30916285459E+02  0.25312329522E+02  0.40659177849E+02  0.00000000000E+00 0.  1.
         11    1    3    3    0    0 -0.93191289789E+01 -0.65388884842E+01 -0.17704354631E+02  0.21048691187E+02  0.51100000000E-03 0. -1.
        -11    1    3    3    0    0  0.32199633264E+01  0.25757344009E+00 -0.29367118665E+01  0.43656368090E+01  0.51100000000E-03 0.  1.
        -12    1    3    3    0    0 -0.14266572911E+01 -0.24634970415E+02 -0.46712630243E+01  0.25114494154E+02  0.00000000000E+00 0.  1.
</event>
<event>
 7    1  0.2835316E-011  0.5052886E+02  0.7816164E-02  0.1300439E+00
        -11   -1    0    0    0    0  0.00000000000E+00  0.00000000000E+00  0.45593999997E+02  0.45594000000E+02  0.51100000000E-03 0. -1.
         11   -1    0    0    0    0 -0.00000000000E+00 -0.00000000000E+00 -0.45593999997E+02  0.45594000000E+02  0.51100000000E-03 0.  1.
    9900012    2    1    2    0    0 -0.39261488087E+02 -0.84580223741E+01 -0.63374344286E+01  0.50528860014E+02  0.30000000498E+02 0.  0.
        -12    1    1    2    0    0  0.39261488087E+02  0.84580223741E+01  0.63374344286E+01  0.40659139986E+02  0.00000000000E+00 0.  1.
         11    1    3    3    0    0 -0.18730141223E+02 -0.52675798592E+01 -0.14691410488E+02  0.24380384128E+02  0.51100000000E-03 0. -1.
        -11    1    3    3    0    0 -0.34899512595E+01 -0.55870766624E+01 -0.83422999456E+00  0.66401148613E+01  0.51100000000E-03 0.  1.
         12    1    3    3    0    0 -0.17041395604E+02  0.23966341475E+01  0.91882060544E+01  0.19508361025E+02  0.00000000000E+00 0. -1.
</event>
<event>
 7    1  0.2835316E-011  0.5052885E+02  0.7816164E-02  0.1300439E+00
        -11   -1    0    0    0    0  0.00000000000E+00  0.00000000000E+00  0.45593999997E+02  0.45594000000E+02  0.51100000000E-03 0.  1.
         11   -1    0    0    0    0 -0.00000000000E+00 -0.00000000000E+00 -0.45593999997E+02  0.45594000000E+02  0.51100000000E-03 0. -1.
    9900012    2    1    2    0    0 -0.15540606907E+02 -0.20265627577E+02 -0.31637953980E+02  0.50528852737E+02  0.29999978379E+02 0.  0.
        -12    1    1    2    0    0  0.15540606907E+02  0.20265627577E+02  0.31637953980E+02  0.40659147263E+02  0.00000000000E+00 0.  1.
         11    1    3    3    0    0 -0.59171918282E+01 -0.19507954370E+02 -0.14430026459E+02  0.24975970586E+02  0.51100000000E-03 0. -1.
        -11    1    3    3    0    0 -0.20537170936E+01 -0.42006507466E+01  0.16374794292E+01  0.49542466367E+01  0.51100000000E-03 0.  1.
         12    1    3    3    0    0 -0.75696979853E+01  0.34429775398E+01 -0.18845406950E+02  0.20598635514E+02  0.00000000000E+00 0. -1.
</event>
<event>
 7    1  0.2835316E-011  0.5052885E+02  0.7816164E-02  0.1300439E+00
        -11   -1    0    0    0    0  0.00000000000E+00  0.00000000000E+00  0.45593999997E+02  0.45594000000E+02  0.51100000000E-03 0.  1.
         11   -1    0    0    0    0 -0.00000000000E+00 -0.00000000000E+00 -0.45593999997E+02  0.45594000000E+02  0.51100000000E-03 0. -1.
    9900012    2    1    2    0    0  0.23794598503E+02 -0.55526744616E+01 -0.32498477415E+02  0.50528854093E+02  0.29999982501E+02 0.  0.
        -12    1    1    2    0    0 -0.23794598503E+02  0.55526744616E+01  0.32498477415E+02  0.40659145907E+02  0.00000000000E+00 0.  1.
         11    1    3    3    0    0 -0.19973169738E+01  0.49899408777E+01 -0.62968148435E+01  0.82788080357E+01  0.51100000000E-03 0. -1.
        -11    1    3    3    0    0  0.14420313432E+02  0.36931249370E+01 -0.10772094832E+02  0.18374510568E+02  0.51100000000E-03 0.  1.
        -12    1    3    3    0    0  0.11371602045E+02 -0.14235740276E+02 -0.15429567740E+02  0.23875535489E+02  0.00000000000E+00 0.  1.
</event>
<event>
 7    1  0.2835316E-011  0.5052886E+02  0.7816164E-02  0.1300439E+00
        -11   -1    0    0    0    0  0.00000000000E+00  0.00000000000E+00  0.45593999997E+02  0.45594000000E+02  0.51100000000E-03 0.  1.
         11   -1    0    0    0    0 -0.00000000000E+00 -0.00000000000E+00 -0.45593999997E+02  0.45594000000E+02  0.51100000000E-03 0. -1.
    9900012    2    1    2    0    0  0.18669346137E+02  0.31704070245E+01 -0.35980126778E+02  0.50528862173E+02  0.30000007060E+02 0.  0.
        -12    1    1    2    0    0 -0.18669346137E+02 -0.31704070245E+01  0.35980126778E+02  0.40659137827E+02  0.00000000000E+00 0.  1.
         11    1    3    3    0    0  0.11312649546E+02 -0.50092617540E+01 -0.16337707347E+02  0.20493643519E+02  0.51100000000E-03 0. -1.
        -11    1    3    3    0    0 -0.47925200719E+01  0.92524334401E+01 -0.76154854885E+01  0.12906254015E+02  0.51100000000E-03 0.  1.
         12    1    3    3    0    0  0.12149216663E+02 -0.10727646616E+01 -0.12026933943E+02  0.17128964639E+02  0.00000000000E+00 0. -1.
</event>
<event>
 7    1  0.2835316E-011  0.5052885E+02  0.7816164E-02  0.1300439E+00
        -11   -1    0    0    0    0  0.00000000000E+00  0.00000000000E+00  0.45593999997E+02  0.45594000000E+02  0.51100000000E-03 0.  1.
         11   -1    0    0    0    0 -0.00000000000E+00 -0.00000000000E+00 -0.45593999997E+02  0.45594000000E+02  0.51100000000E-03 0. -1.
    9900012    2    1    2    0    0 -0.20625724518E+02 -0.50763841653E+01 -0.34669528202E+02  0.50528851290E+02  0.29999973980E+02 0.  0.
        -12    1    1    2    0    0  0.20625724518E+02  0.50763841653E+01  0.34669528202E+02  0.40659148710E+02  0.00000000000E+00 0.  1.
         11    1    3    3    0    0 -0.18182242423E+02 -0.32558507985E+01 -0.14871256441E+02  0.23713894078E+02  0.51100000000E-03 0. -1.
        -11    1    3    3    0    0 -0.74532400574E+01 -0.15194739393E+01 -0.20388839841E+02  0.21761534384E+02  0.51100000000E-03 0.  1.
        -12    1    3    3    0    0  0.50097579623E+01 -0.30105942747E+00  0.59056808017E+00  0.50534228278E+01  0.00000000000E+00 0.  1.
</event>
<event>
 7    1  0.2835316E-011  0.5052873E+02  0.7816164E-02  0.1300439E+00
        -11   -1    0    0    0    0  0.00000000000E+00  0.00000000000E+00  0.45593999997E+02  0.45594000000E+02  0.51100000000E-03 0. -1.
         11   -1    0    0    0    0 -0.00000000000E+00 -0.00000000000E+00 -0.45593999997E+02  0.45594000000E+02  0.51100000000E-03 0.  1.
    9900012    2    1    2    0    0  0.19876115422E+02 -0.14354246563E+02  0.32435653104E+02  0.50528733517E+02  0.29999615996E+02 0.  0.
        -12    1    1    2    0    0 -0.19876115422E+02  0.14354246563E+02 -0.32435653104E+02  0.40659266483E+02  0.00000000000E+00 0.  1.
         11    1    3    3    0    0  0.66165181544E+01  0.65309493278E+01  0.15297312148E+02  0.17900820396E+02  0.51100000000E-03 0. -1.
        -11    1    3    3    0    0  0.97465965179E+01 -0.67245590723E+01  0.12731582245E+02  0.17387036122E+02  0.51100000000E-03 0.  1.
        -12    1    3    3    0    0  0.35130007492E+01 -0.14160636819E+02  0.44067587111E+01  0.15240876999E+02  0.00000000000E+00 0.  1.
</event>
<event>
 7    1  0.2835316E-011  0.5052887E+02  0.7816164E-02  0.1300439E+00
        -11   -1    0    0    0    0  0.00000000000E+00  0.00000000000E+00  0.45593999997E+02  0.45594000000E+02  0.51100000000E-03 0.  1.
         11   -1    0    0    0    0 -0.00000000000E+00 -0.00000000000E+00 -0.45593999997E+02  0.45594000000E+02  0.51100000000E-03 0. -1.
    9900012    2    1    2    0    0 -0.29285785021E+02 -0.14508742718E+01 -0.28167403626E+02  0.50528869814E+02  0.30000030285E+02 0.  0.
        -12    1    1    2    0    0  0.29285785021E+02  0.14508742718E+01  0.28167403626E+02  0.40659130186E+02  0.00000000000E+00 0.  1.
         11    1    3    3    0    0 -0.87090805693E+01  0.22491191444E+00 -0.11671374949E+01  0.87898168311E+01  0.51100000000E-03 0. -1.
        -11    1    3    3    0    0 -0.61695288183E+01  0.10979485529E+02 -0.11962029463E+02  0.17369580809E+02  0.51100000000E-03 0.  1.
         12    1    3    3    0    0 -0.14407175634E+02 -0.12655271716E+02 -0.15038236668E+02  0.24369472174E+02  0.00000000000E+00 0. -1.
</event>
<event>
 7    1  0.2835316E-011  0.5052886E+02  0.7816164E-02  0.1300439E+00
        -11   -1    0    0    0    0  0.00000000000E+00  0.00000000000E+00  0.45593999997E+02  0.45594000000E+02  0.51100000000E-03 0.  1.
         11   -1    0    0    0    0 -0.00000000000E+00 -0.00000000000E+00 -0.45593999997E+02  0.45594000000E+02  0.51100000000E-03 0. -1.
    9900012    2    1    2    0    0 -0.12721538055E+02 -0.26927471371E+02 -0.27681034399E+02  0.50528856990E+02  0.29999991306E+02 0.  0.
        -12    1    1    2    0    0  0.12721538055E+02  0.26927471371E+02  0.27681034399E+02  0.40659143010E+02  0.00000000000E+00 0.  1.
         11    1    3    3    0    0  0.59213801271E+00 -0.15824013933E+02 -0.16929863764E+02  0.23181249572E+02  0.51100000000E-03 0. -1.
        -11    1    3    3    0    0 -0.63765408189E+01  0.32666864623E+01 -0.86828514120E+01  0.11257149824E+02  0.51100000000E-03 0.  1.
         12    1    3    3    0    0 -0.69371352487E+01 -0.14370143900E+02 -0.20683192233E+01  0.16090457594E+02  0.00000000000E+00 0. -1.
</event>
<event>
 7    1  0.2835316E-011  0.5052890E+02  0.7816164E-02  0.1300439E+00
        -11   -1    0    0    0    0  0.00000000000E+00  0.00000000000E+00  0.45593999997E+02  0.45594000000E+02  0.51100000000E-03 0. -1.
         11   -1    0    0    0    0 -0.00000000000E+00 -0.00000000000E+00 -0.45593999997E+02  0.45594000000E+02  0.51100000000E-03 0.  1.
    9900012    2    1    2    0    0  0.26113968778E+02  0.30379777961E+02  0.69492282605E+01  0.50528904489E+02  0.30000135686E+02 0.  0.
        -12    1    1    2    0    0 -0.26113968778E+02 -0.30379777961E+02 -0.69492282605E+01  0.40659095511E+02  0.00000000000E+00 0.  1.
         11    1    3    3    0    0  0.13782193378E+02  0.27015781162E+02 -0.20346943446E+01  0.30396402212E+02  0.51100000000E-03 0. -1.
        -11    1    3    3    0    0  0.20459490532E+01  0.65713345563E+01  0.54962611118E+01  0.88077938128E+01  0.51100000000E-03 0.  1.
        -12    1    3    3    0    0  0.10285826346E+02 -0.32073377567E+01  0.34876614934E+01  0.11324708464E+02  0.00000000000E+00 0.  1.
</event>
<event>
 7    1  0.2835316E-011  0.5052886E+02  0.7816164E-02  0.1300439E+00
        -11   -1    0    0    0    0  0.00000000000E+00  0.00000000000E+00  0.45593999997E+02  0.45594000000E+02  0.51100000000E-03 0. -1.
         11   -1    0    0    0    0 -0.00000000000E+00 -0.00000000000E+00 -0.45593999997E+02  0.45594000000E+02  0.51100000000E-03 0.  1.
    9900012    2    1    2    0    0  0.22813870965E+01 -0.68204371455E+01  0.40018030756E+02  0.50528857417E+02  0.29999992606E+02 0.  0.
        -12    1    1    2    0    0 -0.22813870965E+01  0.68204371455E+01 -0.40018030756E+02  0.40659142583E+02  0.00000000000E+00 0.  1.
         11    1    3    3    0    0  0.22960616231E+01  0.15333569146E+01  0.17773041616E+01  0.32835792588E+01  0.51100000000E-03 0. -1.
        -11    1    3    3    0    0 -0.93641798508E+01  0.38721374699E+01  0.24878616000E+02  0.26863113133E+02  0.51100000000E-03 0.  1.
         12    1    3    3    0    0  0.93495053242E+01 -0.12225931530E+02  0.13362110594E+02  0.20382165025E+02  0.00000000000E+00 0. -1.
</event>
<event>
 7    1  0.2835316E-011  0.5052886E+02  0.7816164E-02  0.1300439E+00
        -11   -1    0    0    0    0  0.00000000000E+00  0.00000000000E+00  0.45593999997E+02  0.45594000000E+02  0.51100000000E-03 0. -1.
         11   -1    0    0    0    0 -0.00000000000E+00 -0.00000000000E+00 -0.45593999997E+02  0.45594000000E+02  0.51100000000E-03 0.  1.
    9900012    2    1    2    0    0 -0.93825909634E+01 -0.24947957208E+02  0.30703939008E+02  0.50528862618E+02  0.30000008414E+02 0.  0.
        -12    1    1    2    0    0  0.93825909634E+01  0.24947957208E+02 -0.30703939008E+02  0.40659137382E+02  0.00000000000E+00 0.  1.
         11    1    3    3    0    0  0.43156388647E+01 -0.54278572754E+01  0.83118496287E+01  0.10824657866E+02  0.51100000000E-03 0. -1.
        -11    1    3    3    0    0 -0.93684132838E+01  0.16486641754E+01  0.14656067090E+01  0.96246176187E+01  0.51100000000E-03 0.  1.
         12    1    3    3    0    0 -0.43298165442E+01 -0.21168764108E+02  0.20926482670E+02  0.30079587133E+02  0.00000000000E+00 0. -1.
</event>
<event>
 7    1  0.2835316E-011  0.5052885E+02  0.7816164E-02  0.1300439E+00
        -11   -1    0    0    0    0  0.00000000000E+00  0.00000000000E+00  0.45593999997E+02  0.45594000000E+02  0.51100000000E-03 0. -1.
         11   -1    0    0    0    0 -0.00000000000E+00 -0.00000000000E+00 -0.45593999997E+02  0.45594000000E+02  0.51100000000E-03 0.  1.
    9900012    2    1    2    0    0  0.28047162406E+02  0.19530645532E+02  0.22024462081E+02  0.50528851412E+02  0.29999974353E+02 0.  0.
        -12    1    1    2    0    0 -0.28047162406E+02 -0.19530645532E+02 -0.22024462081E+02  0.40659148588E+02  0.00000000000E+00 0.  1.
         11    1    3    3    0    0 -0.88678613127E+00 -0.53904549680E+00  0.57848846934E+01  0.58772315649E+01  0.51100000000E-03 0.  1.
        -11    1    3    3    0    0  0.30628088968E+02  0.14691839854E+02  0.18376865153E+02  0.38621744720E+02  0.51100000000E-03 0. -1.
         12    1    3    3    0    0 -0.16941404305E+01  0.53778511754E+01 -0.21372877653E+01  0.60298751276E+01  0.00000000000E+00 0. -1.
</event>
<event>
 7    1  0.2835316E-011  0.5052887E+02  0.7816164E-02  0.1300439E+00
        -11   -1    0    0    0    0  0.00000000000E+00  0.00000000000E+00  0.45593999997E+02  0.45594000000E+02  0.51100000000E-03 0. -1.
         11   -1    0    0    0    0 -0.00000000000E+00 -0.00000000000E+00 -0.45593999997E+02  0.45594000000E+02  0.51100000000E-03 0.  1.
    9900012    2    1    2    0    0 -0.30284847538E+02 -0.25713560700E+02  0.86490306702E+01  0.50528869097E+02  0.30000028107E+02 0.  0.
        -12    1    1    2    0    0  0.30284847538E+02  0.25713560700E+02 -0.86490306702E+01  0.40659130903E+02  0.00000000000E+00 0.  1.
         11    1    3    3    0    0 -0.95289544524E+01 -0.57539108120E+01  0.92339510021E+01  0.14462859813E+02  0.51100000000E-03 0. -1.
        -11    1    3    3    0    0  0.63313841255E+00 -0.97247162650E+01  0.60160178260E+01  0.11452660889E+02  0.51100000000E-03 0.  1.
        -12    1    3    3    0    0 -0.21389031498E+02 -0.10234933623E+02 -0.66009381579E+01  0.24613348396E+02  0.00000000000E+00 0.  1.
</event>
<event>
 7    1  0.2835316E-011  0.5052887E+02  0.7816164E-02  0.1300439E+00
        -11   -1    0    0    0    0  0.00000000000E+00  0.00000000000E+00  0.45593999997E+02  0.45594000000E+02  0.51100000000E-03 0. -1.
         11   -1    0    0    0    0 -0.00000000000E+00 -0.00000000000E+00 -0.45593999997E+02  0.45594000000E+02  0.51100000000E-03 0.  1.
    9900012    2    1    2    0    0  0.31090059100E+02  0.11543248549E+02 -0.23522897572E+02  0.50528867298E+02  0.30000022638E+02 0.  0.
        -12    1    1    2    0    0 -0.31090059100E+02 -0.11543248549E+02  0.23522897572E+02  0.40659132702E+02  0.00000000000E+00 0.  1.
         11    1    3    3    0    0  0.18542393701E+02  0.34636578456E+01  0.27449800973E+01  0.19061799649E+02  0.51100000000E-03 0. -1.
        -11    1    3    3    0    0  0.70907237432E+01  0.33719449551E+01 -0.57832521805E+01  0.97516348386E+01  0.51100000000E-03 0.  1.
        -12    1    3    3    0    0  0.54569416558E+01  0.47076457485E+01 -0.20484625489E+02  0.21715432810E+02  0.00000000000E+00 0.  1.
</event>
<event>
 7    1  0.2835316E-011  0.5052886E+02  0.7816164E-02  0.1300439E+00
        -11   -1    0    0    0    0  0.00000000000E+00  0.00000000000E+00  0.45593999997E+02  0.45594000000E+02  0.51100000000E-03 0.  1.
         11   -1    0    0    0    0 -0.00000000000E+00 -0.00000000000E+00 -0.45593999997E+02  0.45594000000E+02  0.51100000000E-03 0. -1.
    9900012    2    1    2    0    0 -0.57932351674E+01  0.25610483385E+02 -0.31043635769E+02  0.50528858904E+02  0.29999997124E+02 0.  0.
        -12    1    1    2    0    0  0.57932351674E+01 -0.25610483385E+02  0.31043635769E+02  0.40659141096E+02  0.00000000000E+00 0.  1.
         11    1    3    3    0    0 -0.39322229468E+01 -0.20430876411E+01  0.28583183739E+01  0.52731933967E+01  0.51100000000E-03 0.  1.
        -11    1    3    3    0    0  0.20481488878E+01  0.53209938234E+01 -0.18472509509E+01  0.59933484357E+01  0.51100000000E-03 0. -1.
         12    1    3    3    0    0 -0.39091611085E+01  0.22332577203E+02 -0.32054703192E+02  0.39262317071E+02  0.00000000000E+00 0. -1.
</event>
<event>
 7    1  0.2835316E-011  0.5052886E+02  0.7816164E-02  0.1300439E+00
        -11   -1    0    0    0    0  0.00000000000E+00  0.00000000000E+00  0.45593999997E+02  0.45594000000E+02  0.51100000000E-03 0. -1.
         11   -1    0    0    0    0 -0.00000000000E+00 -0.00000000000E+00 -0.45593999997E+02  0.45594000000E+02  0.51100000000E-03 0.  1.
    9900012    2    1    2    0    0  0.17532996971E+02 -0.11099898128E+02  0.34965006613E+02  0.50528863158E+02  0.30000010057E+02 0.  0.
        -12    1    1    2    0    0 -0.17532996971E+02  0.11099898128E+02 -0.34965006613E+02  0.40659136842E+02  0.00000000000E+00 0.  1.
         11    1    3    3    0    0  0.15129111227E+02 -0.72152402695E+01  0.21260046106E+02  0.27072850964E+02  0.51100000000E-03 0. -1.
        -11    1    3    3    0    0 -0.14710477389E+01 -0.63315209581E+01  0.16741071865E+02  0.17958720070E+02  0.51100000000E-03 0.  1.
        -12    1    3    3    0    0  0.38749334828E+01  0.24468630996E+01 -0.30361113575E+01  0.54972921243E+01  0.00000000000E+00 0.  1.
</event>
<event>
 7    1  0.2835316E-011  0.5052885E+02  0.7816164E-02  0.1300439E+00
        -11   -1    0    0    0    0  0.00000000000E+00  0.00000000000E+00  0.45593999997E+02  0.45594000000E+02  0.51100000000E-03 0.  1.
         11   -1    0    0    0    0 -0.00000000000E+00 -0.00000000000E+00 -0.45593999997E+02  0.45594000000E+02  0.51100000000E-03 0. -1.
    9900012    2    1    2    0    0 -0.57530167017E+01  0.39133642233E+02  0.94141951223E+01  0.50528853115E+02  0.29999979529E+02 0.  0.
        -12    1    1    2    0    0  0.57530167017E+01 -0.39133642233E+02 -0.94141951223E+01  0.40659146885E+02  0.00000000000E+00 0.  1.
         11    1    3    3    0    0  0.24215420644E+01  0.85209173135E+01  0.11071201710E+01  0.89272399524E+01  0.51100000000E-03 0. -1.
        -11    1    3    3    0    0 -0.11048218833E+02  0.33189709051E+02  0.30964453512E+01  0.35117059961E+02  0.51100000000E-03 0.  1.
        -12    1    3    3    0    0  0.28736600669E+01 -0.25769841313E+01  0.52106296001E+01  0.64845532015E+01  0.00000000000E+00 0.  1.
</event>
<event>
 7    1  0.2835316E-011  0.5052885E+02  0.7816164E-02  0.1300439E+00
        -11   -1    0    0    0    0  0.00000000000E+00  0.00000000000E+00  0.45593999997E+02  0.45594000000E+02  0.51100000000E-03 0.  1.
         11   -1    0    0    0    0 -0.00000000000E+00 -0.00000000000E+00 -0.45593999997E+02  0.45594000000E+02  0.51100000000E-03 0. -1.
    9900012    2    1    2    0    0  0.10642165473E+02  0.36397415266E+02 -0.14667602162E+02  0.50528854938E+02  0.29999985068E+02 0.  0.
        -12    1    1    2    0    0 -0.10642165473E+02 -0.36397415266E+02  0.14667602162E+02  0.40659145062E+02  0.00000000000E+00 0.  1.
         11    1    3    3    0    0  0.11235731661E+02  0.32306361326E+02 -0.13028995096E+02  0.36601876476E+02  0.51100000000E-03 0. -1.
        -11    1    3    3    0    0  0.89632736344E+00  0.76158917920E+01  0.27110317257E+01  0.81335664877E+01  0.51100000000E-03 0.  1.
         12    1    3    3    0    0 -0.14898935518E+01 -0.35248378518E+01 -0.43496387921E+01  0.57934119739E+01  0.00000000000E+00 0. -1.
</event>
<event>
 7    1  0.2835316E-011  0.5052886E+02  0.7816164E-02  0.1300439E+00
        -11   -1    0    0    0    0  0.00000000000E+00  0.00000000000E+00  0.45593999997E+02  0.45594000000E+02  0.51100000000E-03 0.  1.
         11   -1    0    0    0    0 -0.00000000000E+00 -0.00000000000E+00 -0.45593999997E+02  0.45594000000E+02  0.51100000000E-03 0. -1.
    9900012    2    1    2    0    0 -0.22697980167E+02 -0.33732171642E+02 -0.32842310647E+00  0.50528861187E+02  0.30000004063E+02 0.  0.
        -12    1    1    2    0    0  0.22697980167E+02  0.33732171642E+02  0.32842310647E+00  0.40659138813E+02  0.00000000000E+00 0.  1.
         11    1    3    3    0    0 -0.25452200051E+02 -0.28346316173E+02 -0.26922756556E+01  0.38191314150E+02  0.51100000000E-03 0. -1.
        -11    1    3    3    0    0 -0.32690957371E+01  0.63558715369E+00 -0.46609118273E+00  0.33627666021E+01  0.51100000000E-03 0.  1.
         12    1    3    3    0    0  0.60233156214E+01 -0.60214426219E+01  0.28299437318E+01  0.89747804346E+01  0.00000000000E+00 0. -1.
</event>
<event>
 7    1  0.2835316E-011  0.5052883E+02  0.7816164E-02  0.1300439E+00
        -11   -1    0    0    0    0  0.00000000000E+00  0.00000000000E+00  0.45593999997E+02  0.45594000000E+02  0.51100000000E-03 0.  1.
         11   -1    0    0    0    0 -0.00000000000E+00 -0.00000000000E+00 -0.45593999997E+02  0.45594000000E+02  0.51100000000E-03 0. -1.
    9900012    2    1    2    0    0  0.21584296046E+02  0.17758462795E+02 -0.29528344939E+02  0.50528831397E+02  0.29999913514E+02 0.  0.
        -12    1    1    2    0    0 -0.21584296046E+02 -0.17758462795E+02  0.29528344939E+02  0.40659168603E+02  0.00000000000E+00 0.  1.
         11    1    3    3    0    0  0.16542163961E+02  0.41667628408E+01 -0.79548600610E+01  0.18822457330E+02  0.51100000000E-03 0. -1.
        -11    1    3    3    0    0  0.72864703952E+01  0.14520799632E+02 -0.83594280583E+01  0.18270914332E+02  0.51100000000E-03 0.  1.
        -12    1    3    3    0    0 -0.22443383107E+01 -0.92909967777E+00 -0.13214056820E+02  0.13435459735E+02  0.00000000000E+00 0.  1.
</event>
<event>
 7    1  0.2835316E-011  0.5052887E+02  0.7816164E-02  0.1300439E+00
        -11   -1    0    0    0    0  0.00000000000E+00  0.00000000000E+00  0.45593999997E+02  0.45594000000E+02  0.51100000000E-03 0. -1.
         11   -1    0    0    0    0 -0.00000000000E+00 -0.00000000000E+00 -0.45593999997E+02  0.45594000000E+02  0.51100000000E-03 0.  1.
    9900012    2    1    2    0    0  0.20584178254E+02 -0.10397180937E+02  0.33486644259E+02  0.50528866837E+02  0.30000021238E+02 0.  0.
        -12    1    1    2    0    0 -0.20584178254E+02  0.10397180937E+02 -0.33486644259E+02  0.40659133163E+02  0.00000000000E+00 0.  1.
         11    1    3    3    0    0  0.35612826919E+01 -0.52393677911E+01  0.49799019828E+01  0.80581097834E+01  0.51100000000E-03 0. -1.
        -11    1    3    3    0    0 -0.18315882873E+01  0.69600572204E+00 -0.39911315598E+01  0.44461523824E+01  0.51100000000E-03 0.  1.
        -12    1    3    3    0    0  0.18854483849E+02 -0.58538188683E+01  0.32497873836E+02  0.38024604671E+02  0.00000000000E+00 0.  1.
</event>
<event>
 7    1  0.2835316E-011  0.5052886E+02  0.7816164E-02  0.1300439E+00
        -11   -1    0    0    0    0  0.00000000000E+00  0.00000000000E+00  0.45593999997E+02  0.45594000000E+02  0.51100000000E-03 0. -1.
         11   -1    0    0    0    0 -0.00000000000E+00 -0.00000000000E+00 -0.45593999997E+02  0.45594000000E+02  0.51100000000E-03 0.  1.
    9900012    2    1    2    0    0 -0.90741358433E+01  0.26932118088E+02  0.29077260381E+02  0.50528855920E+02  0.29999988055E+02 0.  0.
        -12    1    1    2    0    0  0.90741358433E+01 -0.26932118088E+02 -0.29077260381E+02  0.40659144080E+02  0.00000000000E+00 0.  1.
         11    1    3    3    0    0  0.33705352036E+01  0.14142553537E+01  0.14975907998E+02  0.15415526147E+02  0.51100000000E-03 0. -1.
        -11    1    3    3    0    0  0.20562818045E+01 -0.50503834078E+00  0.21423159696E+01  0.30121216044E+01  0.51100000000E-03 0.  1.
        -12    1    3    3    0    0 -0.14500952851E+02  0.26022901075E+02  0.11959036414E+02  0.32101208169E+02  0.00000000000E+00 0.  1.
</event>
<event>
 7    1  0.2835316E-011  0.5052887E+02  0.7816164E-02  0.1300439E+00
        -11   -1    0    0    0    0  0.00000000000E+00  0.00000000000E+00  0.45593999997E+02  0.45594000000E+02  0.51100000000E-03 0. -1.
         11   -1    0    0    0    0 -0.00000000000E+00 -0.00000000000E+00 -0.45593999997E+02  0.45594000000E+02  0.51100000000E-03 0.  1.
    9900012    2    1    2    0    0 -0.36796147882E+02 -0.61373279775E+01  0.16172257305E+02  0.50528865725E+02  0.30000017857E+02 0.  0.
        -12    1    1    2    0    0  0.36796147882E+02  0.61373279775E+01 -0.16172257305E+02  0.40659134275E+02  0.00000000000E+00 0.  1.
         11    1    3    3    0    0  0.53220216349E+00  0.29476906800E+01  0.32464956854E+01  0.44172224287E+01  0.51100000000E-03 0. -1.
        -11    1    3    3    0    0 -0.27157592759E+02 -0.55795868211E+01 -0.19047248051E+01  0.27790189103E+02  0.51100000000E-03 0.  1.
         12    1    3    3    0    0 -0.10170757287E+02 -0.35054318365E+01  0.14830486424E+02  0.18321454193E+02  0.00000000000E+00 0. -1.
</event>
<event>
 7    1  0.2835316E-011  0.5052886E+02  0.7816164E-02  0.1300439E+00
        -11   -1    0    0    0    0  0.00000000000E+00  0.00000000000E+00  0.45593999997E+02  0.45594000000E+02  0.51100000000E-03 0.  1.
         11   -1    0    0    0    0 -0.00000000000E+00 -0.00000000000E+00 -0.45593999997E+02  0.45594000000E+02  0.51100000000E-03 0. -1.
    9900012    2    1    2    0    0 -0.27787779628E+02 -0.27332397859E+02  0.11573473940E+02  0.50528856275E+02  0.29999989134E+02 0.  0.
        -12    1    1    2    0    0  0.27787779628E+02  0.27332397859E+02 -0.11573473940E+02  0.40659143725E+02  0.00000000000E+00 0.  1.
         11    1    3    3    0    0 -0.51030475411E+01 -0.19993708851E+02  0.71700082968E+01  0.21844873702E+02  0.51100000000E-03 0. -1.
        -11    1    3    3    0    0 -0.10561397196E+02 -0.91731037095E+01 -0.30737603447E+01  0.14322602603E+02  0.51100000000E-03 0.  1.
        -12    1    3    3    0    0 -0.12123334891E+02  0.18344147014E+01  0.74772259881E+01  0.14361379970E+02  0.00000000000E+00 0.  1.
</event>
<event>
 7    1  0.2835316E-011  0.5052888E+02  0.7816164E-02  0.1300439E+00
        -11   -1    0    0    0    0  0.00000000000E+00  0.00000000000E+00  0.45593999997E+02  0.45594000000E+02  0.51100000000E-03 0.  1.
         11   -1    0    0    0    0 -0.00000000000E+00 -0.00000000000E+00 -0.45593999997E+02  0.45594000000E+02  0.51100000000E-03 0. -1.
    9900012    2    1    2    0    0  0.40014676887E+02  0.63712306796E+01 -0.33759633650E+01  0.50528879555E+02  0.30000059895E+02 0.  0.
        -12    1    1    2    0    0 -0.40014676887E+02 -0.63712306796E+01  0.33759633650E+01  0.40659120445E+02  0.00000000000E+00 0.  1.
         11    1    3    3    0    0  0.21101050830E+02  0.73533692076E+01  0.10277673865E+02  0.24595872929E+02  0.51100000000E-03 0. -1.
        -11    1    3    3    0    0  0.96946613073E+01  0.49515826553E+01 -0.50684533459E+01  0.12008074293E+02  0.51100000000E-03 0.  1.
        -12    1    3    3    0    0  0.92189647497E+01 -0.59337211834E+01 -0.85851838838E+01  0.13924932332E+02  0.00000000000E+00 0.  1.
</event>
<event>
 7    1  0.2835316E-011  0.5052885E+02  0.7816164E-02  0.1300439E+00
        -11   -1    0    0    0    0  0.00000000000E+00  0.00000000000E+00  0.45593999997E+02  0.45594000000E+02  0.51100000000E-03 0. -1.
         11   -1    0    0    0    0 -0.00000000000E+00 -0.00000000000E+00 -0.45593999997E+02  0.45594000000E+02  0.51100000000E-03 0.  1.
    9900012    2    1    2    0    0 -0.34922986521E+02 -0.61447851596E+01  0.19894539798E+02  0.50528854830E+02  0.29999984740E+02 0.  0.
        -12    1    1    2    0    0  0.34922986521E+02  0.61447851596E+01 -0.19894539798E+02  0.40659145170E+02  0.00000000000E+00 0.  1.
         11    1    3    3    0    0 -0.10910777389E+02  0.44065451735E+01  0.13549928072E+02  0.17946120880E+02  0.51100000000E-03 0. -1.
        -11    1    3    3    0    0 -0.18572306487E+02  0.52609601654E+00 -0.26805194329E+00  0.18581689842E+02  0.51100000000E-03 0.  1.
        -12    1    3    3    0    0 -0.54399026448E+01 -0.11077426350E+02  0.66126636686E+01  0.14001044108E+02  0.00000000000E+00 0.  1.
</event>
<event>
 7    1  0.2835316E-011  0.5052886E+02  0.7816164E-02  0.1300439E+00
        -11   -1    0    0    0    0  0.00000000000E+00  0.00000000000E+00  0.45593999997E+02  0.45594000000E+02  0.51100000000E-03 0.  1.
         11   -1    0    0    0    0 -0.00000000000E+00 -0.00000000000E+00 -0.45593999997E+02  0.45594000000E+02  0.51100000000E-03 0. -1.
    9900012    2    1    2    0    0  0.18085904193E+02  0.44547694614E+01 -0.36141679405E+02  0.50528857219E+02  0.29999992004E+02 0.  0.
        -12    1    1    2    0    0 -0.18085904193E+02 -0.44547694614E+01  0.36141679405E+02  0.40659142781E+02  0.00000000000E+00 0.  1.
         11    1    3    3    0    0  0.11653074998E+02  0.74308806882E+01 -0.11334837788E+02  0.17874302578E+02  0.51100000000E-03 0. -1.
        -11    1    3    3    0    0  0.12535188061E+02 -0.19131631350E+01 -0.22895011584E+02  0.26171982894E+02  0.51100000000E-03 0.  1.
        -12    1    3    3    0    0 -0.61023588664E+01 -0.10629480918E+01 -0.19118300331E+01  0.64825717471E+01  0.00000000000E+00 0.  1.
</event>
<event>
 7    1  0.2835316E-011  0.5052885E+02  0.7816164E-02  0.1300439E+00
        -11   -1    0    0    0    0  0.00000000000E+00  0.00000000000E+00  0.45593999997E+02  0.45594000000E+02  0.51100000000E-03 0.  1.
         11   -1    0    0    0    0 -0.00000000000E+00 -0.00000000000E+00 -0.45593999997E+02  0.45594000000E+02  0.51100000000E-03 0. -1.
    9900012    2    1    2    0    0 -0.32190053454E+02  0.19749510941E+02 -0.15063979793E+02  0.50528853292E+02  0.29999980067E+02 0.  0.
        -12    1    1    2    0    0  0.32190053454E+02 -0.19749510941E+02  0.15063979793E+02  0.40659146708E+02  0.00000000000E+00 0.  1.
         11    1    3    3    0    0 -0.86961612038E+01  0.14989957992E+02 -0.20416732945E+01  0.17449655881E+02  0.51100000000E-03 0. -1.
        -11    1    3    3    0    0 -0.24107508613E+02  0.92446113373E+01 -0.11814727137E+02  0.28394059024E+02  0.51100000000E-03 0.  1.
        -12    1    3    3    0    0  0.61361636251E+00 -0.44850583880E+01 -0.12075793619E+01  0.46851383864E+01  0.00000000000E+00 0.  1.
</event>
<event>
 7    1  0.2835316E-011  0.5052886E+02  0.7816164E-02  0.1300439E+00
        -11   -1    0    0    0    0  0.00000000000E+00  0.00000000000E+00  0.45593999997E+02  0.45594000000E+02  0.51100000000E-03 0. -1.
         11   -1    0    0    0    0 -0.00000000000E+00 -0.00000000000E+00 -0.45593999997E+02  0.45594000000E+02  0.51100000000E-03 0.  1.
    9900012    2    1    2    0    0  0.63662807043E+00  0.80974774746E+01  0.39839569266E+02  0.50528859379E+02  0.29999998569E+02 0.  0.
        -12    1    1    2    0    0 -0.63662807043E+00 -0.80974774746E+01 -0.39839569266E+02  0.40659140621E+02  0.00000000000E+00 0.  1.
         11    1    3    3    0    0 -0.59864619776E+01  0.63478793542E+01  0.10444256320E+02  0.13609400782E+02  0.51100000000E-03 0. -1.
        -11    1    3    3    0    0 -0.47972646371E+01  0.64964029018E+01  0.19413766592E+02  0.21026443641E+02  0.51100000000E-03 0.  1.
        -12    1    3    3    0    0  0.11420354685E+02 -0.47468047814E+01  0.99815463538E+01  0.15893014956E+02  0.00000000000E+00 0.  1.
</event>
<event>
 7    1  0.2835316E-011  0.5052886E+02  0.7816164E-02  0.1300439E+00
        -11   -1    0    0    0    0  0.00000000000E+00  0.00000000000E+00  0.45593999997E+02  0.45594000000E+02  0.51100000000E-03 0. -1.
         11   -1    0    0    0    0 -0.00000000000E+00 -0.00000000000E+00 -0.45593999997E+02  0.45594000000E+02  0.51100000000E-03 0.  1.
    9900012    2    1    2    0    0 -0.30542877226E+02 -0.26836690508E+02 -0.30068544938E+00  0.50528859350E+02  0.29999998480E+02 0.  0.
        -12    1    1    2    0    0  0.30542877226E+02  0.26836690508E+02  0.30068544938E+00  0.40659140650E+02  0.00000000000E+00 0.  1.
         11    1    3    3    0    0 -0.11815769524E+01 -0.39683660373E+01  0.42749107704E+01  0.59513792903E+01  0.51100000000E-03 0. -1.
        -11    1    3    3    0    0 -0.24447053544E+02 -0.21807149556E+02  0.55930263100E+01  0.33233900498E+02  0.51100000000E-03 0.  1.
        -12    1    3    3    0    0 -0.49142467300E+01 -0.10611749148E+01 -0.10168622530E+02  0.11343579562E+02  0.00000000000E+00 0.  1.
</event>
<event>
 7    1  0.2835316E-011  0.5052884E+02  0.7816164E-02  0.1300439E+00
        -11   -1    0    0    0    0  0.00000000000E+00  0.00000000000E+00  0.45593999997E+02  0.45594000000E+02  0.51100000000E-03 0.  1.
         11   -1    0    0    0    0 -0.00000000000E+00 -0.00000000000E+00 -0.45593999997E+02  0.45594000000E+02  0.51100000000E-03 0. -1.
    9900012    2    1    2    0    0 -0.60103412828E+01  0.36682902377E+02 -0.16474452780E+02  0.50528842071E+02  0.29999945958E+02 0.  0.
        -12    1    1    2    0    0  0.60103412828E+01 -0.36682902377E+02  0.16474452780E+02  0.40659157929E+02  0.00000000000E+00 0.  1.
         11    1    3    3    0    0 -0.94934100991E+01  0.16535496588E+02  0.25188621520E+01  0.19232580417E+02  0.51100000000E-03 0. -1.
        -11    1    3    3    0    0  0.13181561554E+01 -0.94543247861E+00  0.11982137225E+01  0.20167038969E+01  0.51100000000E-03 0.  1.
        -12    1    3    3    0    0  0.21649126609E+01  0.21092838268E+02 -0.20191528654E+02  0.29279557757E+02  0.00000000000E+00 0.  1.
</event>
<event>
 7    1  0.2835316E-011  0.5052886E+02  0.7816164E-02  0.1300439E+00
        -11   -1    0    0    0    0  0.00000000000E+00  0.00000000000E+00  0.45593999997E+02  0.45594000000E+02  0.51100000000E-03 0. -1.
         11   -1    0    0    0    0 -0.00000000000E+00 -0.00000000000E+00 -0.45593999997E+02  0.45594000000E+02  0.51100000000E-03 0.  1.
    9900012    2    1    2    0    0 -0.22625809683E+02 -0.20715628955E+02  0.26685218939E+02  0.50528862569E+02  0.30000008265E+02 0.  0.
        -12    1    1    2    0    0  0.22625809683E+02  0.20715628955E+02 -0.26685218939E+02  0.40659137431E+02  0.00000000000E+00 0.  1.
         11    1    3    3    0    0  0.43390939198E+01 -0.54114127892E+00  0.11702574134E+01  0.45265961388E+01  0.51100000000E-03 0. -1.
        -11    1    3    3    0    0 -0.61531310994E+01 -0.48430650607E+00  0.13672367979E+02  0.15000974019E+02  0.51100000000E-03 0.  1.
         12    1    3    3    0    0 -0.20811772504E+02 -0.19690181170E+02  0.11842593547E+02  0.31001292411E+02  0.00000000000E+00 0. -1.
</event>
<event>
 7    1  0.3086938E-011  0.5052886E+02  0.7816164E-02  0.1300439E+00
        -11   -1    0    0    0    0  0.00000000000E+00  0.00000000000E+00  0.45593999997E+02  0.45594000000E+02  0.51100000000E-03 0. -1.
         11   -1    0    0    0    0 -0.00000000000E+00 -0.00000000000E+00 -0.45593999997E+02  0.45594000000E+02  0.51100000000E-03 0.  1.
    9900012    2    1    2    0    0 -0.32508522670E+02  0.20629755698E+01  0.24333219785E+02  0.50528862042E+02  0.30000006663E+02 0.  0.
        -12    1    1    2    0    0  0.32508522670E+02 -0.20629755698E+01 -0.24333219785E+02  0.40659137958E+02  0.00000000000E+00 0.  1.
         11    1    3    3    0    0 -0.11151809603E+01 -0.50448433805E+01  0.90051689620E+01  0.10382058640E+02  0.51100000000E-03 0. -1.
        -11    1    3    3    0    0 -0.36779893612E+01  0.29861786224E+00 -0.41809524132E+01  0.55764811227E+01  0.51100000000E-03 0.  1.
         12    1    3    3    0    0 -0.27715352348E+02  0.68092010880E+01  0.19509003236E+02  0.34570322280E+02  0.00000000000E+00 0. -1.
</event>
<event>
 7    1  0.2835316E-011  0.5052887E+02  0.7816164E-02  0.1300439E+00
        -11   -1    0    0    0    0  0.00000000000E+00  0.00000000000E+00  0.45593999997E+02  0.45594000000E+02  0.51100000000E-03 0.  1.
         11   -1    0    0    0    0 -0.00000000000E+00 -0.00000000000E+00 -0.45593999997E+02  0.45594000000E+02  0.51100000000E-03 0. -1.
    9900012    2    1    2    0    0 -0.90315477758E+01 -0.20082385614E+01 -0.39592465903E+02  0.50528865311E+02  0.30000016600E+02 0.  0.
        -12    1    1    2    0    0  0.90315477758E+01  0.20082385614E+01  0.39592465903E+02  0.40659134689E+02  0.00000000000E+00 0.  1.
         11    1    3    3    0    0  0.82727904799E+01 -0.54457111919E+01 -0.23318427508E+02  0.25334638234E+02  0.51100000000E-03 0. -1.
        -11    1    3    3    0    0 -0.38652590282E+01 -0.10468593715E+01 -0.75773460826E+01  0.85704326504E+01  0.51100000000E-03 0.  1.
         12    1    3    3    0    0 -0.13439079227E+02  0.44843320020E+01 -0.86966923123E+01  0.16623794427E+02  0.00000000000E+00 0. -1.
</event>
<event>
 7    1  0.2835316E-011  0.5052887E+02  0.7816164E-02  0.1300439E+00
        -11   -1    0    0    0    0  0.00000000000E+00  0.00000000000E+00  0.45593999997E+02  0.45594000000E+02  0.51100000000E-03 0.  1.
         11   -1    0    0    0    0 -0.00000000000E+00 -0.00000000000E+00 -0.45593999997E+02  0.45594000000E+02  0.51100000000E-03 0. -1.
    9900012    2    1    2    0    0 -0.26509879250E+02  0.45517658694E+01 -0.30490537560E+02  0.50528866327E+02  0.30000019687E+02 0.  0.
        -12    1    1    2    0    0  0.26509879250E+02 -0.45517658694E+01  0.30490537560E+02  0.40659133673E+02  0.00000000000E+00 0.  1.
         11    1    3    3    0    0 -0.17778608431E+01  0.95364882778E+01 -0.34939935223E+01  0.10310838416E+02  0.51100000000E-03 0. -1.
        -11    1    3    3    0    0 -0.17909201009E+01  0.54161557347E+00  0.20624147881E+01  0.27846538845E+01  0.51100000000E-03 0.  1.
         12    1    3    3    0    0 -0.22941098306E+02 -0.55263379819E+01 -0.29058958826E+02  0.37433374026E+02  0.00000000000E+00 0. -1.
</event>
<event>
 7    1  0.2835316E-011  0.5052885E+02  0.7816164E-02  0.1300439E+00
        -11   -1    0    0    0    0  0.00000000000E+00  0.00000000000E+00  0.45593999997E+02  0.45594000000E+02  0.51100000000E-03 0.  1.
         11   -1    0    0    0    0 -0.00000000000E+00 -0.00000000000E+00 -0.45593999997E+02  0.45594000000E+02  0.51100000000E-03 0. -1.
    9900012    2    1    2    0    0 -0.18854684255E+02  0.15821581232E+02 -0.32362707572E+02  0.50528851061E+02  0.29999973286E+02 0.  0.
        -12    1    1    2    0    0  0.18854684255E+02 -0.15821581232E+02  0.32362707572E+02  0.40659148939E+02  0.00000000000E+00 0.  1.
         11    1    3    3    0    0 -0.52297433272E+00  0.34890128633E+01 -0.62954848909E+01  0.72166365563E+01  0.51100000000E-03 0.  1.
        -11    1    3    3    0    0 -0.24702328858E+02  0.12290738374E+02 -0.17640681613E+02  0.32748449564E+02  0.51100000000E-03 0. -1.
         12    1    3    3    0    0  0.63706189360E+01  0.41829995081E-01 -0.84265410673E+01  0.10563764941E+02  0.00000000000E+00 0. -1.
</event>
<event>
 7    1  0.2835316E-011  0.5052886E+02  0.7816164E-02  0.1300439E+00
        -11   -1    0    0    0    0  0.00000000000E+00  0.00000000000E+00  0.45593999997E+02  0.45594000000E+02  0.51100000000E-03 0. -1.
         11   -1    0    0    0    0 -0.00000000000E+00 -0.00000000000E+00 -0.45593999997E+02  0.45594000000E+02  0.51100000000E-03 0.  1.
    9900012    2    1    2    0    0  0.74927001930E+01 -0.23865478782E+02  0.32054085969E+02  0.50528855138E+02  0.29999985677E+02 0.  0.
        -12    1    1    2    0    0 -0.74927001930E+01  0.23865478782E+02 -0.32054085969E+02  0.40659144862E+02  0.00000000000E+00 0.  1.
         11    1    3    3    0    0 -0.64477835352E+01 -0.10633209854E+02  0.19732647340E+02  0.23324159912E+02  0.51100000000E-03 0. -1.
        -11    1    3    3    0    0 -0.69873387127E+00 -0.86380357310E+01  0.26279501105E+01  0.90559379612E+01  0.51100000000E-03 0.  1.
        -12    1    3    3    0    0  0.14639217599E+02 -0.45942331971E+01  0.96934885185E+01  0.18148757265E+02  0.00000000000E+00 0.  1.
</event>
<event>
 7    1  0.2835316E-011  0.5052886E+02  0.7816164E-02  0.1300439E+00
        -11   -1    0    0    0    0  0.00000000000E+00  0.00000000000E+00  0.45593999997E+02  0.45594000000E+02  0.51100000000E-03 0. -1.
         11   -1    0    0    0    0 -0.00000000000E+00 -0.00000000000E+00 -0.45593999997E+02  0.45594000000E+02  0.51100000000E-03 0.  1.
    9900012    2    1    2    0    0  0.33944169892E+02 -0.70579403556E+01  0.21240160960E+02  0.50528860445E+02  0.30000001810E+02 0.  0.
        -12    1    1    2    0    0 -0.33944169892E+02  0.70579403556E+01 -0.21240160960E+02  0.40659139555E+02  0.00000000000E+00 0.  1.
         11    1    3    3    0    0  0.11576367176E+02 -0.72258744985E+01  0.12622897203E+02  0.18589326866E+02  0.51100000000E-03 0. -1.
        -11    1    3    3    0    0 -0.21322592044E+01  0.52423273207E+00  0.70531223597E+01  0.73870078214E+01  0.51100000000E-03 0.  1.
        -12    1    3    3    0    0  0.24500061921E+02 -0.35629858910E+00  0.15641413970E+01  0.24552525758E+02  0.00000000000E+00 0.  1.
</event>
<event>
 7    1  0.2835316E-011  0.5052885E+02  0.7816164E-02  0.1300439E+00
        -11   -1    0    0    0    0  0.00000000000E+00  0.00000000000E+00  0.45593999997E+02  0.45594000000E+02  0.51100000000E-03 0. -1.
         11   -1    0    0    0    0 -0.00000000000E+00 -0.00000000000E+00 -0.45593999997E+02  0.45594000000E+02  0.51100000000E-03 0.  1.
    9900012    2    1    2    0    0  0.26497149232E+01  0.33384413765E+02 -0.23057018761E+02  0.50528853603E+02  0.29999981010E+02 0.  0.
        -12    1    1    2    0    0 -0.26497149232E+01 -0.33384413765E+02  0.23057018761E+02  0.40659146397E+02  0.00000000000E+00 0.  1.
         11    1    3    3    0    0  0.29947138845E+01  0.31371894251E+01 -0.47650601623E+01  0.64432963110E+01  0.51100000000E-03 0. -1.
        -11    1    3    3    0    0 -0.54699859668E+01  0.31058260249E+02 -0.79622704868E+01  0.32525897801E+02  0.51100000000E-03 0.  1.
        -12    1    3    3    0    0  0.51249870055E+01 -0.81103590915E+00 -0.10329688112E+02  0.11559659491E+02  0.00000000000E+00 0.  1.
</event>
<event>
 7    1  0.2835316E-011  0.5052886E+02  0.7816164E-02  0.1300439E+00
        -11   -1    0    0    0    0  0.00000000000E+00  0.00000000000E+00  0.45593999997E+02  0.45594000000E+02  0.51100000000E-03 0.  1.
         11   -1    0    0    0    0 -0.00000000000E+00 -0.00000000000E+00 -0.45593999997E+02  0.45594000000E+02  0.51100000000E-03 0. -1.
    9900012    2    1    2    0    0 -0.29206487515E+02  0.24299568710E+02  0.14480255529E+02  0.50528858929E+02  0.29999997201E+02 0.  0.
        -12    1    1    2    0    0  0.29206487515E+02 -0.24299568710E+02 -0.14480255529E+02  0.40659141071E+02  0.00000000000E+00 0.  1.
         11    1    3    3    0    0 -0.16901935222E+02  0.13356521813E+02  0.15374702688E+02  0.26466083431E+02  0.51100000000E-03 0. -1.
        -11    1    3    3    0    0  0.27081436200E+01  0.69227758258E+01  0.30393668199E+01  0.80309786407E+01  0.51100000000E-03 0.  1.
         12    1    3    3    0    0 -0.15012695913E+02  0.40202710711E+01 -0.39338139784E+01  0.16031796857E+02  0.00000000000E+00 0. -1.
</event>
<event>
 7    1  0.2835316E-011  0.5052886E+02  0.7816164E-02  0.1300439E+00
        -11   -1    0    0    0    0  0.00000000000E+00  0.00000000000E+00  0.45593999997E+02  0.45594000000E+02  0.51100000000E-03 0. -1.
         11   -1    0    0    0    0 -0.00000000000E+00 -0.00000000000E+00 -0.45593999997E+02  0.45594000000E+02  0.51100000000E-03 0.  1.
    9900012    2    1    2    0    0  0.23721593842E+02 -0.20402992097E+02  0.25964779735E+02  0.50528857270E+02  0.29999992157E+02 0.  0.
        -12    1    1    2    0    0 -0.23721593842E+02  0.20402992097E+02 -0.25964779735E+02  0.40659142730E+02  0.00000000000E+00 0.  1.
         11    1    3    3    0    0  0.15935056140E+02 -0.18210220235E+02  0.59593255798E+01  0.24920908828E+02  0.51100000000E-03 0. -1.
        -11    1    3    3    0    0 -0.11941039044E+01  0.68016784283E+00 -0.15553880903E+01  0.20755107327E+01  0.51100000000E-03 0.  1.
         12    1    3    3    0    0  0.89806416064E+01 -0.28729397050E+01  0.21560842245E+02  0.23532437709E+02  0.00000000000E+00 0. -1.
</event>
<event>
 7    1  0.2835316E-011  0.5052886E+02  0.7816164E-02  0.1300439E+00
        -11   -1    0    0    0    0  0.00000000000E+00  0.00000000000E+00  0.45593999997E+02  0.45594000000E+02  0.51100000000E-03 0. -1.
         11   -1    0    0    0    0 -0.00000000000E+00 -0.00000000000E+00 -0.45593999997E+02  0.45594000000E+02  0.51100000000E-03 0.  1.
    9900012    2    1    2    0    0 -0.31743888997E+02 -0.23130872123E+02  0.10509712334E+02  0.50528858504E+02  0.29999995909E+02 0.  0.
        -12    1    1    2    0    0  0.31743888997E+02  0.23130872123E+02 -0.10509712334E+02  0.40659141496E+02  0.00000000000E+00 0.  1.
         11    1    3    3    0    0 -0.15791096016E+00  0.32338086844E+00  0.36209342935E+01  0.36387740348E+01  0.51100000000E-03 0. -1.
        -11    1    3    3    0    0 -0.29978603874E+02 -0.14157228274E+02  0.13041562855E+02  0.35626200535E+02  0.51100000000E-03 0.  1.
         12    1    3    3    0    0 -0.16073741631E+01 -0.92970247177E+01 -0.61527848144E+01  0.11263883934E+02  0.00000000000E+00 0. -1.
</event>
<event>
 7    1  0.2835316E-011  0.5052885E+02  0.7816164E-02  0.1300439E+00
        -11   -1    0    0    0    0  0.00000000000E+00  0.00000000000E+00  0.45593999997E+02  0.45594000000E+02  0.51100000000E-03 0. -1.
         11   -1    0    0    0    0 -0.00000000000E+00 -0.00000000000E+00 -0.45593999997E+02  0.45594000000E+02  0.51100000000E-03 0.  1.
    9900012    2    1    2    0    0  0.14830187178E+02  0.33321621047E+02  0.17969471652E+02  0.50528846143E+02  0.29999958335E+02 0.  0.
        -12    1    1    2    0    0 -0.14830187178E+02 -0.33321621047E+02 -0.17969471652E+02  0.40659153857E+02  0.00000000000E+00 0.  1.
         11    1    3    3    0    0  0.10094946341E+02  0.41312994216E+01  0.93043160715E+01  0.14336871150E+02  0.51100000000E-03 0. -1.
        -11    1    3    3    0    0  0.47490976705E+01  0.22994366401E+02  0.14569987199E+02  0.27632939440E+02  0.51100000000E-03 0.  1.
        -12    1    3    3    0    0 -0.13856833319E-01  0.61959552244E+01 -0.59048316184E+01  0.85590355529E+01  0.00000000000E+00 0.  1.
</event>
<event>
 7    1  0.2835316E-011  0.5052886E+02  0.7816164E-02  0.1300439E+00
        -11   -1    0    0    0    0  0.00000000000E+00  0.00000000000E+00  0.45593999997E+02  0.45594000000E+02  0.51100000000E-03 0. -1.
         11   -1    0    0    0    0 -0.00000000000E+00 -0.00000000000E+00 -0.45593999997E+02  0.45594000000E+02  0.51100000000E-03 0.  1.
    9900012    2    1    2    0    0  0.39613820435E+02 -0.91341998410E+01  0.69107336313E+00  0.50528856396E+02  0.29999989502E+02 0.  0.
        -12    1    1    2    0    0 -0.39613820435E+02  0.91341998410E+01 -0.69107336313E+00  0.40659143604E+02  0.00000000000E+00 0.  1.
         11    1    3    3    0    0  0.35062405358E+01  0.66561199430E+01 -0.87610531144E+00  0.75739828472E+01  0.51100000000E-03 0. -1.
        -11    1    3    3    0    0  0.32057702041E+01  0.24242911599E+01  0.34553054361E+01  0.53003100048E+01  0.51100000000E-03 0.  1.
        -12    1    3    3    0    0  0.32901809695E+02 -0.18214610944E+02 -0.18881267615E+01  0.37654563544E+02  0.00000000000E+00 0.  1.
</event>
<event>
 7    1  0.2835316E-011  0.5052886E+02  0.7816164E-02  0.1300439E+00
        -11   -1    0    0    0    0  0.00000000000E+00  0.00000000000E+00  0.45593999997E+02  0.45594000000E+02  0.51100000000E-03 0.  1.
         11   -1    0    0    0    0 -0.00000000000E+00 -0.00000000000E+00 -0.45593999997E+02  0.45594000000E+02  0.51100000000E-03 0. -1.
    9900012    2    1    2    0    0 -0.36680650070E+02 -0.67524649367E+01 -0.16189492803E+02  0.50528861427E+02  0.30000004792E+02 0.  0.
        -12    1    1    2    0    0  0.36680650070E+02  0.67524649367E+01  0.16189492803E+02  0.40659138573E+02  0.00000000000E+00 0.  1.
         11    1    3    3    0    0 -0.33673533057E+02  0.38570365909E+01 -0.76058275292E+01  0.34736611413E+02  0.51100000000E-03 0. -1.
        -11    1    3    3    0    0 -0.23128556089E+01 -0.63150973509E+00 -0.42753543670E+01  0.49017099912E+01  0.51100000000E-03 0.  1.
         12    1    3    3    0    0 -0.69426140461E+00 -0.99779917926E+01 -0.43083109071E+01  0.10890540023E+02  0.00000000000E+00 0. -1.
</event>
<event>
 7    1  0.2835316E-011  0.5052886E+02  0.7816164E-02  0.1300439E+00
        -11   -1    0    0    0    0  0.00000000000E+00  0.00000000000E+00  0.45593999997E+02  0.45594000000E+02  0.51100000000E-03 0. -1.
         11   -1    0    0    0    0 -0.00000000000E+00 -0.00000000000E+00 -0.45593999997E+02  0.45594000000E+02  0.51100000000E-03 0.  1.
    9900012    2    1    2    0    0 -0.33893072846E+02  0.17397589590E+02  0.14203835456E+02  0.50528862624E+02  0.30000008431E+02 0.  0.
        -12    1    1    2    0    0  0.33893072846E+02 -0.17397589590E+02 -0.14203835456E+02  0.40659137376E+02  0.00000000000E+00 0.  1.
         11    1    3    3    0    0 -0.28170778036E+02  0.16207594388E+02  0.10440742269E+02  0.34136314247E+02  0.51100000000E-03 0. -1.
        -11    1    3    3    0    0 -0.89639856887E+01 -0.39424448289E+01  0.31711061716E+01  0.10293290303E+02  0.51100000000E-03 0.  1.
        -12    1    3    3    0    0  0.32416908779E+01  0.51324400314E+01  0.59198701527E+00  0.60992580738E+01  0.00000000000E+00 0.  1.
</event>
<event>
 7    1  0.2835316E-011  0.5052885E+02  0.7816164E-02  0.1300439E+00
        -11   -1    0    0    0    0  0.00000000000E+00  0.00000000000E+00  0.45593999997E+02  0.45594000000E+02  0.51100000000E-03 0.  1.
         11   -1    0    0    0    0 -0.00000000000E+00 -0.00000000000E+00 -0.45593999997E+02  0.45594000000E+02  0.51100000000E-03 0. -1.
    9900012    2    1    2    0    0 -0.33021041984E+02 -0.23593071438E+02  0.24786778470E+01  0.50528854934E+02  0.29999985059E+02 0.  0.
        -12    1    1    2    0    0  0.33021041984E+02  0.23593071438E+02 -0.24786778470E+01  0.40659145066E+02  0.00000000000E+00 0.  1.
         11    1    3    3    0    0 -0.17146565770E+02 -0.67831487971E+01  0.30340672088E+01  0.18687466104E+02  0.51100000000E-03 0. -1.
        -11    1    3    3    0    0 -0.59120070856E+01 -0.22183322111E+01  0.95789910394E+01  0.11473007242E+02  0.51100000000E-03 0.  1.
         12    1    3    3    0    0 -0.99624691285E+01 -0.14591590430E+02 -0.10134380401E+02  0.20368381588E+02  0.00000000000E+00 0. -1.
</event>
<event>
 7    1  0.2835316E-011  0.5052886E+02  0.7816164E-02  0.1300439E+00
        -11   -1    0    0    0    0  0.00000000000E+00  0.00000000000E+00  0.45593999997E+02  0.45594000000E+02  0.51100000000E-03 0.  1.
         11   -1    0    0    0    0 -0.00000000000E+00 -0.00000000000E+00 -0.45593999997E+02  0.45594000000E+02  0.51100000000E-03 0. -1.
    9900012    2    1    2    0    0 -0.80189828105E+01 -0.36384553330E+02  0.16279610250E+02  0.50528861837E+02  0.30000006039E+02 0.  0.
        -12    1    1    2    0    0  0.80189828105E+01  0.36384553330E+02 -0.16279610250E+02  0.40659138163E+02  0.00000000000E+00 0.  1.
         11    1    3    3    0    0 -0.14711768543E+02 -0.25852024731E+02  0.13449571454E+02  0.32644360752E+02  0.51100000000E-03 0. -1.
        -11    1    3    3    0    0  0.59796610070E+00 -0.43958333710E+01  0.69963346645E+01  0.82842992149E+01  0.51100000000E-03 0.  1.
        -12    1    3    3    0    0  0.60948196320E+01 -0.61366952275E+01 -0.41662958693E+01  0.96002018694E+01  0.00000000000E+00 0.  1.
</event>
<event>
 7    1  0.2835316E-011  0.5052886E+02  0.7816164E-02  0.1300439E+00
        -11   -1    0    0    0    0  0.00000000000E+00  0.00000000000E+00  0.45593999997E+02  0.45594000000E+02  0.51100000000E-03 0.  1.
         11   -1    0    0    0    0 -0.00000000000E+00 -0.00000000000E+00 -0.45593999997E+02  0.45594000000E+02  0.51100000000E-03 0. -1.
    9900012    2    1    2    0    0  0.96728300514E+01 -0.21292457875E+02 -0.33260086784E+02  0.50528858636E+02  0.29999996311E+02 0.  0.
        -12    1    1    2    0    0 -0.96728300514E+01  0.21292457875E+02  0.33260086784E+02  0.40659141364E+02  0.00000000000E+00 0.  1.
         11    1    3    3    0    0  0.81356040384E+01 -0.37792569802E+01 -0.12104145330E+02  0.15065894293E+02  0.51100000000E-03 0. -1.
        -11    1    3    3    0    0  0.62498014585E+01 -0.17478279388E+02 -0.23702850143E+02  0.30106068721E+02  0.51100000000E-03 0.  1.
        -12    1    3    3    0    0 -0.47125754455E+01 -0.34921506346E-01  0.25469086898E+01  0.53568956230E+01  0.00000000000E+00 0.  1.
</event>
<event>
 7    1  0.2835316E-011  0.5052886E+02  0.7816164E-02  0.1300439E+00
        -11   -1    0    0    0    0  0.00000000000E+00  0.00000000000E+00  0.45593999997E+02  0.45594000000E+02  0.51100000000E-03 0.  1.
         11   -1    0    0    0    0 -0.00000000000E+00 -0.00000000000E+00 -0.45593999997E+02  0.45594000000E+02  0.51100000000E-03 0. -1.
    9900012    2    1    2    0    0 -0.14481726318E+02 -0.29460592484E+02 -0.23989971741E+02  0.50528860181E+02  0.30000001008E+02 0.  0.
        -12    1    1    2    0    0  0.14481726318E+02  0.29460592484E+02  0.23989971741E+02  0.40659139819E+02  0.00000000000E+00 0.  1.
         11    1    3    3    0    0  0.34514234210E+00 -0.11944805201E+01 -0.95512697819E+01  0.96318566049E+01  0.51100000000E-03 0. -1.
        -11    1    3    3    0    0 -0.32000627873E+01 -0.25742495491E+02 -0.12667489820E+02  0.28868352474E+02  0.51100000000E-03 0.  1.
        -12    1    3    3    0    0 -0.11626805873E+02 -0.25236164728E+01 -0.17712121385E+01  0.12028651103E+02  0.00000000000E+00 0.  1.
</event>
<event>
 7    1  0.2835316E-011  0.5052884E+02  0.7816164E-02  0.1300439E+00
        -11   -1    0    0    0    0  0.00000000000E+00  0.00000000000E+00  0.45593999997E+02  0.45594000000E+02  0.51100000000E-03 0. -1.
         11   -1    0    0    0    0 -0.00000000000E+00 -0.00000000000E+00 -0.45593999997E+02  0.45594000000E+02  0.51100000000E-03 0.  1.
    9900012    2    1    2    0    0  0.17123744441E+02  0.23942526414E+02  0.28048168682E+02  0.50528844067E+02  0.29999952025E+02 0.  0.
        -12    1    1    2    0    0 -0.17123744441E+02 -0.23942526414E+02 -0.28048168682E+02  0.40659155933E+02  0.00000000000E+00 0.  1.
         11    1    3    3    0    0  0.18408697441E+01  0.15296300902E+01  0.76776015563E+01  0.80420231003E+01  0.51100000000E-03 0. -1.
        -11    1    3    3    0    0  0.71955221975E+01  0.25753472295E+02  0.20566939625E+02  0.33734490966E+02  0.51100000000E-03 0.  1.
        -12    1    3    3    0    0  0.80873524998E+01 -0.33405759709E+01 -0.19637249985E+00  0.87523300001E+01  0.00000000000E+00 0.  1.
</event>
<event>
 7    1  0.2835316E-011  0.5052886E+02  0.7816164E-02  0.1300439E+00
        -11   -1    0    0    0    0  0.00000000000E+00  0.00000000000E+00  0.45593999997E+02  0.45594000000E+02  0.51100000000E-03 0. -1.
         11   -1    0    0    0    0 -0.00000000000E+00 -0.00000000000E+00 -0.45593999997E+02  0.45594000000E+02  0.51100000000E-03 0.  1.
    9900012    2    1    2    0    0 -0.58513048111E+01  0.27903207867E+02  0.28988603189E+02  0.50528857214E+02  0.29999991988E+02 0.  0.
        -12    1    1    2    0    0  0.58513048111E+01 -0.27903207867E+02 -0.28988603189E+02  0.40659142786E+02  0.00000000000E+00 0.  1.
         11    1    3    3    0    0 -0.58390577457E+01  0.29337485841E+01  0.13134007982E+02  0.14669820791E+02  0.51100000000E-03 0.  1.
        -11    1    3    3    0    0  0.42118576297E+01  0.20168160636E+01  0.11098932110E+02  0.12041328248E+02  0.51100000000E-03 0. -1.
        -12    1    3    3    0    0 -0.42241046951E+01  0.22952643219E+02  0.47556630962E+01  0.23817708175E+02  0.00000000000E+00 0.  1.
</event>
<event>
 7    1  0.2835316E-011  0.5052884E+02  0.7816164E-02  0.1300439E+00
        -11   -1    0    0    0    0  0.00000000000E+00  0.00000000000E+00  0.45593999997E+02  0.45594000000E+02  0.51100000000E-03 0.  1.
         11   -1    0    0    0    0 -0.00000000000E+00 -0.00000000000E+00 -0.45593999997E+02  0.45594000000E+02  0.51100000000E-03 0. -1.
    9900012    2    1    2    0    0  0.22179282736E+02  0.20598457758E+02 -0.27146822901E+02  0.50528843118E+02  0.29999949143E+02 0.  0.
        -12    1    1    2    0    0 -0.22179282736E+02 -0.20598457758E+02  0.27146822901E+02  0.40659156882E+02  0.00000000000E+00 0.  1.
         11    1    3    3    0    0  0.45098254045E+01  0.16586855717E+01  0.26516005061E+01  0.54882372862E+01  0.51100000000E-03 0. -1.
        -11    1    3    3    0    0  0.46081901749E+01  0.19939251990E+02 -0.20575931306E+02  0.29020305580E+02  0.51100000000E-03 0.  1.
         12    1    3    3    0    0  0.13061267157E+02 -0.99947980287E+00 -0.92224921005E+01  0.16020300252E+02  0.00000000000E+00 0. -1.
</event>
<event>
 7    1  0.2835316E-011  0.5052886E+02  0.7816164E-02  0.1300439E+00
        -11   -1    0    0    0    0  0.00000000000E+00  0.00000000000E+00  0.45593999997E+02  0.45594000000E+02  0.51100000000E-03 0.  1.
         11   -1    0    0    0    0 -0.00000000000E+00 -0.00000000000E+00 -0.45593999997E+02  0.45594000000E+02  0.51100000000E-03 0. -1.
    9900012    2    1    2    0    0 -0.18550282881E+02 -0.35301628209E+02 -0.79276388534E+01  0.50528863179E+02  0.30000010120E+02 0.  0.
        -12    1    1    2    0    0  0.18550282881E+02  0.35301628209E+02  0.79276388534E+01  0.40659136821E+02  0.00000000000E+00 0.  1.
         11    1    3    3    0    0 -0.19873514643E+02 -0.29130659985E+02 -0.11900678443E+02  0.37217980642E+02  0.51100000000E-03 0. -1.
        -11    1    3    3    0    0 -0.38976978945E+01  0.49283548374E+00 -0.70295792653E-01  0.39293609468E+01  0.51100000000E-03 0.  1.
        -12    1    3    3    0    0  0.52209296564E+01 -0.66638037085E+01  0.40433353819E+01  0.93815215906E+01  0.00000000000E+00 0.  1.
</event>
<event>
 7    1  0.2835316E-011  0.5052886E+02  0.7816164E-02  0.1300439E+00
        -11   -1    0    0    0    0  0.00000000000E+00  0.00000000000E+00  0.45593999997E+02  0.45594000000E+02  0.51100000000E-03 0.  1.
         11   -1    0    0    0    0 -0.00000000000E+00 -0.00000000000E+00 -0.45593999997E+02  0.45594000000E+02  0.51100000000E-03 0. -1.
    9900012    2    1    2    0    0  0.55086322148E+00  0.24011338326E+02 -0.32807283555E+02  0.50528859911E+02  0.30000000187E+02 0.  0.
        -12    1    1    2    0    0 -0.55086322148E+00 -0.24011338326E+02  0.32807283555E+02  0.40659140089E+02  0.00000000000E+00 0.  1.
         11    1    3    3    0    0 -0.33069014403E+01  0.71719660436E+01 -0.19792837252E+01  0.81418829759E+01  0.51100000000E-03 0.  1.
        -11    1    3    3    0    0  0.51652832710E+01  0.21678929335E+02 -0.18109041319E+02  0.28715736211E+02  0.51100000000E-03 0. -1.
         12    1    3    3    0    0 -0.13075186092E+01 -0.48395570521E+01 -0.12718958510E+02  0.13671240725E+02  0.00000000000E+00 0. -1.
</event>
<event>
 7    1  0.2835316E-011  0.5052886E+02  0.7816164E-02  0.1300439E+00
        -11   -1    0    0    0    0  0.00000000000E+00  0.00000000000E+00  0.45593999997E+02  0.45594000000E+02  0.51100000000E-03 0.  1.
         11   -1    0    0    0    0 -0.00000000000E+00 -0.00000000000E+00 -0.45593999997E+02  0.45594000000E+02  0.51100000000E-03 0. -1.
    9900012    2    1    2    0    0  0.33677076255E+02 -0.13927834885E+02 -0.18028750282E+02  0.50528857284E+02  0.29999992201E+02 0.  0.
        -12    1    1    2    0    0 -0.33677076255E+02  0.13927834885E+02  0.18028750282E+02  0.40659142716E+02  0.00000000000E+00 0.  1.
         11    1    3    3    0    0  0.16484028601E+02 -0.21223501750E+01 -0.48289524864E+01  0.17307407418E+02  0.51100000000E-03 0. -1.
        -11    1    3    3    0    0  0.23300982963E+01  0.62814925679E+01 -0.85045395832E+00  0.67535012510E+01  0.51100000000E-03 0.  1.
        -12    1    3    3    0    0  0.14862949358E+02 -0.18086977278E+02 -0.12349343837E+02  0.26467948615E+02  0.00000000000E+00 0.  1.
</event>
<event>
 7    1  0.2835316E-011  0.5052887E+02  0.7816164E-02  0.1300439E+00
        -11   -1    0    0    0    0  0.00000000000E+00  0.00000000000E+00  0.45593999997E+02  0.45594000000E+02  0.51100000000E-03 0. -1.
         11   -1    0    0    0    0 -0.00000000000E+00 -0.00000000000E+00 -0.45593999997E+02  0.45594000000E+02  0.51100000000E-03 0.  1.
    9900012    2    1    2    0    0  0.24092790566E+02  0.22985042307E+02  0.23332162936E+02  0.50528873664E+02  0.30000041989E+02 0.  0.
        -12    1    1    2    0    0 -0.24092790566E+02 -0.22985042307E+02 -0.23332162936E+02  0.40659126336E+02  0.00000000000E+00 0.  1.
         11    1    3    3    0    0 -0.41963326093E+01  0.34751163669E+00  0.31824081182E+01  0.52780387833E+01  0.51100000000E-03 0.  1.
        -11    1    3    3    0    0  0.58255730427E+01  0.36048816145E+01  0.13392515469E+02  0.15043003144E+02  0.51100000000E-03 0. -1.
         12    1    3    3    0    0  0.22463550132E+02  0.19032649056E+02  0.67572393492E+01  0.30207831737E+02  0.00000000000E+00 0. -1.
</event>
<event>
 7    1  0.2835316E-011  0.5052887E+02  0.7816164E-02  0.1300439E+00
        -11   -1    0    0    0    0  0.00000000000E+00  0.00000000000E+00  0.45593999997E+02  0.45594000000E+02  0.51100000000E-03 0. -1.
         11   -1    0    0    0    0 -0.00000000000E+00 -0.00000000000E+00 -0.45593999997E+02  0.45594000000E+02  0.51100000000E-03 0.  1.
    9900012    2    1    2    0    0  0.28450075218E+02 -0.27072980763E+02  0.10526723884E+02  0.50528868393E+02  0.30000025966E+02 0.  0.
        -12    1    1    2    0    0 -0.28450075218E+02  0.27072980763E+02 -0.10526723884E+02  0.40659131607E+02  0.00000000000E+00 0.  1.
         11    1    3    3    0    0  0.93997689481E+01  0.22614641070E+01  0.41945976312E+01  0.10538715564E+02  0.51100000000E-03 0. -1.
        -11    1    3    3    0    0  0.19785681689E+02 -0.16354958410E+02  0.33277957918E+00  0.25672331546E+02  0.51100000000E-03 0.  1.
        -12    1    3    3    0    0 -0.73537541901E+00 -0.12979486460E+02  0.59993466732E+01  0.14317821282E+02  0.00000000000E+00 0.  1.
</event>
<event>
 7    1  0.2835316E-011  0.5052885E+02  0.7816164E-02  0.1300439E+00
        -11   -1    0    0    0    0  0.00000000000E+00  0.00000000000E+00  0.45593999997E+02  0.45594000000E+02  0.51100000000E-03 0. -1.
         11   -1    0    0    0    0 -0.00000000000E+00 -0.00000000000E+00 -0.45593999997E+02  0.45594000000E+02  0.51100000000E-03 0.  1.
    9900012    2    1    2    0    0 -0.28077747257E+02  0.28591942221E+02  0.68780200397E+01  0.50528853297E+02  0.29999980080E+02 0.  0.
        -12    1    1    2    0    0  0.28077747257E+02 -0.28591942221E+02 -0.68780200397E+01  0.40659146703E+02  0.00000000000E+00 0.  1.
         11    1    3    3    0    0 -0.75440800934E+01  0.21515074823E+01 -0.49712757325E+01  0.92873953061E+01  0.51100000000E-03 0. -1.
        -11    1    3    3    0    0 -0.11375368298E+02  0.75880580795E+00  0.74605210557E+01  0.13624762929E+02  0.51100000000E-03 0.  1.
        -12    1    3    3    0    0 -0.91582988650E+01  0.25681628930E+02  0.43887747165E+01  0.27616695062E+02  0.00000000000E+00 0.  1.
</event>
<event>
 7    1  0.2835316E-011  0.5052885E+02  0.7816164E-02  0.1300439E+00
        -11   -1    0    0    0    0  0.00000000000E+00  0.00000000000E+00  0.45593999997E+02  0.45594000000E+02  0.51100000000E-03 0.  1.
         11   -1    0    0    0    0 -0.00000000000E+00 -0.00000000000E+00 -0.45593999997E+02  0.45594000000E+02  0.51100000000E-03 0. -1.
    9900012    2    1    2    0    0 -0.50475445849E+01  0.11846619831E+02 -0.38566128068E+02  0.50528851682E+02  0.29999975174E+02 0.  0.
        -12    1    1    2    0    0  0.50475445849E+01 -0.11846619831E+02  0.38566128068E+02  0.40659148318E+02  0.00000000000E+00 0.  1.
         11    1    3    3    0    0  0.66315965761E+01  0.11424605572E+02 -0.19740052144E+02  0.23752249252E+02  0.51100000000E-03 0. -1.
        -11    1    3    3    0    0 -0.10176212884E+02  0.69380435802E+01 -0.12994959480E+02  0.17904209828E+02  0.51100000000E-03 0.  1.
         12    1    3    3    0    0 -0.15029282766E+01 -0.65160293213E+01 -0.58311164434E+01  0.88723926027E+01  0.00000000000E+00 0. -1.
</event>
<event>
 7    1  0.2835316E-011  0.5052885E+02  0.7816164E-02  0.1300439E+00
        -11   -1    0    0    0    0  0.00000000000E+00  0.00000000000E+00  0.45593999997E+02  0.45594000000E+02  0.51100000000E-03 0.  1.
         11   -1    0    0    0    0 -0.00000000000E+00 -0.00000000000E+00 -0.45593999997E+02  0.45594000000E+02  0.51100000000E-03 0. -1.
    9900012    2    1    2    0    0  0.24450063632E+02 -0.30479210664E+02 -0.11241821475E+02  0.50528850422E+02  0.29999971343E+02 0.  0.
        -12    1    1    2    0    0 -0.24450063632E+02  0.30479210664E+02  0.11241821475E+02  0.40659149578E+02  0.00000000000E+00 0.  1.
         11    1    3    3    0    0  0.19626990688E+02 -0.31286555284E+02 -0.28303603100E+01  0.37041574544E+02  0.51100000000E-03 0. -1.
        -11    1    3    3    0    0  0.59195985631E+01 -0.26133164402E+01 -0.33664814269E+01  0.72941255421E+01  0.51100000000E-03 0.  1.
        -12    1    3    3    0    0 -0.10965256186E+01  0.34206610598E+01 -0.50449797386E+01  0.61931503357E+01  0.00000000000E+00 0.  1.
</event>
<event>
 7    1  0.2835316E-011  0.5052885E+02  0.7816164E-02  0.1300439E+00
        -11   -1    0    0    0    0  0.00000000000E+00  0.00000000000E+00  0.45593999997E+02  0.45594000000E+02  0.51100000000E-03 0.  1.
         11   -1    0    0    0    0 -0.00000000000E+00 -0.00000000000E+00 -0.45593999997E+02  0.45594000000E+02  0.51100000000E-03 0. -1.
    9900012    2    1    2    0    0  0.33328344038E+02  0.10252090830E+02 -0.20911299716E+02  0.50528851724E+02  0.29999975301E+02 0.  0.
        -12    1    1    2    0    0 -0.33328344038E+02 -0.10252090830E+02  0.20911299716E+02  0.40659148276E+02  0.00000000000E+00 0.  1.
         11    1    3    3    0    0  0.37769925078E+01 -0.14633047925E+01  0.44491046052E+01  0.60167653576E+01  0.51100000000E-03 0. -1.
        -11    1    3    3    0    0  0.67141889857E+00  0.70771269875E+01 -0.31024515941E+01  0.77563996732E+01  0.51100000000E-03 0.  1.
         12    1    3    3    0    0  0.28879932631E+02  0.46382686351E+01 -0.22257952727E+02  0.36755686694E+02  0.00000000000E+00 0. -1.
</event>
<event>
 7    1  0.2835316E-011  0.5052884E+02  0.7816164E-02  0.1300439E+00
        -11   -1    0    0    0    0  0.00000000000E+00  0.00000000000E+00  0.45593999997E+02  0.45594000000E+02  0.51100000000E-03 0.  1.
         11   -1    0    0    0    0 -0.00000000000E+00 -0.00000000000E+00 -0.45593999997E+02  0.45594000000E+02  0.51100000000E-03 0. -1.
    9900012    2    1    2    0    0 -0.80760872491E+01 -0.39775471436E+02  0.24198424909E+01  0.50528844193E+02  0.29999952410E+02 0.  0.
        -12    1    1    2    0    0  0.80760872491E+01  0.39775471436E+02 -0.24198424909E+01  0.40659155807E+02  0.00000000000E+00 0.  1.
         11    1    3    3    0    0  0.41692830126E-01  0.11789710984E+01  0.34797402125E+01  0.36742758947E+01  0.51100000000E-03 0.  1.
        -11    1    3    3    0    0 -0.10712343658E+02 -0.38908930206E+02  0.42718739057E+01  0.40582115067E+02  0.51100000000E-03 0. -1.
         12    1    3    3    0    0  0.25945635787E+01 -0.20455123289E+01 -0.53317716273E+01  0.62724532312E+01  0.00000000000E+00 0. -1.
</event>
<event>
 7    1  0.2835316E-011  0.5052880E+02  0.7816164E-02  0.1300439E+00
        -11   -1    0    0    0    0  0.00000000000E+00  0.00000000000E+00  0.45593999997E+02  0.45594000000E+02  0.51100000000E-03 0. -1.
         11   -1    0    0    0    0 -0.00000000000E+00 -0.00000000000E+00 -0.45593999997E+02  0.45594000000E+02  0.51100000000E-03 0.  1.
    9900012    2    1    2    0    0  0.21001825359E+02 -0.22445797719E+02  0.26613526753E+02  0.50528802887E+02  0.29999826854E+02 0.  0.
        -12    1    1    2    0    0 -0.21001825359E+02  0.22445797719E+02 -0.26613526753E+02  0.40659197113E+02  0.00000000000E+00 0.  1.
         11    1    3    3    0    0  0.16100929983E+01  0.24888094567E+01 -0.91068168538E+00  0.31009536224E+01  0.51100000000E-03 0. -1.
        -11    1    3    3    0    0 -0.24423153976E+01 -0.13353167747E+02  0.68476862403E+01  0.15204038953E+02  0.51100000000E-03 0.  1.
        -12    1    3    3    0    0  0.21834047759E+02 -0.11581439429E+02  0.20676522198E+02  0.32223810311E+02  0.00000000000E+00 0.  1.
</event>
<event>
 7    1  0.2835316E-011  0.5052887E+02  0.7816164E-02  0.1300439E+00
        -11   -1    0    0    0    0  0.00000000000E+00  0.00000000000E+00  0.45593999997E+02  0.45594000000E+02  0.51100000000E-03 0.  1.
         11   -1    0    0    0    0 -0.00000000000E+00 -0.00000000000E+00 -0.45593999997E+02  0.45594000000E+02  0.51100000000E-03 0. -1.
    9900012    2    1    2    0    0  0.62680385595E+01 -0.36802879565E+02 -0.16106658404E+02  0.50528871915E+02  0.30000036673E+02 0.  0.
        -12    1    1    2    0    0 -0.62680385595E+01  0.36802879565E+02  0.16106658404E+02  0.40659128085E+02  0.00000000000E+00 0.  1.
         11    1    3    3    0    0  0.10940160784E+02 -0.10226430931E+02 -0.10043788295E+02  0.18031768941E+02  0.51100000000E-03 0. -1.
        -11    1    3    3    0    0 -0.79671389513E+01 -0.71697144574E+01 -0.69810722931E+01  0.12791226645E+02  0.51100000000E-03 0.  1.
        -12    1    3    3    0    0  0.32950167272E+01 -0.19406734177E+02  0.91820218437E+00  0.19705876329E+02  0.00000000000E+00 0.  1.
</event>
<event>
 7    1  0.2835316E-011  0.5052887E+02  0.7816164E-02  0.1300439E+00
        -11   -1    0    0    0    0  0.00000000000E+00  0.00000000000E+00  0.45593999997E+02  0.45594000000E+02  0.51100000000E-03 0.  1.
         11   -1    0    0    0    0 -0.00000000000E+00 -0.00000000000E+00 -0.45593999997E+02  0.45594000000E+02  0.51100000000E-03 0. -1.
    9900012    2    1    2    0    0  0.12237679753E+02  0.36973317222E+02 -0.11678109841E+02  0.50528865214E+02  0.30000016303E+02 0.  0.
        -12    1    1    2    0    0 -0.12237679753E+02 -0.36973317222E+02  0.11678109841E+02  0.40659134786E+02  0.00000000000E+00 0.  1.
         11    1    3    3    0    0  0.69586045449E+01  0.15764700818E+02 -0.78914840919E+01  0.18953192094E+02  0.51100000000E-03 0. -1.
        -11    1    3    3    0    0  0.11653681104E+02  0.20811769765E+02 -0.63663541219E+01  0.24687416007E+02  0.51100000000E-03 0.  1.
        -12    1    3    3    0    0 -0.63746058955E+01  0.39684663816E+00  0.25797283730E+01  0.68882571131E+01  0.00000000000E+00 0.  1.
</event>
<event>
 7    1  0.2835316E-011  0.5052888E+02  0.7816164E-02  0.1300439E+00
        -11   -1    0    0    0    0  0.00000000000E+00  0.00000000000E+00  0.45593999997E+02  0.45594000000E+02  0.51100000000E-03 0. -1.
         11   -1    0    0    0    0 -0.00000000000E+00 -0.00000000000E+00 -0.45593999997E+02  0.45594000000E+02  0.51100000000E-03 0.  1.
    9900012    2    1    2    0    0  0.16701406069E+02  0.25692213585E+02  0.26723344367E+02  0.50528881247E+02  0.30000065039E+02 0.  0.
        -12    1    1    2    0    0 -0.16701406069E+02 -0.25692213585E+02 -0.26723344367E+02  0.40659118753E+02  0.00000000000E+00 0.  1.
         11    1    3    3    0    0  0.40658883766E+01  0.13121830628E+01  0.39259958155E+01  0.58023026538E+01  0.51100000000E-03 0. -1.
        -11    1    3    3    0    0  0.14055754187E+02  0.24872505522E+02  0.27582145385E+02  0.39711213794E+02  0.51100000000E-03 0.  1.
        -12    1    3    3    0    0 -0.14202364945E+01 -0.49247499918E+00 -0.47847968340E+01  0.50153647991E+01  0.00000000000E+00 0.  1.
</event>
<event>
 7    1  0.2835316E-011  0.5052886E+02  0.7816164E-02  0.1300439E+00
        -11   -1    0    0    0    0  0.00000000000E+00  0.00000000000E+00  0.45593999997E+02  0.45594000000E+02  0.51100000000E-03 0. -1.
         11   -1    0    0    0    0 -0.00000000000E+00 -0.00000000000E+00 -0.45593999997E+02  0.45594000000E+02  0.51100000000E-03 0.  1.
    9900012    2    1    2    0    0 -0.22005507261E+02  0.61289511611E+01  0.33635678803E+02  0.50528864733E+02  0.30000014843E+02 0.  0.
        -12    1    1    2    0    0  0.22005507261E+02 -0.61289511611E+01 -0.33635678803E+02  0.40659135267E+02  0.00000000000E+00 0.  1.
         11    1    3    3    0    0  0.50537179163E+01 -0.31207986461E-01  0.55446116380E+01  0.75022501421E+01  0.51100000000E-03 0. -1.
        -11    1    3    3    0    0 -0.37877770458E+01  0.81632374374E+01  0.10214415233E+02  0.13613228097E+02  0.51100000000E-03 0.  1.
         12    1    3    3    0    0 -0.23271448131E+02 -0.20030782898E+01  0.17876651931E+02  0.29413386494E+02  0.00000000000E+00 0. -1.
</event>
<event>
 7    1  0.2835316E-011  0.5052886E+02  0.7816164E-02  0.1300439E+00
        -11   -1    0    0    0    0  0.00000000000E+00  0.00000000000E+00  0.45593999997E+02  0.45594000000E+02  0.51100000000E-03 0. -1.
         11   -1    0    0    0    0 -0.00000000000E+00 -0.00000000000E+00 -0.45593999997E+02  0.45594000000E+02  0.51100000000E-03 0.  1.
    9900012    2    1    2    0    0  0.19887418369E+02  0.23701346745E+02 -0.26379963131E+02  0.50528859555E+02  0.29999999105E+02 0.  0.
        -12    1    1    2    0    0 -0.19887418369E+02 -0.23701346745E+02  0.26379963131E+02  0.40659140445E+02  0.00000000000E+00 0.  1.
         11    1    3    3    0    0 -0.51755967361E+01  0.61735689885E+00 -0.13533850029E+01  0.53851260285E+01  0.51100000000E-03 0. -1.
        -11    1    3    3    0    0  0.59048639341E+01 -0.17235266145E+01 -0.52068586523E+01  0.80591152962E+01  0.51100000000E-03 0.  1.
         12    1    3    3    0    0  0.19158151171E+02  0.24807516460E+02 -0.19819719476E+02  0.37084618231E+02  0.00000000000E+00 0. -1.
</event>
<event>
 7    1  0.2835316E-011  0.5052886E+02  0.7816164E-02  0.1300439E+00
        -11   -1    0    0    0    0  0.00000000000E+00  0.00000000000E+00  0.45593999997E+02  0.45594000000E+02  0.51100000000E-03 0.  1.
         11   -1    0    0    0    0 -0.00000000000E+00 -0.00000000000E+00 -0.45593999997E+02  0.45594000000E+02  0.51100000000E-03 0. -1.
    9900012    2    1    2    0    0  0.66155303443E+01  0.24854381655E+02 -0.31490638478E+02  0.50528857843E+02  0.29999993899E+02 0.  0.
        -12    1    1    2    0    0 -0.66155303443E+01 -0.24854381655E+02  0.31490638478E+02  0.40659142157E+02  0.00000000000E+00 0.  1.
         11    1    3    3    0    0  0.11519655977E+02  0.27134044216E+02 -0.23792291103E+02  0.37881815500E+02  0.51100000000E-03 0. -1.
        -11    1    3    3    0    0  0.20651998848E+01 -0.12960472266E+00 -0.37539864070E-01  0.20696032110E+01  0.51100000000E-03 0.  1.
        -12    1    3    3    0    0 -0.69693255172E+01 -0.21500578385E+01 -0.76608075110E+01  0.10577439132E+02  0.00000000000E+00 0.  1.
</event>
<event>
 7    1  0.2835316E-011  0.5052885E+02  0.7816164E-02  0.1300439E+00
        -11   -1    0    0    0    0  0.00000000000E+00  0.00000000000E+00  0.45593999997E+02  0.45594000000E+02  0.51100000000E-03 0.  1.
         11   -1    0    0    0    0 -0.00000000000E+00 -0.00000000000E+00 -0.45593999997E+02  0.45594000000E+02  0.51100000000E-03 0. -1.
    9900012    2    1    2    0    0  0.36502054338E+02 -0.12343427765E+02 -0.12977142434E+02  0.50528850899E+02  0.29999972793E+02 0.  0.
        -12    1    1    2    0    0 -0.36502054338E+02  0.12343427765E+02  0.12977142434E+02  0.40659149101E+02  0.00000000000E+00 0.  1.
         11    1    3    3    0    0  0.45024010205E+01 -0.65180893433E+01  0.20346548999E+01  0.81790540076E+01  0.51100000000E-03 0.  1.
        -11    1    3    3    0    0  0.80135728503E+01  0.47674705683E+01 -0.13072389064E+02  0.16057194074E+02  0.51100000000E-03 0. -1.
         12    1    3    3    0    0  0.23986080467E+02 -0.10592808990E+02 -0.19394082701E+01  0.26292602817E+02  0.00000000000E+00 0. -1.
</event>
<event>
 7    1  0.2835316E-011  0.5052889E+02  0.7816164E-02  0.1300439E+00
        -11   -1    0    0    0    0  0.00000000000E+00  0.00000000000E+00  0.45593999997E+02  0.45594000000E+02  0.51100000000E-03 0. -1.
         11   -1    0    0    0    0 -0.00000000000E+00 -0.00000000000E+00 -0.45593999997E+02  0.45594000000E+02  0.51100000000E-03 0.  1.
    9900012    2    1    2    0    0  0.10435877773E+02  0.31217657104E+02  0.23868673497E+02  0.50528889895E+02  0.30000091326E+02 0.  0.
        -12    1    1    2    0    0 -0.10435877773E+02 -0.31217657104E+02 -0.23868673497E+02  0.40659110105E+02  0.00000000000E+00 0.  1.
         11    1    3    3    0    0  0.83637041834E+00  0.90060840628E+01  0.31629852862E+01  0.95819383115E+01  0.51100000000E-03 0. -1.
        -11    1    3    3    0    0  0.15168951384E+02  0.22869886298E+02  0.10658116638E+02  0.29440180636E+02  0.51100000000E-03 0.  1.
        -12    1    3    3    0    0 -0.55694440285E+01 -0.65831325635E+00  0.10047571573E+02  0.11506770948E+02  0.00000000000E+00 0.  1.
</event>
<event>
 7    1  0.2835316E-011  0.5052886E+02  0.7816164E-02  0.1300439E+00
        -11   -1    0    0    0    0  0.00000000000E+00  0.00000000000E+00  0.45593999997E+02  0.45594000000E+02  0.51100000000E-03 0. -1.
         11   -1    0    0    0    0 -0.00000000000E+00 -0.00000000000E+00 -0.45593999997E+02  0.45594000000E+02  0.51100000000E-03 0.  1.
    9900012    2    1    2    0    0 -0.15431097488E+02 -0.23253553916E+02  0.29568885304E+02  0.50528861820E+02  0.30000005987E+02 0.  0.
        -12    1    1    2    0    0  0.15431097488E+02  0.23253553916E+02 -0.29568885304E+02  0.40659138180E+02  0.00000000000E+00 0.  1.
         11    1    3    3    0    0  0.23336827996E+01 -0.85274477565E+01 -0.19882026199E+01  0.90618094533E+01  0.51100000000E-03 0. -1.
        -11    1    3    3    0    0 -0.12647077485E+01 -0.11107764769E+01  0.13115532817E+02  0.13223105210E+02  0.51100000000E-03 0.  1.
        -12    1    3    3    0    0 -0.16500072539E+02 -0.13615329683E+02  0.18441555107E+02  0.28243947156E+02  0.00000000000E+00 0.  1.
</event>
<event>
 7    1  0.2835316E-011  0.5052888E+02  0.7816164E-02  0.1300439E+00
        -11   -1    0    0    0    0  0.00000000000E+00  0.00000000000E+00  0.45593999997E+02  0.45594000000E+02  0.51100000000E-03 0.  1.
         11   -1    0    0    0    0 -0.00000000000E+00 -0.00000000000E+00 -0.45593999997E+02  0.45594000000E+02  0.51100000000E-03 0. -1.
    9900012    2    1    2    0    0  0.15751253493E+02  0.37478262744E+02  0.66489350269E+00  0.50528877428E+02  0.30000053431E+02 0.  0.
        -12    1    1    2    0    0 -0.15751253493E+02 -0.37478262744E+02 -0.66489350269E+00  0.40659122572E+02  0.00000000000E+00 0.  1.
         11    1    3    3    0    0  0.12089062689E+01  0.78007667501E+01 -0.65005272164E+01  0.10225960620E+02  0.51100000000E-03 0. -1.
        -11    1    3    3    0    0  0.82888375101E+00  0.24250735052E+02  0.90715943748E+00  0.24281847898E+02  0.51100000000E-03 0.  1.
        -12    1    3    3    0    0  0.13713463474E+02  0.54267609423E+01  0.62582612816E+01  0.16021068910E+02  0.00000000000E+00 0.  1.
</event>
<event>
 7    1  0.2835316E-011  0.5052887E+02  0.7816164E-02  0.1300439E+00
        -11   -1    0    0    0    0  0.00000000000E+00  0.00000000000E+00  0.45593999997E+02  0.45594000000E+02  0.51100000000E-03 0.  1.
         11   -1    0    0    0    0 -0.00000000000E+00 -0.00000000000E+00 -0.45593999997E+02  0.45594000000E+02  0.51100000000E-03 0. -1.
    9900012    2    1    2    0    0 -0.19059282595E+02  0.17632266486E+02 -0.31289167112E+02  0.50528867532E+02  0.30000023350E+02 0.  0.
        -12    1    1    2    0    0  0.19059282595E+02 -0.17632266486E+02  0.31289167112E+02  0.40659132468E+02  0.00000000000E+00 0.  1.
         11    1    3    3    0    0 -0.18961704555E+02  0.17083313208E+02 -0.33140140810E+02  0.41828874752E+02  0.51100000000E-03 0. -1.
        -11    1    3    3    0    0 -0.39590162551E+01 -0.10250862301E+01  0.19460354479E+01  0.45289806483E+01  0.51100000000E-03 0.  1.
        -12    1    3    3    0    0  0.38614382159E+01  0.15740395088E+01 -0.95061750014E-01  0.41710121322E+01  0.00000000000E+00 0.  1.
</event>
<event>
 7    1  0.2835316E-011  0.5052886E+02  0.7816164E-02  0.1300439E+00
        -11   -1    0    0    0    0  0.00000000000E+00  0.00000000000E+00  0.45593999997E+02  0.45594000000E+02  0.51100000000E-03 0. -1.
         11   -1    0    0    0    0 -0.00000000000E+00 -0.00000000000E+00 -0.45593999997E+02  0.45594000000E+02  0.51100000000E-03 0.  1.
    9900012    2    1    2    0    0  0.24166429779E+02  0.14590192227E+02  0.29262186116E+02  0.50528861129E+02  0.30000003887E+02 0.  0.
        -12    1    1    2    0    0 -0.24166429779E+02 -0.14590192227E+02 -0.29262186116E+02  0.40659138871E+02  0.00000000000E+00 0.  1.
         11    1    3    3    0    0  0.28459843521E+01  0.53069650027E+01  0.12874417609E+02  0.14213167610E+02  0.51100000000E-03 0. -1.
        -11    1    3    3    0    0  0.10565963076E+02  0.16192312865E+02  0.74595462223E+01  0.20723788305E+02  0.51100000000E-03 0.  1.
         12    1    3    3    0    0  0.10754482352E+02 -0.69090856407E+01  0.89282222844E+01  0.15591905214E+02  0.00000000000E+00 0. -1.
</event>
<event>
 7    1  0.2835316E-011  0.5052886E+02  0.7816164E-02  0.1300439E+00
        -11   -1    0    0    0    0  0.00000000000E+00  0.00000000000E+00  0.45593999997E+02  0.45594000000E+02  0.51100000000E-03 0.  1.
         11   -1    0    0    0    0 -0.00000000000E+00 -0.00000000000E+00 -0.45593999997E+02  0.45594000000E+02  0.51100000000E-03 0. -1.
    9900012    2    1    2    0    0  0.96881655126E+01  0.39160815015E+02  0.50730416180E+01  0.50528859147E+02  0.29999997862E+02 0.  0.
        -12    1    1    2    0    0 -0.96881655126E+01 -0.39160815015E+02 -0.50730416180E+01  0.40659140853E+02  0.00000000000E+00 0.  1.
         11    1    3    3    0    0  0.63970598023E+01  0.12221170058E+02  0.38068188152E+01  0.14309830239E+02  0.51100000000E-03 0. -1.
        -11    1    3    3    0    0 -0.54256008091E+01 -0.83176882896E+00  0.42740751517E+01  0.69567738347E+01  0.51100000000E-03 0.  1.
         12    1    3    3    0    0  0.87167065194E+01  0.27771413786E+02 -0.30078523489E+01  0.29262255073E+02  0.00000000000E+00 0. -1.
</event>
<event>
 7    1  0.2835316E-011  0.5052878E+02  0.7816164E-02  0.1300439E+00
        -11   -1    0    0    0    0  0.00000000000E+00  0.00000000000E+00  0.45593999997E+02  0.45594000000E+02  0.51100000000E-03 0.  1.
         11   -1    0    0    0    0 -0.00000000000E+00 -0.00000000000E+00 -0.45593999997E+02  0.45594000000E+02  0.51100000000E-03 0. -1.
    9900012    2    1    2    0    0  0.11482243459E+02 -0.25833357294E+02 -0.29222726383E+02  0.50528782088E+02  0.29999763634E+02 0.  0.
        -12    1    1    2    0    0 -0.11482243459E+02  0.25833357294E+02  0.29222726383E+02  0.40659217912E+02  0.00000000000E+00 0.  1.
         11    1    3    3    0    0  0.14591064060E+01  0.38763365668E+00  0.35681602391E+01  0.38744056459E+01  0.51100000000E-03 0. -1.
        -11    1    3    3    0    0 -0.29143451071E+01 -0.16718078759E+02 -0.14528087250E+02  0.22339491583E+02  0.51100000000E-03 0.  1.
         12    1    3    3    0    0  0.12937482161E+02 -0.95029121920E+01 -0.18262799373E+02  0.24314884859E+02  0.00000000000E+00 0. -1.
</event>
<event>
 7    1  0.2835316E-011  0.5052886E+02  0.7816164E-02  0.1300439E+00
        -11   -1    0    0    0    0  0.00000000000E+00  0.00000000000E+00  0.45593999997E+02  0.45594000000E+02  0.51100000000E-03 0. -1.
         11   -1    0    0    0    0 -0.00000000000E+00 -0.00000000000E+00 -0.45593999997E+02  0.45594000000E+02  0.51100000000E-03 0.  1.
    9900012    2    1    2    0    0  0.28856242342E+02 -0.21556993660E+02  0.18862095422E+02  0.50528863985E+02  0.30000012568E+02 0.  0.
        -12    1    1    2    0    0 -0.28856242342E+02  0.21556993660E+02 -0.18862095422E+02  0.40659136015E+02  0.00000000000E+00 0.  1.
         11    1    3    3    0    0  0.32875847312E+01 -0.43364711965E+01 -0.11850076287E+01  0.55693302240E+01  0.51100000000E-03 0. -1.
        -11    1    3    3    0    0 -0.83646693293E+00 -0.13129584877E+02  0.38266387411E+01  0.13701417455E+02  0.51100000000E-03 0.  1.
        -12    1    3    3    0    0  0.26405124544E+02 -0.40909375871E+01  0.16220464310E+02  0.31258116305E+02  0.00000000000E+00 0.  1.
</event>
<event>
 7    1  0.2835316E-011  0.5052886E+02  0.7816164E-02  0.1300439E+00
        -11   -1    0    0    0    0  0.00000000000E+00  0.00000000000E+00  0.45593999997E+02  0.45594000000E+02  0.51100000000E-03 0. -1.
         11   -1    0    0    0    0 -0.00000000000E+00 -0.00000000000E+00 -0.45593999997E+02  0.45594000000E+02  0.51100000000E-03 0.  1.
    9900012    2    1    2    0    0  0.28503208245E+02 -0.25992574823E+02  0.12849847144E+02  0.50528863293E+02  0.30000010464E+02 0.  0.
        -12    1    1    2    0    0 -0.28503208245E+02  0.25992574823E+02 -0.12849847144E+02  0.40659136707E+02  0.00000000000E+00 0.  1.
         11    1    3    3    0    0  0.18040210591E+02 -0.26047471956E+01  0.44607002039E+01  0.18765173932E+02  0.51100000000E-03 0. -1.
        -11    1    3    3    0    0 -0.39583483248E+01 -0.11431172903E+01  0.92766987274E+00  0.42232464117E+01  0.51100000000E-03 0.  1.
        -12    1    3    3    0    0  0.14421345978E+02 -0.22244710337E+02  0.74614770669E+01  0.27540442949E+02  0.00000000000E+00 0.  1.
</event>
<event>
 7    1  0.2835316E-011  0.5052887E+02  0.7816164E-02  0.1300439E+00
        -11   -1    0    0    0    0  0.00000000000E+00  0.00000000000E+00  0.45593999997E+02  0.45594000000E+02  0.51100000000E-03 0.  1.
         11   -1    0    0    0    0 -0.00000000000E+00 -0.00000000000E+00 -0.45593999997E+02  0.45594000000E+02  0.51100000000E-03 0. -1.
    9900012    2    1    2    0    0 -0.18906548957E+02  0.35353236127E+02 -0.67717208100E+01  0.50528866944E+02  0.30000021563E+02 0.  0.
        -12    1    1    2    0    0  0.18906548957E+02 -0.35353236127E+02  0.67717208100E+01  0.40659133056E+02  0.00000000000E+00 0.  1.
         11    1    3    3    0    0 -0.36383219508E+01  0.11621842920E+02 -0.57858554695E+01  0.13482608918E+02  0.51100000000E-03 0. -1.
        -11    1    3    3    0    0 -0.16909502238E+02  0.24622410123E+02  0.54343412801E+01  0.30359947490E+02  0.51100000000E-03 0.  1.
        -12    1    3    3    0    0  0.16412752317E+01 -0.89101691514E+00 -0.64202066206E+01  0.66863105358E+01  0.00000000000E+00 0.  1.
</event>
<event>
 7    1  0.2835316E-011  0.5052886E+02  0.7816164E-02  0.1300439E+00
        -11   -1    0    0    0    0  0.00000000000E+00  0.00000000000E+00  0.45593999997E+02  0.45594000000E+02  0.51100000000E-03 0.  1.
         11   -1    0    0    0    0 -0.00000000000E+00 -0.00000000000E+00 -0.45593999997E+02  0.45594000000E+02  0.51100000000E-03 0. -1.
    9900012    2    1    2    0    0  0.23741934467E+02 -0.20736145292E+02 -0.25680710300E+02  0.50528855207E+02  0.29999985887E+02 0.  0.
        -12    1    1    2    0    0 -0.23741934467E+02  0.20736145292E+02  0.25680710300E+02  0.40659144793E+02  0.00000000000E+00 0.  1.
         11    1    3    3    0    0  0.17408327746E+02 -0.14884427693E+02 -0.17930472930E+02  0.29087762417E+02  0.51100000000E-03 0. -1.
        -11    1    3    3    0    0  0.19011289532E+01 -0.12144690102E+02 -0.48922661239E+01  0.13230346067E+02  0.51100000000E-03 0.  1.
         12    1    3    3    0    0  0.44324777684E+01  0.62929725041E+01 -0.28579712457E+01  0.82107467228E+01  0.00000000000E+00 0. -1.
</event>
<event>
 7    1  0.2835316E-011  0.5052883E+02  0.7816164E-02  0.1300439E+00
        -11   -1    0    0    0    0  0.00000000000E+00  0.00000000000E+00  0.45593999997E+02  0.45594000000E+02  0.51100000000E-03 0.  1.
         11   -1    0    0    0    0 -0.00000000000E+00 -0.00000000000E+00 -0.45593999997E+02  0.45594000000E+02  0.51100000000E-03 0. -1.
    9900012    2    1    2    0    0 -0.83284739031E+00  0.26568407553E+02 -0.30766764314E+02  0.50528834969E+02  0.29999924372E+02 0.  0.
        -12    1    1    2    0    0  0.83284739031E+00 -0.26568407553E+02  0.30766764314E+02  0.40659165031E+02  0.00000000000E+00 0.  1.
         11    1    3    3    0    0  0.25958782547E+01  0.67115464061E+01 -0.60051908932E+01  0.93726067345E+01  0.51100000000E-03 0. -1.
        -11    1    3    3    0    0 -0.61842967746E+01  0.17560969175E+02 -0.27093015339E+01  0.18814182949E+02  0.51100000000E-03 0.  1.
         12    1    3    3    0    0  0.27555711296E+01  0.22958919712E+01 -0.22052271887E+02  0.22342045286E+02  0.00000000000E+00 0. -1.
</event>
<event>
 7    1  0.2835316E-011  0.5052886E+02  0.7816164E-02  0.1300439E+00
        -11   -1    0    0    0    0  0.00000000000E+00  0.00000000000E+00  0.45593999997E+02  0.45594000000E+02  0.51100000000E-03 0.  1.
         11   -1    0    0    0    0 -0.00000000000E+00 -0.00000000000E+00 -0.45593999997E+02  0.45594000000E+02  0.51100000000E-03 0. -1.
    9900012    2    1    2    0    0  0.20745139878E+02 -0.68135339013E+01 -0.34298403902E+02  0.50528861015E+02  0.30000003541E+02 0.  0.
        -12    1    1    2    0    0 -0.20745139878E+02  0.68135339013E+01  0.34298403902E+02  0.40659138985E+02  0.00000000000E+00 0.  1.
         11    1    3    3    0    0  0.14245696328E+02 -0.65951992880E+01 -0.30966053030E+02  0.34717905438E+02  0.51100000000E-03 0. -1.
        -11    1    3    3    0    0  0.10824174912E+02 -0.11613570977E+00 -0.37709876087E+01  0.11462835506E+02  0.51100000000E-03 0.  1.
         12    1    3    3    0    0 -0.43247313616E+01 -0.10219890354E+00  0.43863673628E+00  0.43481200711E+01  0.00000000000E+00 0. -1.
</event>
<event>
 7    1  0.2835316E-011  0.5052886E+02  0.7816164E-02  0.1300439E+00
        -11   -1    0    0    0    0  0.00000000000E+00  0.00000000000E+00  0.45593999997E+02  0.45594000000E+02  0.51100000000E-03 0.  1.
         11   -1    0    0    0    0 -0.00000000000E+00 -0.00000000000E+00 -0.45593999997E+02  0.45594000000E+02  0.51100000000E-03 0. -1.
    9900012    2    1    2    0    0  0.61885372223E+01  0.37150446199E+02 -0.15320324755E+02  0.50528855933E+02  0.29999988093E+02 0.  0.
        -12    1    1    2    0    0 -0.61885372223E+01 -0.37150446199E+02  0.15320324755E+02  0.40659144067E+02  0.00000000000E+00 0.  1.
         11    1    3    3    0    0 -0.99646644251E+00 -0.11316693472E+01 -0.24387614127E+00  0.15274477784E+01  0.51100000000E-03 0. -1.
        -11    1    3    3    0    0  0.61032695141E+01  0.28597145552E+02  0.20324565373E+01  0.29311729944E+02  0.51100000000E-03 0.  1.
         12    1    3    3    0    0  0.10817341508E+01  0.96849699938E+01 -0.17108905151E+02  0.19689678210E+02  0.00000000000E+00 0. -1.
</event>
<event>
 7    1  0.2835316E-011  0.5052886E+02  0.7816164E-02  0.1300439E+00
        -11   -1    0    0    0    0  0.00000000000E+00  0.00000000000E+00  0.45593999997E+02  0.45594000000E+02  0.51100000000E-03 0.  1.
         11   -1    0    0    0    0 -0.00000000000E+00 -0.00000000000E+00 -0.45593999997E+02  0.45594000000E+02  0.51100000000E-03 0. -1.
    9900012    2    1    2    0    0 -0.28677308746E+02  0.25220700569E+02 -0.13953275922E+02  0.50528859784E+02  0.29999999800E+02 0.  0.
        -12    1    1    2    0    0  0.28677308746E+02 -0.25220700569E+02  0.13953275922E+02  0.40659140216E+02  0.00000000000E+00 0.  1.
         11    1    3    3    0    0 -0.62622009694E+01  0.91839507362E+01 -0.12788640603E+02  0.16944304083E+02  0.51100000000E-03 0. -1.
        -11    1    3    3    0    0 -0.12269069614E+01 -0.40859095855E+01 -0.91212440889E+00  0.43625599172E+01  0.51100000000E-03 0.  1.
         12    1    3    3    0    0 -0.21188200816E+02  0.20122659418E+02 -0.25251090994E+00  0.29221995784E+02  0.00000000000E+00 0. -1.
</event>
<event>
 7    1  0.2835316E-011  0.5052886E+02  0.7816164E-02  0.1300439E+00
        -11   -1    0    0    0    0  0.00000000000E+00  0.00000000000E+00  0.45593999997E+02  0.45594000000E+02  0.51100000000E-03 0. -1.
         11   -1    0    0    0    0 -0.00000000000E+00 -0.00000000000E+00 -0.45593999997E+02  0.45594000000E+02  0.51100000000E-03 0.  1.
    9900012    2    1    2    0    0 -0.30325955557E+02  0.14499534791E+02  0.22874990093E+02  0.50528864970E+02  0.30000015564E+02 0.  0.
        -12    1    1    2    0    0  0.30325955557E+02 -0.14499534791E+02 -0.22874990093E+02  0.40659135030E+02  0.00000000000E+00 0.  1.
         11    1    3    3    0    0 -0.19519670495E+02  0.52240093502E+00  0.11497866545E+02  0.22660348063E+02  0.51100000000E-03 0. -1.
        -11    1    3    3    0    0 -0.28898848031E+00 -0.37892790242E+01 -0.82141114567E+00  0.38880414603E+01  0.51100000000E-03 0.  1.
        -12    1    3    3    0    0 -0.10517296582E+02  0.17766412880E+02  0.12198534694E+02  0.23980475447E+02  0.00000000000E+00 0.  1.
</event>
<event>
 7    1  0.2835316E-011  0.5052887E+02  0.7816164E-02  0.1300439E+00
        -11   -1    0    0    0    0  0.00000000000E+00  0.00000000000E+00  0.45593999997E+02  0.45594000000E+02  0.51100000000E-03 0.  1.
         11   -1    0    0    0    0 -0.00000000000E+00 -0.00000000000E+00 -0.45593999997E+02  0.45594000000E+02  0.51100000000E-03 0. -1.
    9900012    2    1    2    0    0  0.19230734600E+02 -0.12948930317E+02 -0.33401631488E+02  0.50528868976E+02  0.30000027739E+02 0.  0.
        -12    1    1    2    0    0 -0.19230734600E+02  0.12948930317E+02  0.33401631488E+02  0.40659131024E+02  0.00000000000E+00 0.  1.
         11    1    3    3    0    0 -0.91043714344E+00 -0.27897815129E+01 -0.71525719335E+01  0.77311746977E+01  0.51100000000E-03 0. -1.
        -11    1    3    3    0    0  0.15448067479E+02 -0.18534317020E+02 -0.17472494024E+02  0.29790128296E+02  0.51100000000E-03 0.  1.
        -12    1    3    3    0    0  0.46931042646E+01  0.83751682155E+01 -0.87765655299E+01  0.13007565982E+02  0.00000000000E+00 0.  1.
</event>
<event>
 7    1  0.2835316E-011  0.5052886E+02  0.7816164E-02  0.1300439E+00
        -11   -1    0    0    0    0  0.00000000000E+00  0.00000000000E+00  0.45593999997E+02  0.45594000000E+02  0.51100000000E-03 0.  1.
         11   -1    0    0    0    0 -0.00000000000E+00 -0.00000000000E+00 -0.45593999997E+02  0.45594000000E+02  0.51100000000E-03 0. -1.
    9900012    2    1    2    0    0 -0.75752052800E+01  0.57525993065E+01 -0.39530871608E+02  0.50528856577E+02  0.29999990051E+02 0.  0.
        -12    1    1    2    0    0  0.75752052800E+01 -0.57525993065E+01  0.39530871608E+02  0.40659143423E+02  0.00000000000E+00 0.  1.
         11    1    3    3    0    0  0.49479611884E+01 -0.68217447266E+01 -0.81994655030E+01  0.11757965633E+02  0.51100000000E-03 0. -1.
        -11    1    3    3    0    0  0.38696427737E+00  0.91167811564E+01 -0.16108357388E+02  0.18513363228E+02  0.51100000000E-03 0.  1.
        -12    1    3    3    0    0 -0.12910130746E+02  0.34575628767E+01 -0.15223048717E+02  0.20257527716E+02  0.00000000000E+00 0.  1.
</event>
<event>
 7    1  0.2835316E-011  0.5052886E+02  0.7816164E-02  0.1300439E+00
        -11   -1    0    0    0    0  0.00000000000E+00  0.00000000000E+00  0.45593999997E+02  0.45594000000E+02  0.51100000000E-03 0.  1.
         11   -1    0    0    0    0 -0.00000000000E+00 -0.00000000000E+00 -0.45593999997E+02  0.45594000000E+02  0.51100000000E-03 0. -1.
    9900012    2    1    2    0    0  0.39332711797E+02 -0.45989349317E+01 -0.92170012180E+01  0.50528861652E+02  0.30000005476E+02 0.  0.
        -12    1    1    2    0    0 -0.39332711797E+02  0.45989349317E+01  0.92170012180E+01  0.40659138348E+02  0.00000000000E+00 0.  1.
         11    1    3    3    0    0 -0.59100134637E+00 -0.71267147863E-01  0.25975832821E+01  0.26649204053E+01  0.51100000000E-03 0.  1.
        -11    1    3    3    0    0  0.33208436051E+02  0.61221059057E+01 -0.92974237362E+01  0.35024598414E+02  0.51100000000E-03 0. -1.
         12    1    3    3    0    0  0.67152770923E+01 -0.10649773690E+02 -0.25171607639E+01  0.12839342833E+02  0.00000000000E+00 0. -1.
</event>
<event>
 7    1  0.2835316E-011  0.5052884E+02  0.7816164E-02  0.1300439E+00
        -11   -1    0    0    0    0  0.00000000000E+00  0.00000000000E+00  0.45593999997E+02  0.45594000000E+02  0.51100000000E-03 0.  1.
         11   -1    0    0    0    0 -0.00000000000E+00 -0.00000000000E+00 -0.45593999997E+02  0.45594000000E+02  0.51100000000E-03 0. -1.
    9900012    2    1    2    0    0  0.99594674719E+01 -0.25389429472E+02 -0.30155486103E+02  0.50528837892E+02  0.29999933257E+02 0.  0.
        -12    1    1    2    0    0 -0.99594674719E+01  0.25389429472E+02  0.30155486103E+02  0.40659162108E+02  0.00000000000E+00 0.  1.
         11    1    3    3    0    0 -0.64970354662E+01 -0.14531059469E+02 -0.16169271458E+02  0.22689391770E+02  0.51100000000E-03 0. -1.
        -11    1    3    3    0    0  0.52713797149E+01 -0.37264823707E+01 -0.13027737549E+02  0.14539465632E+02  0.51100000000E-03 0.  1.
        -12    1    3    3    0    0  0.11185123223E+02 -0.71318876320E+01 -0.95847709653E+00  0.13299980491E+02  0.00000000000E+00 0.  1.
</event>
<event>
 7    1  0.2835316E-011  0.5052886E+02  0.7816164E-02  0.1300439E+00
        -11   -1    0    0    0    0  0.00000000000E+00  0.00000000000E+00  0.45593999997E+02  0.45594000000E+02  0.51100000000E-03 0. -1.
         11   -1    0    0    0    0 -0.00000000000E+00 -0.00000000000E+00 -0.45593999997E+02  0.45594000000E+02  0.51100000000E-03 0.  1.
    9900012    2    1    2    0    0  0.24129326113E+02 -0.31084787629E+02  0.10231195056E+02  0.50528858925E+02  0.29999997190E+02 0.  0.
        -12    1    1    2    0    0 -0.24129326113E+02  0.31084787629E+02 -0.10231195056E+02  0.40659141075E+02  0.00000000000E+00 0.  1.
         11    1    3    3    0    0  0.10158472305E+02  0.27900834621E+00 -0.36372663713E+01  0.10793614415E+02  0.51100000000E-03 0. -1.
        -11    1    3    3    0    0  0.11621540918E+02 -0.10450967137E+02  0.25372570436E+01  0.15834159308E+02  0.51100000000E-03 0.  1.
         12    1    3    3    0    0  0.23493128903E+01 -0.20912828839E+02  0.11331204384E+02  0.23901085203E+02  0.00000000000E+00 0. -1.
</event>
<event>
 7    1  0.2835316E-011  0.5052885E+02  0.7816164E-02  0.1300439E+00
        -11   -1    0    0    0    0  0.00000000000E+00  0.00000000000E+00  0.45593999997E+02  0.45594000000E+02  0.51100000000E-03 0.  1.
         11   -1    0    0    0    0 -0.00000000000E+00 -0.00000000000E+00 -0.45593999997E+02  0.45594000000E+02  0.51100000000E-03 0. -1.
    9900012    2    1    2    0    0  0.22393510488E+02 -0.33664912879E+02 -0.42861107454E+01  0.50528850766E+02  0.29999972388E+02 0.  0.
        -12    1    1    2    0    0 -0.22393510488E+02  0.33664912879E+02  0.42861107454E+01  0.40659149234E+02  0.00000000000E+00 0.  1.
         11    1    3    3    0    0  0.72274798684E+01 -0.18691014575E+01 -0.77559850162E+01  0.10765003917E+02  0.51100000000E-03 0. -1.
        -11    1    3    3    0    0 -0.10438000916E+01  0.57825859205E+00  0.33520872896E+01  0.35581443322E+01  0.51100000000E-03 0.  1.
        -12    1    3    3    0    0  0.16209830711E+02 -0.32374070014E+02  0.11778698121E+00  0.36205702516E+02  0.00000000000E+00 0.  1.
</event>
<event>
 7    1  0.2835316E-011  0.5052885E+02  0.7816164E-02  0.1300439E+00
        -11   -1    0    0    0    0  0.00000000000E+00  0.00000000000E+00  0.45593999997E+02  0.45594000000E+02  0.51100000000E-03 0.  1.
         11   -1    0    0    0    0 -0.00000000000E+00 -0.00000000000E+00 -0.45593999997E+02  0.45594000000E+02  0.51100000000E-03 0. -1.
    9900012    2    1    2    0    0 -0.44928564459E+01  0.37041957765E+02 -0.16151603321E+02  0.50528847476E+02  0.29999962388E+02 0.  0.
        -12    1    1    2    0    0  0.44928564459E+01 -0.37041957765E+02  0.16151603321E+02  0.40659152524E+02  0.00000000000E+00 0.  1.
         11    1    3    3    0    0 -0.57750098099E+01  0.38011119080E+02 -0.11915204590E+02  0.40251310696E+02  0.51100000000E-03 0. -1.
        -11    1    3    3    0    0 -0.45350746934E+00  0.19517026898E+01  0.22145858139E+01  0.29865034744E+01  0.51100000000E-03 0.  1.
        -12    1    3    3    0    0  0.17356608333E+01 -0.29208640051E+01 -0.64509845451E+01  0.72910333057E+01  0.00000000000E+00 0.  1.
</event>
<event>
 7    1  0.2835316E-011  0.5052888E+02  0.7816164E-02  0.1300439E+00
        -11   -1    0    0    0    0  0.00000000000E+00  0.00000000000E+00  0.45593999997E+02  0.45594000000E+02  0.51100000000E-03 0.  1.
         11   -1    0    0    0    0 -0.00000000000E+00 -0.00000000000E+00 -0.45593999997E+02  0.45594000000E+02  0.51100000000E-03 0. -1.
    9900012    2    1    2    0    0 -0.12758037163E+02 -0.17162020383E+02 -0.34581232934E+02  0.50528878919E+02  0.30000057961E+02 0.  0.
        -12    1    1    2    0    0  0.12758037163E+02  0.17162020383E+02  0.34581232934E+02  0.40659121081E+02  0.00000000000E+00 0.  1.
         11    1    3    3    0    0  0.33042042615E+01  0.24757713198E+00 -0.44634849529E+01  0.55589350081E+01  0.51100000000E-03 0. -1.
        -11    1    3    3    0    0 -0.21934833302E+01 -0.71496970141E+01  0.26534404092E+01  0.79353817035E+01  0.51100000000E-03 0.  1.
         12    1    3    3    0    0 -0.13868758095E+02 -0.10259900501E+02 -0.32771188390E+02  0.37034562207E+02  0.00000000000E+00 0. -1.
</event>
<event>
 7    1  0.2835316E-011  0.5052886E+02  0.7816164E-02  0.1300439E+00
        -11   -1    0    0    0    0  0.00000000000E+00  0.00000000000E+00  0.45593999997E+02  0.45594000000E+02  0.51100000000E-03 0.  1.
         11   -1    0    0    0    0 -0.00000000000E+00 -0.00000000000E+00 -0.45593999997E+02  0.45594000000E+02  0.51100000000E-03 0. -1.
    9900012    2    1    2    0    0 -0.30159777906E+02 -0.24846485122E+02 -0.11234137157E+02  0.50528857560E+02  0.29999993039E+02 0.  0.
        -12    1    1    2    0    0  0.30159777906E+02  0.24846485122E+02  0.11234137157E+02  0.40659142440E+02  0.00000000000E+00 0.  1.
         11    1    3    3    0    0 -0.65278320889E+01 -0.87279791603E+01 -0.31934905516E+01  0.11357314567E+02  0.51100000000E-03 0.  1.
        -11    1    3    3    0    0  0.32107862898E+01 -0.74132088777E+01 -0.73841180582E+01  0.10944862458E+02  0.51100000000E-03 0. -1.
        -12    1    3    3    0    0 -0.26842732107E+02 -0.87052970842E+01 -0.65652854767E+00  0.28226680535E+02  0.00000000000E+00 0.  1.
</event>
<event>
 7    1  0.2835316E-011  0.5052884E+02  0.7816164E-02  0.1300439E+00
        -11   -1    0    0    0    0  0.00000000000E+00  0.00000000000E+00  0.45593999997E+02  0.45594000000E+02  0.51100000000E-03 0.  1.
         11   -1    0    0    0    0 -0.00000000000E+00 -0.00000000000E+00 -0.45593999997E+02  0.45594000000E+02  0.51100000000E-03 0. -1.
    9900012    2    1    2    0    0 -0.12714257441E+02  0.30527896237E+02 -0.23655077078E+02  0.50528837902E+02  0.29999933287E+02 0.  0.
        -12    1    1    2    0    0  0.12714257441E+02 -0.30527896237E+02  0.23655077078E+02  0.40659162098E+02  0.00000000000E+00 0.  1.
         11    1    3    3    0    0  0.10598658145E+01  0.54652178232E+00  0.22563212839E+01  0.25520555638E+01  0.51100000000E-03 0.  1.
        -11    1    3    3    0    0 -0.14062282660E+02  0.54219207849E+01 -0.55075471956E+01  0.16046123986E+02  0.51100000000E-03 0. -1.
        -12    1    3    3    0    0  0.28815940446E+00  0.24559453670E+02 -0.20403851166E+02  0.31930658352E+02  0.00000000000E+00 0.  1.
</event>
<event>
 7    1  0.2835316E-011  0.5052888E+02  0.7816164E-02  0.1300439E+00
        -11   -1    0    0    0    0  0.00000000000E+00  0.00000000000E+00  0.45593999997E+02  0.45594000000E+02  0.51100000000E-03 0.  1.
         11   -1    0    0    0    0 -0.00000000000E+00 -0.00000000000E+00 -0.45593999997E+02  0.45594000000E+02  0.51100000000E-03 0. -1.
    9900012    2    1    2    0    0 -0.23311234212E+02 -0.33311340137E+02  0.32440852160E+00  0.50528877246E+02  0.30000052877E+02 0.  0.
        -12    1    1    2    0    0  0.23311234212E+02  0.33311340137E+02 -0.32440852160E+00  0.40659122754E+02  0.00000000000E+00 0.  1.
         11    1    3    3    0    0 -0.12777341199E+02 -0.11147086574E+02  0.51563291538E+01  0.17723027896E+02  0.51100000000E-03 0.  1.
        -11    1    3    3    0    0 -0.15448492538E+02 -0.22721357609E+02 -0.45667664952E+01  0.27852672579E+02  0.51100000000E-03 0. -1.
         12    1    3    3    0    0  0.49145995250E+01  0.55710404555E+00 -0.26515413701E+00  0.49531767711E+01  0.00000000000E+00 0. -1.
</event>
<event>
 7    1  0.2835316E-011  0.5052886E+02  0.7816164E-02  0.1300439E+00
        -11   -1    0    0    0    0  0.00000000000E+00  0.00000000000E+00  0.45593999997E+02  0.45594000000E+02  0.51100000000E-03 0. -1.
         11   -1    0    0    0    0 -0.00000000000E+00 -0.00000000000E+00 -0.45593999997E+02  0.45594000000E+02  0.51100000000E-03 0.  1.
    9900012    2    1    2    0    0 -0.18125897774E+01  0.23864674416E+02  0.32868787852E+02  0.50528863493E+02  0.30000011072E+02 0.  0.
        -12    1    1    2    0    0  0.18125897774E+01 -0.23864674416E+02 -0.32868787852E+02  0.40659136507E+02  0.00000000000E+00 0.  1.
         11    1    3    3    0    0  0.33200331040E+01 -0.34913748126E+01  0.11279000347E+01  0.49481791239E+01  0.51100000000E-03 0.  1.
        -11    1    3    3    0    0 -0.15002928166E+01 -0.22333296404E+01  0.42412716453E+01  0.50226512171E+01  0.51100000000E-03 0. -1.
        -12    1    3    3    0    0 -0.36323300648E+01  0.29589378869E+02  0.27499616172E+02  0.40558033152E+02  0.00000000000E+00 0.  1.
</event>
<event>
 7    1  0.2835316E-011  0.5052886E+02  0.7816164E-02  0.1300439E+00
        -11   -1    0    0    0    0  0.00000000000E+00  0.00000000000E+00  0.45593999997E+02  0.45594000000E+02  0.51100000000E-03 0. -1.
         11   -1    0    0    0    0 -0.00000000000E+00 -0.00000000000E+00 -0.45593999997E+02  0.45594000000E+02  0.51100000000E-03 0.  1.
    9900012    2    1    2    0    0 -0.39148801763E+02 -0.69941684502E+01  0.84627571965E+01  0.50528864112E+02  0.30000012956E+02 0.  0.
        -12    1    1    2    0    0  0.39148801763E+02  0.69941684502E+01 -0.84627571965E+01  0.40659135888E+02  0.00000000000E+00 0.  1.
         11    1    3    3    0    0 -0.14119404369E+02 -0.68719930819E+00  0.73285148585E+01  0.15922843745E+02  0.51100000000E-03 0. -1.
        -11    1    3    3    0    0 -0.17989102917E+02 -0.14478251506E+02  0.40240113404E+01  0.23439715399E+02  0.51100000000E-03 0.  1.
        -12    1    3    3    0    0 -0.70402944761E+01  0.81712823636E+01 -0.28897690024E+01  0.11166304969E+02  0.00000000000E+00 0.  1.
</event>
<event>
 7    1  0.2835316E-011  0.5052886E+02  0.7816164E-02  0.1300439E+00
        -11   -1    0    0    0    0  0.00000000000E+00  0.00000000000E+00  0.45593999997E+02  0.45594000000E+02  0.51100000000E-03 0.  1.
         11   -1    0    0    0    0 -0.00000000000E+00 -0.00000000000E+00 -0.45593999997E+02  0.45594000000E+02  0.51100000000E-03 0. -1.
    9900012    2    1    2    0    0 -0.39365821627E+02 -0.82681428404E+01 -0.59275216795E+01  0.50528860662E+02  0.30000002469E+02 0.  0.
        -12    1    1    2    0    0  0.39365821627E+02  0.82681428404E+01  0.59275216795E+01  0.40659139338E+02  0.00000000000E+00 0.  1.
         11    1    3    3    0    0 -0.14347603795E+02 -0.89942614097E+01  0.51139215926E+01  0.17689055014E+02  0.51100000000E-03 0. -1.
        -11    1    3    3    0    0 -0.35075828331E+01  0.71873081518E+01 -0.45669246412E+00  0.80105620319E+01  0.51100000000E-03 0.  1.
         12    1    3    3    0    0 -0.21510634999E+02 -0.64611895824E+01 -0.10584750808E+02  0.24829243616E+02  0.00000000000E+00 0. -1.
</event>
<event>
 7    1  0.2835316E-011  0.5052887E+02  0.7816164E-02  0.1300439E+00
        -11   -1    0    0    0    0  0.00000000000E+00  0.00000000000E+00  0.45593999997E+02  0.45594000000E+02  0.51100000000E-03 0.  1.
         11   -1    0    0    0    0 -0.00000000000E+00 -0.00000000000E+00 -0.45593999997E+02  0.45594000000E+02  0.51100000000E-03 0. -1.
    9900012    2    1    2    0    0 -0.33310802767E+02 -0.10376896885E+02  0.20877624897E+02  0.50528870751E+02  0.30000033134E+02 0.  0.
        -12    1    1    2    0    0  0.33310802767E+02  0.10376896885E+02 -0.20877624897E+02  0.40659129249E+02  0.00000000000E+00 0.  1.
         11    1    3    3    0    0 -0.98992045827E+01 -0.18623309350E+01 -0.36560308307E+00  0.10079493725E+02  0.51100000000E-03 0. -1.
        -11    1    3    3    0    0  0.86739137494E+00  0.52504406735E+01 -0.86701845951E-01  0.53223127055E+01  0.51100000000E-03 0.  1.
        -12    1    3    3    0    0 -0.24278989559E+02 -0.13765006623E+02  0.21329929826E+02  0.35127064320E+02  0.00000000000E+00 0.  1.
</event>
<event>
 7    1  0.2835316E-011  0.5052885E+02  0.7816164E-02  0.1300439E+00
        -11   -1    0    0    0    0  0.00000000000E+00  0.00000000000E+00  0.45593999997E+02  0.45594000000E+02  0.51100000000E-03 0.  1.
         11   -1    0    0    0    0 -0.00000000000E+00 -0.00000000000E+00 -0.45593999997E+02  0.45594000000E+02  0.51100000000E-03 0. -1.
    9900012    2    1    2    0    0 -0.33947069617E+02 -0.14095286416E+01 -0.22333290047E+02  0.50528854032E+02  0.29999982315E+02 0.  0.
        -12    1    1    2    0    0  0.33947069617E+02  0.14095286416E+01  0.22333290047E+02  0.40659145968E+02  0.00000000000E+00 0.  1.
         11    1    3    3    0    0 -0.67451961769E+01 -0.64805304513E+01 -0.83068885420E+01  0.12509969780E+02  0.51100000000E-03 0. -1.
        -11    1    3    3    0    0  0.28560168739E-01  0.43108184743E+01 -0.94624458454E+01  0.10398165859E+02  0.51100000000E-03 0.  1.
        -12    1    3    3    0    0 -0.27230433609E+02  0.76018333551E+00 -0.45639556593E+01  0.27620718392E+02  0.00000000000E+00 0.  1.
</event>
<event>
 7    1  0.2835316E-011  0.5052885E+02  0.7816164E-02  0.1300439E+00
        -11   -1    0    0    0    0  0.00000000000E+00  0.00000000000E+00  0.45593999997E+02  0.45594000000E+02  0.51100000000E-03 0.  1.
         11   -1    0    0    0    0 -0.00000000000E+00 -0.00000000000E+00 -0.45593999997E+02  0.45594000000E+02  0.51100000000E-03 0. -1.
    9900012    2    1    2    0    0 -0.13685153455E+02  0.37117187730E+02 -0.93913279358E+01  0.50528854774E+02  0.29999984572E+02 0.  0.
        -12    1    1    2    0    0  0.13685153455E+02 -0.37117187730E+02  0.93913279358E+01  0.40659145226E+02  0.00000000000E+00 0.  1.
         11    1    3    3    0    0 -0.12980149154E+02  0.20244646925E+02 -0.95297361022E+01  0.25867854020E+02  0.51100000000E-03 0. -1.
        -11    1    3    3    0    0  0.13263648817E+01  0.89020590694E+01 -0.87486703262E+01  0.12551698380E+02  0.51100000000E-03 0.  1.
        -12    1    3    3    0    0 -0.20313691830E+01  0.79704817357E+01  0.88870784926E+01  0.12109302374E+02  0.00000000000E+00 0.  1.
</event>
<event>
 7    1  0.2835316E-011  0.5052887E+02  0.7816164E-02  0.1300439E+00
        -11   -1    0    0    0    0  0.00000000000E+00  0.00000000000E+00  0.45593999997E+02  0.45594000000E+02  0.51100000000E-03 0.  1.
         11   -1    0    0    0    0 -0.00000000000E+00 -0.00000000000E+00 -0.45593999997E+02  0.45594000000E+02  0.51100000000E-03 0. -1.
    9900012    2    1    2    0    0  0.19515468090E+02 -0.34514570576E+02 -0.90031071617E+01  0.50528867995E+02  0.30000024758E+02 0.  0.
        -12    1    1    2    0    0 -0.19515468090E+02  0.34514570576E+02  0.90031071617E+01  0.40659132005E+02  0.00000000000E+00 0.  1.
         11    1    3    3    0    0  0.10213646655E+02 -0.29666457753E+02 -0.66226927119E+01  0.32066763987E+02  0.51100000000E-03 0. -1.
        -11    1    3    3    0    0 -0.62084155824E+00 -0.17633676802E+01 -0.68867205790E+01  0.71359533638E+01  0.51100000000E-03 0.  1.
        -12    1    3    3    0    0  0.99226629938E+01 -0.30847451426E+01  0.45063061292E+01  0.11326150644E+02  0.00000000000E+00 0.  1.
</event>
<event>
 7    1  0.2835316E-011  0.5052885E+02  0.7816164E-02  0.1300439E+00
        -11   -1    0    0    0    0  0.00000000000E+00  0.00000000000E+00  0.45593999997E+02  0.45594000000E+02  0.51100000000E-03 0. -1.
         11   -1    0    0    0    0 -0.00000000000E+00 -0.00000000000E+00 -0.45593999997E+02  0.45594000000E+02  0.51100000000E-03 0.  1.
    9900012    2    1    2    0    0 -0.12124176100E+02 -0.15848708833E+02  0.35425826975E+02  0.50528850542E+02  0.29999971708E+02 0.  0.
        -12    1    1    2    0    0  0.12124176100E+02  0.15848708833E+02 -0.35425826975E+02  0.40659149458E+02  0.00000000000E+00 0.  1.
         11    1    3    3    0    0  0.15636462300E+01 -0.18027205832E+01  0.19055836162E+02  0.19204678678E+02  0.51100000000E-03 0. -1.
        -11    1    3    3    0    0 -0.15982682887E+02 -0.49877865533E+01  0.13621378575E+02  0.21583932022E+02  0.51100000000E-03 0.  1.
        -12    1    3    3    0    0  0.22948605575E+01 -0.90582016963E+01  0.27486122383E+01  0.97402398423E+01  0.00000000000E+00 0.  1.
</event>
<event>
 7    1  0.2835316E-011  0.5052886E+02  0.7816164E-02  0.1300439E+00
        -11   -1    0    0    0    0  0.00000000000E+00  0.00000000000E+00  0.45593999997E+02  0.45594000000E+02  0.51100000000E-03 0.  1.
         11   -1    0    0    0    0 -0.00000000000E+00 -0.00000000000E+00 -0.45593999997E+02  0.45594000000E+02  0.51100000000E-03 0. -1.
    9900012    2    1    2    0    0 -0.15782907732E+02  0.36428850763E+02 -0.87752104318E+01  0.50528860037E+02  0.30000000570E+02 0.  0.
        -12    1    1    2    0    0  0.15782907732E+02 -0.36428850763E+02  0.87752104318E+01  0.40659139963E+02  0.00000000000E+00 0.  1.
         11    1    3    3    0    0  0.39467308193E+01  0.65080499572E+00 -0.28941144312E+01  0.49372188431E+01  0.51100000000E-03 0. -1.
        -11    1    3    3    0    0 -0.99194225170E+01  0.34803700217E+01 -0.54346315872E+01  0.11833982394E+02  0.51100000000E-03 0.  1.
         12    1    3    3    0    0 -0.98102160341E+01  0.32297675745E+02 -0.44646441336E+00  0.33757658800E+02  0.00000000000E+00 0. -1.
</event>
<event>
 7    1  0.2835316E-011  0.5052886E+02  0.7816164E-02  0.1300439E+00
        -11   -1    0    0    0    0  0.00000000000E+00  0.00000000000E+00  0.45593999997E+02  0.45594000000E+02  0.51100000000E-03 0. -1.
         11   -1    0    0    0    0 -0.00000000000E+00 -0.00000000000E+00 -0.45593999997E+02  0.45594000000E+02  0.51100000000E-03 0.  1.
    9900012    2    1    2    0    0 -0.17673465192E+02  0.24473713044E+02 -0.27236955578E+02  0.50528858946E+02  0.29999997253E+02 0.  0.
        -12    1    1    2    0    0  0.17673465192E+02 -0.24473713044E+02  0.27236955578E+02  0.40659141054E+02  0.00000000000E+00 0.  1.
         11    1    3    3    0    0 -0.14994261343E+02  0.91715606840E+01 -0.90929351141E+01  0.19789564620E+02  0.51100000000E-03 0. -1.
        -11    1    3    3    0    0 -0.29624999353E+01  0.64417059498E+01 -0.20395577563E+02  0.21592859139E+02  0.51100000000E-03 0.  1.
         12    1    3    3    0    0  0.28329608635E+00  0.88604464102E+01  0.22515570987E+01  0.91464351870E+01  0.00000000000E+00 0. -1.
</event>
<event>
 7    1  0.2835316E-011  0.5052888E+02  0.7816164E-02  0.1300439E+00
        -11   -1    0    0    0    0  0.00000000000E+00  0.00000000000E+00  0.45593999997E+02  0.45594000000E+02  0.51100000000E-03 0.  1.
         11   -1    0    0    0    0 -0.00000000000E+00 -0.00000000000E+00 -0.45593999997E+02  0.45594000000E+02  0.51100000000E-03 0. -1.
    9900012    2    1    2    0    0  0.36277189774E+02  0.93575405924E+01 -0.15797668005E+02  0.50528875830E+02  0.30000048573E+02 0.  0.
        -12    1    1    2    0    0 -0.36277189774E+02 -0.93575405924E+01  0.15797668005E+02  0.40659124170E+02  0.00000000000E+00 0.  1.
         11    1    3    3    0    0  0.96785154384E+01  0.12699692389E+01  0.40340726939E+01  0.10562207426E+02  0.51100000000E-03 0.  1.
        -11    1    3    3    0    0  0.24684435783E+01  0.40074645148E+00 -0.13678021404E+02  0.13904750311E+02  0.51100000000E-03 0. -1.
         12    1    3    3    0    0  0.24130230758E+02  0.76868249020E+01 -0.61537192951E+01  0.26061918092E+02  0.00000000000E+00 0. -1.
</event>
<event>
 7    1  0.2835316E-011  0.5052886E+02  0.7816164E-02  0.1300439E+00
        -11   -1    0    0    0    0  0.00000000000E+00  0.00000000000E+00  0.45593999997E+02  0.45594000000E+02  0.51100000000E-03 0. -1.
         11   -1    0    0    0    0 -0.00000000000E+00 -0.00000000000E+00 -0.45593999997E+02  0.45594000000E+02  0.51100000000E-03 0.  1.
    9900012    2    1    2    0    0 -0.12895926222E+01 -0.17839378690E+01  0.40599505053E+02  0.50528864569E+02  0.30000014345E+02 0.  0.
        -12    1    1    2    0    0  0.12895926222E+01  0.17839378690E+01 -0.40599505053E+02  0.40659135431E+02  0.00000000000E+00 0.  1.
         11    1    3    3    0    0 -0.31692723930E+01  0.38302955378E+01  0.25522037012E+02  0.26001727345E+02  0.51100000000E-03 0. -1.
        -11    1    3    3    0    0 -0.47158092618E+01 -0.79023494217E+01  0.14937459353E+02  0.17544619561E+02  0.51100000000E-03 0.  1.
         12    1    3    3    0    0  0.65954890326E+01  0.22881160149E+01  0.14000868730E+00  0.69825176627E+01  0.00000000000E+00 0. -1.
</event>
<event>
 7    1  0.2835316E-011  0.5052885E+02  0.7816164E-02  0.1300439E+00
        -11   -1    0    0    0    0  0.00000000000E+00  0.00000000000E+00  0.45593999997E+02  0.45594000000E+02  0.51100000000E-03 0.  1.
         11   -1    0    0    0    0 -0.00000000000E+00 -0.00000000000E+00 -0.45593999997E+02  0.45594000000E+02  0.51100000000E-03 0. -1.
    9900012    2    1    2    0    0 -0.97097813829E+01  0.35884710606E+02  0.16467362766E+02  0.50528851630E+02  0.29999975013E+02 0.  0.
        -12    1    1    2    0    0  0.97097813829E+01 -0.35884710606E+02 -0.16467362766E+02  0.40659148370E+02  0.00000000000E+00 0.  1.
         11    1    3    3    0    0 -0.63235203652E+01  0.26039881014E+02  0.86662712144E+00  0.26810694804E+02  0.51100000000E-03 0. -1.
        -11    1    3    3    0    0  0.54209029598E+01  0.61726673528E+01  0.59254515286E+01  0.10129115817E+02  0.51100000000E-03 0.  1.
         12    1    3    3    0    0 -0.88071639775E+01  0.36721622391E+01  0.96752841156E+01  0.13589041009E+02  0.00000000000E+00 0. -1.
</event>
<event>
 7    1  0.2835316E-011  0.5052885E+02  0.7816164E-02  0.1300439E+00
        -11   -1    0    0    0    0  0.00000000000E+00  0.00000000000E+00  0.45593999997E+02  0.45594000000E+02  0.51100000000E-03 0.  1.
         11   -1    0    0    0    0 -0.00000000000E+00 -0.00000000000E+00 -0.45593999997E+02  0.45594000000E+02  0.51100000000E-03 0. -1.
    9900012    2    1    2    0    0  0.33221026910E+01  0.12185392207E+01 -0.40504876802E+02  0.50528852827E+02  0.29999978652E+02 0.  0.
        -12    1    1    2    0    0 -0.33221026910E+01 -0.12185392207E+01  0.40504876802E+02  0.40659147173E+02  0.00000000000E+00 0.  1.
         11    1    3    3    0    0  0.43375700325E+01 -0.39118451118E+00 -0.65836953358E-01  0.43556714607E+01  0.51100000000E-03 0. -1.
        -11    1    3    3    0    0 -0.63330285878E+01  0.30537653743E+01 -0.19562668618E+01  0.72979253457E+01  0.51100000000E-03 0.  1.
         12    1    3    3    0    0  0.53175612464E+01 -0.14440416425E+01 -0.38482772987E+02  0.38875256020E+02  0.00000000000E+00 0. -1.
</event>
<event>
 7    1  0.2835316E-011  0.5052886E+02  0.7816164E-02  0.1300439E+00
        -11   -1    0    0    0    0  0.00000000000E+00  0.00000000000E+00  0.45593999997E+02  0.45594000000E+02  0.51100000000E-03 0.  1.
         11   -1    0    0    0    0 -0.00000000000E+00 -0.00000000000E+00 -0.45593999997E+02  0.45594000000E+02  0.51100000000E-03 0. -1.
    9900012    2    1    2    0    0  0.35861096007E+02 -0.18626354891E+02  0.44951245265E+01  0.50528862677E+02  0.30000008592E+02 0.  0.
        -12    1    1    2    0    0 -0.35861096007E+02  0.18626354891E+02 -0.44951245265E+01  0.40659137323E+02  0.00000000000E+00 0.  1.
         11    1    3    3    0    0  0.23017731997E+02 -0.33230809521E+01 -0.34058368615E+01  0.23504437417E+02  0.51100000000E-03 0. -1.
        -11    1    3    3    0    0  0.14750682246E+02 -0.13906489080E+02  0.16478339812E+01  0.20339331905E+02  0.51100000000E-03 0.  1.
        -12    1    3    3    0    0 -0.19073182359E+01 -0.13967848590E+01  0.62531274069E+01  0.66850933548E+01  0.00000000000E+00 0.  1.
</event>
<event>
 7    1  0.2835316E-011  0.5052887E+02  0.7816164E-02  0.1300439E+00
        -11   -1    0    0    0    0  0.00000000000E+00  0.00000000000E+00  0.45593999997E+02  0.45594000000E+02  0.51100000000E-03 0.  1.
         11   -1    0    0    0    0 -0.00000000000E+00 -0.00000000000E+00 -0.45593999997E+02  0.45594000000E+02  0.51100000000E-03 0. -1.
    9900012    2    1    2    0    0  0.27203473188E+02 -0.20092831186E+02 -0.22570199877E+02  0.50528871369E+02  0.30000035013E+02 0.  0.
        -12    1    1    2    0    0 -0.27203473188E+02  0.20092831186E+02  0.22570199877E+02  0.40659128631E+02  0.00000000000E+00 0.  1.
         11    1    3    3    0    0 -0.61313072878E+00  0.35743001584E+01 -0.85919214964E+01  0.93259136911E+01  0.51100000000E-03 0. -1.
        -11    1    3    3    0    0  0.90918486243E+01 -0.23305875939E+01  0.37415285060E+00  0.93932603795E+01  0.51100000000E-03 0.  1.
         12    1    3    3    0    0  0.18724755292E+02 -0.21336543750E+02 -0.14352431231E+02  0.31809697298E+02  0.00000000000E+00 0. -1.
</event>
<event>
 7    1  0.2835316E-011  0.5052885E+02  0.7816164E-02  0.1300439E+00
        -11   -1    0    0    0    0  0.00000000000E+00  0.00000000000E+00  0.45593999997E+02  0.45594000000E+02  0.51100000000E-03 0. -1.
         11   -1    0    0    0    0 -0.00000000000E+00 -0.00000000000E+00 -0.45593999997E+02  0.45594000000E+02  0.51100000000E-03 0.  1.
    9900012    2    1    2    0    0  0.18690859077E+02 -0.13227028489E+02  0.33598566364E+02  0.50528853951E+02  0.29999982070E+02 0.  0.
        -12    1    1    2    0    0 -0.18690859077E+02  0.13227028489E+02 -0.33598566364E+02  0.40659146049E+02  0.00000000000E+00 0.  1.
         11    1    3    3    0    0  0.68010426079E+01 -0.23122848704E+01  0.19621446466E+02  0.20895023416E+02  0.51100000000E-03 0. -1.
        -11    1    3    3    0    0  0.80812565434E+01 -0.13920430183E+02  0.17394606989E+02  0.23699312994E+02  0.51100000000E-03 0.  1.
        -12    1    3    3    0    0  0.38085599262E+01  0.30056865644E+01 -0.34174870909E+01  0.59345175416E+01  0.00000000000E+00 0.  1.
</event>
<event>
 7    1  0.2835316E-011  0.5052888E+02  0.7816164E-02  0.1300439E+00
        -11   -1    0    0    0    0  0.00000000000E+00  0.00000000000E+00  0.45593999997E+02  0.45594000000E+02  0.51100000000E-03 0. -1.
         11   -1    0    0    0    0 -0.00000000000E+00 -0.00000000000E+00 -0.45593999997E+02  0.45594000000E+02  0.51100000000E-03 0.  1.
    9900012    2    1    2    0    0  0.34895431537E+02 -0.13434348749E+02  0.15968454151E+02  0.50528875607E+02  0.30000047894E+02 0.  0.
        -12    1    1    2    0    0 -0.34895431537E+02  0.13434348749E+02 -0.15968454151E+02  0.40659124393E+02  0.00000000000E+00 0.  1.
         11    1    3    3    0    0  0.28403415146E+02 -0.13151162162E+02  0.15174842080E+02  0.34784808330E+02  0.51100000000E-03 0. -1.
        -11    1    3    3    0    0 -0.35521831162E+01 -0.20167064917E+01 -0.27823026133E+01  0.49422988637E+01  0.51100000000E-03 0.  1.
         12    1    3    3    0    0  0.10044199508E+02  0.17335199052E+01  0.35759146847E+01  0.10801768413E+02  0.00000000000E+00 0. -1.
</event>
<event>
 7    1  0.2835316E-011  0.5052886E+02  0.7816164E-02  0.1300439E+00
        -11   -1    0    0    0    0  0.00000000000E+00  0.00000000000E+00  0.45593999997E+02  0.45594000000E+02  0.51100000000E-03 0.  1.
         11   -1    0    0    0    0 -0.00000000000E+00 -0.00000000000E+00 -0.45593999997E+02  0.45594000000E+02  0.51100000000E-03 0. -1.
    9900012    2    1    2    0    0  0.24680225080E+02  0.30735695121E+02  0.99684079963E+01  0.50528860529E+02  0.30000002063E+02 0.  0.
        -12    1    1    2    0    0 -0.24680225080E+02 -0.30735695121E+02 -0.99684079963E+01  0.40659139471E+02  0.00000000000E+00 0.  1.
         11    1    3    3    0    0  0.42152154660E+01  0.11930846464E+02  0.50085529112E+01  0.13608774423E+02  0.51100000000E-03 0. -1.
        -11    1    3    3    0    0  0.62576120274E+01  0.37387610986E+01  0.12838515294E+02  0.14763587574E+02  0.51100000000E-03 0.  1.
        -12    1    3    3    0    0  0.14207397586E+02  0.15066087558E+02 -0.78786602091E+01  0.22156498532E+02  0.00000000000E+00 0.  1.
</event>
<event>
 7    1  0.2835316E-011  0.5052886E+02  0.7816164E-02  0.1300439E+00
        -11   -1    0    0    0    0  0.00000000000E+00  0.00000000000E+00  0.45593999997E+02  0.45594000000E+02  0.51100000000E-03 0.  1.
         11   -1    0    0    0    0 -0.00000000000E+00 -0.00000000000E+00 -0.45593999997E+02  0.45594000000E+02  0.51100000000E-03 0. -1.
    9900012    2    1    2    0    0  0.38901856008E+02 -0.11573692091E+02 -0.24209452453E+01  0.50528859265E+02  0.29999998221E+02 0.  0.
        -12    1    1    2    0    0 -0.38901856008E+02  0.11573692091E+02  0.24209452453E+01  0.40659140735E+02  0.00000000000E+00 0.  1.
         11    1    3    3    0    0  0.12328671936E+02 -0.82165232234E+01  0.93436218666E+01  0.17516011973E+02  0.51100000000E-03 0. -1.
        -11    1    3    3    0    0  0.19501644371E+02  0.17568100177E+01 -0.16443640258E+01  0.19649540655E+02  0.51100000000E-03 0.  1.
         12    1    3    3    0    0  0.70715397001E+01 -0.51139788857E+01 -0.10120203086E+02  0.13363306637E+02  0.00000000000E+00 0. -1.
</event>
<event>
 7    1  0.2835316E-011  0.5052884E+02  0.7816164E-02  0.1300439E+00
        -11   -1    0    0    0    0  0.00000000000E+00  0.00000000000E+00  0.45593999997E+02  0.45594000000E+02  0.51100000000E-03 0.  1.
         11   -1    0    0    0    0 -0.00000000000E+00 -0.00000000000E+00 -0.45593999997E+02  0.45594000000E+02  0.51100000000E-03 0. -1.
    9900012    2    1    2    0    0 -0.84296185642E+00 -0.11213709187E+02 -0.39073125287E+02  0.50528843859E+02  0.29999951395E+02 0.  0.
        -12    1    1    2    0    0  0.84296185642E+00  0.11213709187E+02  0.39073125287E+02  0.40659156141E+02  0.00000000000E+00 0.  1.
         11    1    3    3    0    0  0.10772061277E+02 -0.91320053594E+01 -0.11685761330E+02  0.18329971199E+02  0.51100000000E-03 0. -1.
        -11    1    3    3    0    0 -0.67034464812E+01 -0.36261365256E+01 -0.25660399779E+02  0.26768286794E+02  0.51100000000E-03 0.  1.
        -12    1    3    3    0    0 -0.49115766526E+01  0.15444326984E+01 -0.17269641779E+01  0.54305858658E+01  0.00000000000E+00 0.  1.
</event>
<event>
 7    1  0.2835316E-011  0.5052885E+02  0.7816164E-02  0.1300439E+00
        -11   -1    0    0    0    0  0.00000000000E+00  0.00000000000E+00  0.45593999997E+02  0.45594000000E+02  0.51100000000E-03 0.  1.
         11   -1    0    0    0    0 -0.00000000000E+00 -0.00000000000E+00 -0.45593999997E+02  0.45594000000E+02  0.51100000000E-03 0. -1.
    9900012    2    1    2    0    0  0.31292235028E+02 -0.24517184449E+02 -0.85363905171E+01  0.50528852574E+02  0.29999977885E+02 0.  0.
        -12    1    1    2    0    0 -0.31292235028E+02  0.24517184449E+02  0.85363905171E+01  0.40659147426E+02  0.00000000000E+00 0.  1.
         11    1    3    3    0    0  0.10383331180E+02 -0.75069534074E+00 -0.37716737527E+00  0.10417262854E+02  0.51100000000E-03 0. -1.
        -11    1    3    3    0    0  0.94147563469E+01 -0.61013655366E+01 -0.14285128838E+02  0.18163953443E+02  0.51100000000E-03 0.  1.
         12    1    3    3    0    0  0.11494147501E+02 -0.17665123571E+02  0.61259056966E+01  0.21947636277E+02  0.00000000000E+00 0. -1.
</event>
<event>
 7    1  0.2835316E-011  0.5052884E+02  0.7816164E-02  0.1300439E+00
        -11   -1    0    0    0    0  0.00000000000E+00  0.00000000000E+00  0.45593999997E+02  0.45594000000E+02  0.51100000000E-03 0. -1.
         11   -1    0    0    0    0 -0.00000000000E+00 -0.00000000000E+00 -0.45593999997E+02  0.45594000000E+02  0.51100000000E-03 0.  1.
    9900012    2    1    2    0    0  0.15505707255E+02 -0.17751942169E+02  0.33130174931E+02  0.50528844830E+02  0.29999954344E+02 0.  0.
        -12    1    1    2    0    0 -0.15505707255E+02  0.17751942169E+02 -0.33130174931E+02  0.40659155170E+02  0.00000000000E+00 0.  1.
         11    1    3    3    0    0  0.12089595910E+01 -0.11897500709E+02  0.23369595092E+02  0.26251668165E+02  0.51100000000E-03 0. -1.
        -11    1    3    3    0    0  0.42920772415E+01  0.22583869840E+01  0.10300516567E+02  0.11385204461E+02  0.51100000000E-03 0.  1.
        -12    1    3    3    0    0  0.10004670423E+02 -0.81128284435E+01 -0.53993672849E+00  0.12891972203E+02  0.00000000000E+00 0.  1.
</event>
<event>
 7    1  0.2835316E-011  0.5052885E+02  0.7816164E-02  0.1300439E+00
        -11   -1    0    0    0    0  0.00000000000E+00  0.00000000000E+00  0.45593999997E+02  0.45594000000E+02  0.51100000000E-03 0.  1.
         11   -1    0    0    0    0 -0.00000000000E+00 -0.00000000000E+00 -0.45593999997E+02  0.45594000000E+02  0.51100000000E-03 0. -1.
    9900012    2    1    2    0    0  0.26787571302E+01 -0.29833011368E+02 -0.27495130099E+02  0.50528849908E+02  0.29999969780E+02 0.  0.
        -12    1    1    2    0    0 -0.26787571302E+01  0.29833011368E+02  0.27495130099E+02  0.40659150092E+02  0.00000000000E+00 0.  1.
         11    1    3    3    0    0 -0.21488948953E+01 -0.35424512651E+01 -0.19579566941E+02  0.20013149479E+02  0.51100000000E-03 0. -1.
        -11    1    3    3    0    0 -0.27760402551E+01 -0.19523451968E+01 -0.30382219411E+01  0.45550899102E+01  0.51100000000E-03 0.  1.
        -12    1    3    3    0    0  0.76036922806E+01 -0.24338214907E+02 -0.48773412168E+01  0.25960610518E+02  0.00000000000E+00 0.  1.
</event>
<event>
 7    1  0.2835316E-011  0.5052886E+02  0.7816164E-02  0.1300439E+00
        -11   -1    0    0    0    0  0.00000000000E+00  0.00000000000E+00  0.45593999997E+02  0.45594000000E+02  0.51100000000E-03 0. -1.
         11   -1    0    0    0    0 -0.00000000000E+00 -0.00000000000E+00 -0.45593999997E+02  0.45594000000E+02  0.51100000000E-03 0.  1.
    9900012    2    1    2    0    0  0.28518930791E+02 -0.25408040453E+02 -0.13937990636E+02  0.50528861838E+02  0.30000006042E+02 0.  0.
        -12    1    1    2    0    0 -0.28518930791E+02  0.25408040453E+02  0.13937990636E+02  0.40659138162E+02  0.00000000000E+00 0.  1.
         11    1    3    3    0    0  0.18407468996E+02 -0.20769608140E+01  0.58776406458E+00  0.18533595116E+02  0.51100000000E-03 0. -1.
        -11    1    3    3    0    0 -0.60365997190E+00  0.14131305436E+01 -0.94200043195E+00  0.18024173684E+01  0.51100000000E-03 0.  1.
        -12    1    3    3    0    0  0.10715121767E+02 -0.24744210183E+02 -0.13583754268E+02  0.30192849353E+02  0.00000000000E+00 0.  1.
</event>
<event>
 7    1  0.2835316E-011  0.5052886E+02  0.7816164E-02  0.1300439E+00
        -11   -1    0    0    0    0  0.00000000000E+00  0.00000000000E+00  0.45593999997E+02  0.45594000000E+02  0.51100000000E-03 0. -1.
         11   -1    0    0    0    0 -0.00000000000E+00 -0.00000000000E+00 -0.45593999997E+02  0.45594000000E+02  0.51100000000E-03 0.  1.
    9900012    2    1    2    0    0 -0.34612243046E+01  0.14617142033E+02  0.37782600083E+02  0.50528858545E+02  0.29999996032E+02 0.  0.
        -12    1    1    2    0    0  0.34612243046E+01 -0.14617142033E+02 -0.37782600083E+02  0.40659141455E+02  0.00000000000E+00 0.  1.
         11    1    3    3    0    0 -0.25454578342E+01 -0.36346632752E+01  0.36048863976E+01  0.57171093142E+01  0.51100000000E-03 0. -1.
        -11    1    3    3    0    0  0.10084351577E+01  0.55793268924E+01 -0.23220290446E+01  0.61267976289E+01  0.51100000000E-03 0.  1.
         12    1    3    3    0    0 -0.19242016281E+01  0.12672478415E+02  0.36499742730E+02  0.38684951602E+02  0.00000000000E+00 0. -1.
</event>
<event>
 7    1  0.2835316E-011  0.5052887E+02  0.7816164E-02  0.1300439E+00
        -11   -1    0    0    0    0  0.00000000000E+00  0.00000000000E+00  0.45593999997E+02  0.45594000000E+02  0.51100000000E-03 0.  1.
         11   -1    0    0    0    0 -0.00000000000E+00 -0.00000000000E+00 -0.45593999997E+02  0.45594000000E+02  0.51100000000E-03 0. -1.
    9900012    2    1    2    0    0 -0.29242277514E+02  0.23998528071E+02 -0.14903847868E+02  0.50528870335E+02  0.30000031871E+02 0.  0.
        -12    1    1    2    0    0  0.29242277514E+02 -0.23998528071E+02  0.14903847868E+02  0.40659129665E+02  0.00000000000E+00 0.  1.
         11    1    3    3    0    0 -0.18360415165E+02 -0.46127779500E+00  0.22134333629E+00  0.18367542443E+02  0.51100000000E-03 0. -1.
        -11    1    3    3    0    0 -0.51409300999E+01  0.14870218506E+02 -0.36683666185E+01  0.16155787651E+02  0.51100000000E-03 0.  1.
        -12    1    3    3    0    0 -0.57409322491E+01  0.95895873601E+01 -0.11456824586E+02  0.16005540242E+02  0.00000000000E+00 0.  1.
</event>
<event>
 7    1  0.2835316E-011  0.5052886E+02  0.7816164E-02  0.1300439E+00
        -11   -1    0    0    0    0  0.00000000000E+00  0.00000000000E+00  0.45593999997E+02  0.45594000000E+02  0.51100000000E-03 0. -1.
         11   -1    0    0    0    0 -0.00000000000E+00 -0.00000000000E+00 -0.45593999997E+02  0.45594000000E+02  0.51100000000E-03 0.  1.
    9900012    2    1    2    0    0  0.19775473389E+01  0.90020174480E+01  0.39600737088E+02  0.50528863395E+02  0.30000010775E+02 0.  0.
        -12    1    1    2    0    0 -0.19775473389E+01 -0.90020174480E+01 -0.39600737088E+02  0.40659136605E+02  0.00000000000E+00 0.  1.
         11    1    3    3    0    0 -0.66259982669E+00  0.15205491915E+01 -0.34003888460E+01  0.37833520771E+01  0.51100000000E-03 0. -1.
        -11    1    3    3    0    0 -0.41171563591E+01  0.15874474008E+01  0.33079188866E+02  0.33372199539E+02  0.51100000000E-03 0.  1.
         12    1    3    3    0    0  0.67573035248E+01  0.58940208556E+01  0.99219370672E+01  0.13373311779E+02  0.00000000000E+00 0. -1.
</event>
<event>
 7    1  0.2835316E-011  0.5052887E+02  0.7816164E-02  0.1300439E+00
        -11   -1    0    0    0    0  0.00000000000E+00  0.00000000000E+00  0.45593999997E+02  0.45594000000E+02  0.51100000000E-03 0.  1.
         11   -1    0    0    0    0 -0.00000000000E+00 -0.00000000000E+00 -0.45593999997E+02  0.45594000000E+02  0.51100000000E-03 0. -1.
    9900012    2    1    2    0    0  0.18141646276E+01 -0.40563426768E+02  0.21171424468E+01  0.50528867243E+02  0.30000022471E+02 0.  0.
        -12    1    1    2    0    0 -0.18141646276E+01  0.40563426768E+02 -0.21171424468E+01  0.40659132757E+02  0.00000000000E+00 0.  1.
         11    1    3    3    0    0 -0.41095944479E+00 -0.22849316320E+01 -0.61219506287E+01  0.65473719911E+01  0.51100000000E-03 0. -1.
        -11    1    3    3    0    0  0.81625090245E+00 -0.15330499438E+00  0.56845000163E+01  0.57448506206E+01  0.51100000000E-03 0.  1.
        -12    1    3    3    0    0  0.14088731699E+01 -0.38125190141E+02  0.25545930592E+01  0.38236644631E+02  0.00000000000E+00 0.  1.
</event>
<event>
 7    1  0.2835316E-011  0.5052886E+02  0.7816164E-02  0.1300439E+00
        -11   -1    0    0    0    0  0.00000000000E+00  0.00000000000E+00  0.45593999997E+02  0.45594000000E+02  0.51100000000E-03 0. -1.
         11   -1    0    0    0    0 -0.00000000000E+00 -0.00000000000E+00 -0.45593999997E+02  0.45594000000E+02  0.51100000000E-03 0.  1.
    9900012    2    1    2    0    0 -0.29529285067E+02  0.73335987572E+01 -0.26970448264E+02  0.50528862935E+02  0.30000009376E+02 0.  0.
        -12    1    1    2    0    0  0.29529285067E+02 -0.73335987572E+01  0.26970448264E+02  0.40659137065E+02  0.00000000000E+00 0.  1.
         11    1    3    3    0    0 -0.20815621907E+02 -0.51209903962E+01 -0.96586060494E+01  0.23511770012E+02  0.51100000000E-03 0. -1.
        -11    1    3    3    0    0  0.97215059947E-02  0.51050552625E+00 -0.10874433017E+02  0.10886413740E+02  0.51100000000E-03 0.  1.
         12    1    3    3    0    0 -0.87233846658E+01  0.11944083627E+02 -0.64374091978E+01  0.16130679183E+02  0.00000000000E+00 0. -1.
</event>
<event>
 7    1  0.2835316E-011  0.5052886E+02  0.7816164E-02  0.1300439E+00
        -11   -1    0    0    0    0  0.00000000000E+00  0.00000000000E+00  0.45593999997E+02  0.45594000000E+02  0.51100000000E-03 0. -1.
         11   -1    0    0    0    0 -0.00000000000E+00 -0.00000000000E+00 -0.45593999997E+02  0.45594000000E+02  0.51100000000E-03 0.  1.
    9900012    2    1    2    0    0  0.38411504154E+02 -0.12948815011E+02  0.31701945848E+01  0.50528860864E+02  0.30000003082E+02 0.  0.
        -12    1    1    2    0    0 -0.38411504154E+02  0.12948815011E+02 -0.31701945848E+01  0.40659139136E+02  0.00000000000E+00 0.  1.
         11    1    3    3    0    0  0.18301688429E+01 -0.10578315256E+02  0.86366885975E+00  0.10770153007E+02  0.51100000000E-03 0. -1.
        -11    1    3    3    0    0  0.21406261763E+02 -0.71014652951E+01 -0.35251088712E+01  0.22827291666E+02  0.51100000000E-03 0.  1.
        -12    1    3    3    0    0  0.15175073549E+02  0.47309655401E+01  0.58316345962E+01  0.16931416191E+02  0.00000000000E+00 0.  1.
</event>
<event>
 7    1  0.2835316E-011  0.5052888E+02  0.7816164E-02  0.1300439E+00
        -11   -1    0    0    0    0  0.00000000000E+00  0.00000000000E+00  0.45593999997E+02  0.45594000000E+02  0.51100000000E-03 0.  1.
         11   -1    0    0    0    0 -0.00000000000E+00 -0.00000000000E+00 -0.45593999997E+02  0.45594000000E+02  0.51100000000E-03 0. -1.
    9900012    2    1    2    0    0 -0.29031606389E+02  0.27520189346E+02 -0.72780079264E+01  0.50528875679E+02  0.30000048114E+02 0.  0.
        -12    1    1    2    0    0  0.29031606389E+02 -0.27520189346E+02  0.72780079264E+01  0.40659124321E+02  0.00000000000E+00 0.  1.
         11    1    3    3    0    0 -0.21966042137E+02  0.19866077752E+02 -0.10074836359E+02  0.31283707906E+02  0.51100000000E-03 0. -1.
        -11    1    3    3    0    0 -0.92833137306E+01  0.37902885886E+01 -0.42640905107E+01  0.10896268607E+02  0.51100000000E-03 0.  1.
        -12    1    3    3    0    0  0.22177494789E+01  0.38638230059E+01  0.70609189431E+01  0.83488991666E+01  0.00000000000E+00 0.  1.
</event>
<event>
 7    1  0.2835316E-011  0.5052887E+02  0.7816164E-02  0.1300439E+00
        -11   -1    0    0    0    0  0.00000000000E+00  0.00000000000E+00  0.45593999997E+02  0.45594000000E+02  0.51100000000E-03 0. -1.
         11   -1    0    0    0    0 -0.00000000000E+00 -0.00000000000E+00 -0.45593999997E+02  0.45594000000E+02  0.51100000000E-03 0.  1.
    9900012    2    1    2    0    0  0.15759509502E+02 -0.21616487370E+02  0.30619119114E+02  0.50528866693E+02  0.30000020799E+02 0.  0.
        -12    1    1    2    0    0 -0.15759509502E+02  0.21616487370E+02 -0.30619119114E+02  0.40659133307E+02  0.00000000000E+00 0.  1.
         11    1    3    3    0    0 -0.31928813026E+01 -0.35609514842E+01  0.33901595192E+01  0.58624268279E+01  0.51100000000E-03 0. -1.
        -11    1    3    3    0    0  0.53007010334E+01  0.55770749658E+01  0.90272872367E+01  0.11861412721E+02  0.51100000000E-03 0.  1.
        -12    1    3    3    0    0  0.13651689771E+02 -0.23632610852E+02  0.18201672358E+02  0.32805027144E+02  0.00000000000E+00 0.  1.
</event>
<event>
 7    1  0.2835316E-011  0.5052886E+02  0.7816164E-02  0.1300439E+00
        -11   -1    0    0    0    0  0.00000000000E+00  0.00000000000E+00  0.45593999997E+02  0.45594000000E+02  0.51100000000E-03 0.  1.
         11   -1    0    0    0    0 -0.00000000000E+00 -0.00000000000E+00 -0.45593999997E+02  0.45594000000E+02  0.51100000000E-03 0. -1.
    9900012    2    1    2    0    0 -0.71203190254E+01 -0.22373727768E+02 -0.33194620653E+02  0.50528862311E+02  0.30000007481E+02 0.  0.
        -12    1    1    2    0    0  0.71203190254E+01  0.22373727768E+02  0.33194620653E+02  0.40659137689E+02  0.00000000000E+00 0.  1.
         11    1    3    3    0    0  0.92910056296E+00 -0.72501925280E+01 -0.10520735489E+02  0.12810714072E+02  0.51100000000E-03 0. -1.
        -11    1    3    3    0    0  0.47929077536E+01  0.38294977219E+01 -0.94869033207E+01  0.11297714477E+02  0.51100000000E-03 0.  1.
        -12    1    3    3    0    0 -0.12842327342E+02 -0.18953032962E+02 -0.13186981844E+02  0.26420433762E+02  0.00000000000E+00 0.  1.
</event>
<event>
 7    1  0.2835316E-011  0.5052886E+02  0.7816164E-02  0.1300439E+00
        -11   -1    0    0    0    0  0.00000000000E+00  0.00000000000E+00  0.45593999997E+02  0.45594000000E+02  0.51100000000E-03 0.  1.
         11   -1    0    0    0    0 -0.00000000000E+00 -0.00000000000E+00 -0.45593999997E+02  0.45594000000E+02  0.51100000000E-03 0. -1.
    9900012    2    1    2    0    0  0.11141775855E+02 -0.11913552646E+02 -0.37243707834E+02  0.50528859833E+02  0.29999999949E+02 0.  0.
        -12    1    1    2    0    0 -0.11141775855E+02  0.11913552646E+02  0.37243707834E+02  0.40659140167E+02  0.00000000000E+00 0.  1.
         11    1    3    3    0    0  0.17835205042E+02 -0.95473856236E+01 -0.15816707720E+02  0.25679083989E+02  0.51100000000E-03 0. -1.
        -11    1    3    3    0    0  0.46815111041E+00 -0.47819605904E+01 -0.10681534587E+02  0.11712450382E+02  0.51100000000E-03 0.  1.
        -12    1    3    3    0    0 -0.71615802975E+01  0.24157935680E+01 -0.10745465527E+02  0.13137325462E+02  0.00000000000E+00 0.  1.
</event>
<event>
 7    1  0.2835316E-011  0.5052885E+02  0.7816164E-02  0.1300439E+00
        -11   -1    0    0    0    0  0.00000000000E+00  0.00000000000E+00  0.45593999997E+02  0.45594000000E+02  0.51100000000E-03 0. -1.
         11   -1    0    0    0    0 -0.00000000000E+00 -0.00000000000E+00 -0.45593999997E+02  0.45594000000E+02  0.51100000000E-03 0.  1.
    9900012    2    1    2    0    0  0.40159576455E+01 -0.39741894812E+02 -0.75908028465E+01  0.50528850883E+02  0.29999972744E+02 0.  0.
        -12    1    1    2    0    0 -0.40159576455E+01  0.39741894812E+02  0.75908028465E+01  0.40659149117E+02  0.00000000000E+00 0.  1.
         11    1    3    3    0    0  0.56223661918E+01 -0.97343681299E+01 -0.62967710989E+01  0.12884806984E+02  0.51100000000E-03 0. -1.
        -11    1    3    3    0    0  0.20783835143E+01 -0.63694478145E+01 -0.10126330206E+02  0.12142162377E+02  0.51100000000E-03 0.  1.
         12    1    3    3    0    0 -0.36847920607E+01 -0.23638078868E+02  0.88322984583E+01  0.25501881522E+02  0.00000000000E+00 0. -1.
</event>
<event>
 7    1  0.2835316E-011  0.5052886E+02  0.7816164E-02  0.1300439E+00
        -11   -1    0    0    0    0  0.00000000000E+00  0.00000000000E+00  0.45593999997E+02  0.45594000000E+02  0.51100000000E-03 0. -1.
         11   -1    0    0    0    0 -0.00000000000E+00 -0.00000000000E+00 -0.45593999997E+02  0.45594000000E+02  0.51100000000E-03 0.  1.
    9900012    2    1    2    0    0 -0.29395049424E+02  0.14649197488E+02 -0.23968675342E+02  0.50528864306E+02  0.30000013546E+02 0.  0.
        -12    1    1    2    0    0  0.29395049424E+02 -0.14649197488E+02  0.23968675342E+02  0.40659135694E+02  0.00000000000E+00 0.  1.
         11    1    3    3    0    0  0.37384397526E+01  0.45492855133E+01 -0.72114271541E+01  0.93100275148E+01  0.51100000000E-03 0. -1.
        -11    1    3    3    0    0 -0.14984001657E+02  0.11426480750E+02 -0.12235471706E+02  0.22467566315E+02  0.51100000000E-03 0.  1.
         12    1    3    3    0    0 -0.18149487519E+02 -0.13265687749E+01 -0.45217764819E+01  0.18751270477E+02  0.00000000000E+00 0. -1.
</event>
<event>
 7    1  0.2835316E-011  0.5052887E+02  0.7816164E-02  0.1300439E+00
        -11   -1    0    0    0    0  0.00000000000E+00  0.00000000000E+00  0.45593999997E+02  0.45594000000E+02  0.51100000000E-03 0.  1.
         11   -1    0    0    0    0 -0.00000000000E+00 -0.00000000000E+00 -0.45593999997E+02  0.45594000000E+02  0.51100000000E-03 0. -1.
    9900012    2    1    2    0    0 -0.21650046841E+02 -0.12894407329E+02 -0.31908851563E+02  0.50528867242E+02  0.30000022469E+02 0.  0.
        -12    1    1    2    0    0  0.21650046841E+02  0.12894407329E+02  0.31908851563E+02  0.40659132758E+02  0.00000000000E+00 0.  1.
         11    1    3    3    0    0 -0.46217635906E+01  0.78572118488E+01 -0.12157211574E+02  0.15195205502E+02  0.51100000000E-03 0. -1.
        -11    1    3    3    0    0 -0.51901693702E+00 -0.43137117576E+01  0.61631608029E+00  0.43883178418E+01  0.51100000000E-03 0.  1.
         12    1    3    3    0    0 -0.16509266313E+02 -0.16437907420E+02 -0.20367956069E+02  0.30945343898E+02  0.00000000000E+00 0. -1.
</event>
<event>
 7    1  0.2835316E-011  0.5052886E+02  0.7816164E-02  0.1300439E+00
        -11   -1    0    0    0    0  0.00000000000E+00  0.00000000000E+00  0.45593999997E+02  0.45594000000E+02  0.51100000000E-03 0.  1.
         11   -1    0    0    0    0 -0.00000000000E+00 -0.00000000000E+00 -0.45593999997E+02  0.45594000000E+02  0.51100000000E-03 0. -1.
    9900012    2    1    2    0    0  0.11181205948E+02 -0.38944210404E+02 -0.33904151222E+01  0.50528858283E+02  0.29999995237E+02 0.  0.
        -12    1    1    2    0    0 -0.11181205948E+02  0.38944210404E+02  0.33904151222E+01  0.40659141717E+02  0.00000000000E+00 0.  1.
         11    1    3    3    0    0  0.38623841645E+01 -0.32706819103E+01  0.96800052877E+00  0.51529017920E+01  0.51100000000E-03 0. -1.
        -11    1    3    3    0    0 -0.38833485363E+01 -0.31339195364E+02 -0.84446035466E+01  0.32688482547E+02  0.51100000000E-03 0.  1.
        -12    1    3    3    0    0  0.11202170320E+02 -0.43343331302E+01  0.40861878956E+01  0.12687473944E+02  0.00000000000E+00 0.  1.
</event>
<event>
 7    1  0.2835316E-011  0.5052885E+02  0.7816164E-02  0.1300439E+00
        -11   -1    0    0    0    0  0.00000000000E+00  0.00000000000E+00  0.45593999997E+02  0.45594000000E+02  0.51100000000E-03 0. -1.
         11   -1    0    0    0    0 -0.00000000000E+00 -0.00000000000E+00 -0.45593999997E+02  0.45594000000E+02  0.51100000000E-03 0.  1.
    9900012    2    1    2    0    0  0.12957745299E+02 -0.32482154660E+02 -0.20740601656E+02  0.50528854760E+02  0.29999984530E+02 0.  0.
        -12    1    1    2    0    0 -0.12957745299E+02  0.32482154660E+02  0.20740601656E+02  0.40659145240E+02  0.00000000000E+00 0.  1.
         11    1    3    3    0    0  0.25326339633E+01 -0.16420838280E-01  0.49822524195E+01  0.55890378303E+01  0.51100000000E-03 0.  1.
        -11    1    3    3    0    0  0.50786954848E+01 -0.10904255999E+02 -0.15806230918E+01  0.12132366477E+02  0.51100000000E-03 0. -1.
        -12    1    3    3    0    0  0.53464158505E+01 -0.21561477822E+02 -0.24142230984E+02  0.32807450453E+02  0.00000000000E+00 0.  1.
</event>
<event>
 7    1  0.2835316E-011  0.5052887E+02  0.7816164E-02  0.1300439E+00
        -11   -1    0    0    0    0  0.00000000000E+00  0.00000000000E+00  0.45593999997E+02  0.45594000000E+02  0.51100000000E-03 0.  1.
         11   -1    0    0    0    0 -0.00000000000E+00 -0.00000000000E+00 -0.45593999997E+02  0.45594000000E+02  0.51100000000E-03 0. -1.
    9900012    2    1    2    0    0  0.26944640547E+02 -0.10461438817E+02 -0.28595615185E+02  0.50528873544E+02  0.30000041626E+02 0.  0.
        -12    1    1    2    0    0 -0.26944640547E+02  0.10461438817E+02  0.28595615185E+02  0.40659126456E+02  0.00000000000E+00 0.  1.
         11    1    3    3    0    0  0.27770584784E+02 -0.59026321759E+01 -0.23361072199E+02  0.36766644399E+02  0.51100000000E-03 0. -1.
        -11    1    3    3    0    0  0.34583161745E+01 -0.51739351653E+01 -0.67456098269E+01  0.91778433227E+01  0.51100000000E-03 0.  1.
        -12    1    3    3    0    0 -0.42842604114E+01  0.61512852445E+00  0.15110668407E+01  0.45843858227E+01  0.00000000000E+00 0.  1.
</event>
<event>
 7    1  0.2835316E-011  0.5052886E+02  0.7816164E-02  0.1300439E+00
        -11   -1    0    0    0    0  0.00000000000E+00  0.00000000000E+00  0.45593999997E+02  0.45594000000E+02  0.51100000000E-03 0.  1.
         11   -1    0    0    0    0 -0.00000000000E+00 -0.00000000000E+00 -0.45593999997E+02  0.45594000000E+02  0.51100000000E-03 0. -1.
    9900012    2    1    2    0    0 -0.46944716118E+01  0.26731974485E+02 -0.30274229916E+02  0.50528861783E+02  0.30000005874E+02 0.  0.
        -12    1    1    2    0    0  0.46944716118E+01 -0.26731974485E+02  0.30274229916E+02  0.40659138217E+02  0.00000000000E+00 0.  1.
         11    1    3    3    0    0  0.18219050095E+01  0.51863147507E+01 -0.11955839812E+02  0.13159000890E+02  0.51100000000E-03 0. -1.
        -11    1    3    3    0    0  0.19719168321E+01  0.75146587463E+01  0.47204700066E+01  0.90907309613E+01  0.51100000000E-03 0.  1.
         12    1    3    3    0    0 -0.84882934533E+01  0.14031000988E+02 -0.23038860111E+02  0.28279129931E+02  0.00000000000E+00 0. -1.
</event>
<event>
 7    1  0.3680509E-011  0.5052890E+02  0.7816164E-02  0.1300439E+00
        -11   -1    0    0    0    0  0.00000000000E+00  0.00000000000E+00  0.45593999997E+02  0.45594000000E+02  0.51100000000E-03 0. -1.
         11   -1    0    0    0    0 -0.00000000000E+00 -0.00000000000E+00 -0.45593999997E+02  0.45594000000E+02  0.51100000000E-03 0.  1.
    9900012    2    1    2    0    0  0.21458550995E+02 -0.67515173449E+01  0.33869013004E+02  0.50528899676E+02  0.30000121056E+02 0.  0.
        -12    1    1    2    0    0 -0.21458550995E+02  0.67515173449E+01 -0.33869013004E+02  0.40659100324E+02  0.00000000000E+00 0.  1.
         11    1    3    3    0    0  0.27392053632E+01  0.49288479763E+01  0.10968946469E+02  0.12333473773E+02  0.51100000000E-03 0. -1.
        -11    1    3    3    0    0 -0.27422522710E+01 -0.13781515459E+01 -0.20650555617E+01  0.36991490826E+01  0.51100000000E-03 0.  1.
        -12    1    3    3    0    0  0.21461597903E+02 -0.10302213775E+02  0.24965122097E+02  0.34496276821E+02  0.00000000000E+00 0.  1.
</event>
<event>
 7    1  0.2835316E-011  0.5052886E+02  0.7816164E-02  0.1300439E+00
        -11   -1    0    0    0    0  0.00000000000E+00  0.00000000000E+00  0.45593999997E+02  0.45594000000E+02  0.51100000000E-03 0.  1.
         11   -1    0    0    0    0 -0.00000000000E+00 -0.00000000000E+00 -0.45593999997E+02  0.45594000000E+02  0.51100000000E-03 0. -1.
    9900012    2    1    2    0    0  0.93114763203E+01 -0.35276941136E+01 -0.39421028352E+02  0.50528859658E+02  0.29999999415E+02 0.  0.
        -12    1    1    2    0    0 -0.93114763203E+01  0.35276941136E+01  0.39421028352E+02  0.40659140342E+02  0.00000000000E+00 0.  1.
         11    1    3    3    0    0 -0.46948822524E+01 -0.31667030468E+01 -0.11100260200E+02  0.12461368477E+02  0.51100000000E-03 0. -1.
        -11    1    3    3    0    0  0.10564076876E+02 -0.10023895297E+02 -0.12392564209E+02  0.19122077426E+02  0.51100000000E-03 0.  1.
         12    1    3    3    0    0  0.34422816972E+01  0.96629042305E+01 -0.15928203944E+02  0.18945413754E+02  0.00000000000E+00 0. -1.
</event>
<event>
 7    1  0.2835316E-011  0.5052885E+02  0.7816164E-02  0.1300439E+00
        -11   -1    0    0    0    0  0.00000000000E+00  0.00000000000E+00  0.45593999997E+02  0.45594000000E+02  0.51100000000E-03 0.  1.
         11   -1    0    0    0    0 -0.00000000000E+00 -0.00000000000E+00 -0.45593999997E+02  0.45594000000E+02  0.51100000000E-03 0. -1.
    9900012    2    1    2    0    0  0.79770424568E+01 -0.39604745473E+02 -0.45822499614E+01  0.50528854841E+02  0.29999984776E+02 0.  0.
        -12    1    1    2    0    0 -0.79770424568E+01  0.39604745473E+02  0.45822499614E+01  0.40659145159E+02  0.00000000000E+00 0.  1.
         11    1    3    3    0    0  0.41828110419E+01 -0.16316628814E+02 -0.75744724597E+01  0.18468917601E+02  0.51100000000E-03 0. -1.
        -11    1    3    3    0    0  0.82497060820E+01 -0.39658070507E+01 -0.52881315300E+01  0.10571168873E+02  0.51100000000E-03 0.  1.
        -12    1    3    3    0    0 -0.44554746671E+01 -0.19322309608E+02  0.82803540283E+01  0.21488768367E+02  0.00000000000E+00 0.  1.
</event>
<event>
 7    1  0.2835316E-011  0.5052886E+02  0.7816164E-02  0.1300439E+00
        -11   -1    0    0    0    0  0.00000000000E+00  0.00000000000E+00  0.45593999997E+02  0.45594000000E+02  0.51100000000E-03 0.  1.
         11   -1    0    0    0    0 -0.00000000000E+00 -0.00000000000E+00 -0.45593999997E+02  0.45594000000E+02  0.51100000000E-03 0. -1.
    9900012    2    1    2    0    0  0.26254659783E+02  0.17871100556E+00 -0.31045551657E+02  0.50528863565E+02  0.30000011292E+02 0.  0.
        -12    1    1    2    0    0 -0.26254659783E+02 -0.17871100556E+00  0.31045551657E+02  0.40659136435E+02  0.00000000000E+00 0.  1.
         11    1    3    3    0    0  0.21089094531E+01  0.20881648387E+01  0.24942199547E+01  0.38767337951E+01  0.51100000000E-03 0. -1.
        -11    1    3    3    0    0  0.57063836312E+01 -0.96748141034E+01 -0.63780208263E+01  0.12916810442E+02  0.51100000000E-03 0.  1.
         12    1    3    3    0    0  0.18439366699E+02  0.77653602703E+01 -0.27161750785E+02  0.33735319327E+02  0.00000000000E+00 0. -1.
</event>
<event>
 7    1  0.2835316E-011  0.5052886E+02  0.7816164E-02  0.1300439E+00
        -11   -1    0    0    0    0  0.00000000000E+00  0.00000000000E+00  0.45593999997E+02  0.45594000000E+02  0.51100000000E-03 0.  1.
         11   -1    0    0    0    0 -0.00000000000E+00 -0.00000000000E+00 -0.45593999997E+02  0.45594000000E+02  0.51100000000E-03 0. -1.
    9900012    2    1    2    0    0  0.20501752614E+02  0.21481183017E+02 -0.27774130552E+02  0.50528863118E+02  0.30000009935E+02 0.  0.
        -12    1    1    2    0    0 -0.20501752614E+02 -0.21481183017E+02  0.27774130552E+02  0.40659136882E+02  0.00000000000E+00 0.  1.
         11    1    3    3    0    0  0.13722497346E+02  0.20261749239E+02 -0.25784124311E+02  0.35548086902E+02  0.51100000000E-03 0. -1.
        -11    1    3    3    0    0  0.87352429540E+01  0.49546431833E+01 -0.32913565645E+01  0.10568159103E+02  0.51100000000E-03 0.  1.
        -12    1    3    3    0    0 -0.19559876860E+01 -0.37352094048E+01  0.13013503239E+01  0.44126171135E+01  0.00000000000E+00 0.  1.
</event>
<event>
 7    1  0.2835316E-011  0.5052886E+02  0.7816164E-02  0.1300439E+00
        -11   -1    0    0    0    0  0.00000000000E+00  0.00000000000E+00  0.45593999997E+02  0.45594000000E+02  0.51100000000E-03 0.  1.
         11   -1    0    0    0    0 -0.00000000000E+00 -0.00000000000E+00 -0.45593999997E+02  0.45594000000E+02  0.51100000000E-03 0. -1.
    9900012    2    1    2    0    0  0.37093310175E+02  0.15426766634E+02 -0.62662990067E+01  0.50528864597E+02  0.30000014429E+02 0.  0.
        -12    1    1    2    0    0 -0.37093310175E+02 -0.15426766634E+02  0.62662990067E+01  0.40659135403E+02  0.00000000000E+00 0.  1.
         11    1    3    3    0    0  0.13269352465E+02  0.10190543608E+02 -0.16161048888E+02  0.23261607754E+02  0.51100000000E-03 0. -1.
        -11    1    3    3    0    0  0.33095494227E+01 -0.15469833451E+01  0.43027413921E+00  0.36785066192E+01  0.51100000000E-03 0.  1.
         12    1    3    3    0    0  0.20514408287E+02  0.67832063713E+01  0.94644757425E+01  0.23588750224E+02  0.00000000000E+00 0. -1.
</event>
<event>
 7    1  0.2835316E-011  0.5052887E+02  0.7816164E-02  0.1300439E+00
        -11   -1    0    0    0    0  0.00000000000E+00  0.00000000000E+00  0.45593999997E+02  0.45594000000E+02  0.51100000000E-03 0.  1.
         11   -1    0    0    0    0 -0.00000000000E+00 -0.00000000000E+00 -0.45593999997E+02  0.45594000000E+02  0.51100000000E-03 0. -1.
    9900012    2    1    2    0    0 -0.27001246825E+02 -0.14946173755E+02 -0.26470922148E+02  0.50528866224E+02  0.30000019376E+02 0.  0.
        -12    1    1    2    0    0  0.27001246825E+02  0.14946173755E+02  0.26470922148E+02  0.40659133776E+02  0.00000000000E+00 0.  1.
         11    1    3    3    0    0 -0.19227121165E+02 -0.21041872010E+01 -0.16799720865E+02  0.25619141544E+02  0.51100000000E-03 0. -1.
        -11    1    3    3    0    0 -0.55444200389E+00 -0.18019914565E+01 -0.11445571736E+02  0.11599814299E+02  0.51100000000E-03 0.  1.
        -12    1    3    3    0    0 -0.72196836559E+01 -0.11039995098E+02  0.17743704527E+01  0.13309910381E+02  0.00000000000E+00 0.  1.
</event>
<event>
 7    1  0.2835316E-011  0.5052885E+02  0.7816164E-02  0.1300439E+00
        -11   -1    0    0    0    0  0.00000000000E+00  0.00000000000E+00  0.45593999997E+02  0.45594000000E+02  0.51100000000E-03 0.  1.
         11   -1    0    0    0    0 -0.00000000000E+00 -0.00000000000E+00 -0.45593999997E+02  0.45594000000E+02  0.51100000000E-03 0. -1.
    9900012    2    1    2    0    0  0.71952987363E+01  0.13751279799E+02 -0.37580534451E+02  0.50528848636E+02  0.29999965913E+02 0.  0.
        -12    1    1    2    0    0 -0.71952987363E+01 -0.13751279799E+02  0.37580534451E+02  0.40659151364E+02  0.00000000000E+00 0.  1.
         11    1    3    3    0    0  0.99411891994E+01  0.18936095615E+01 -0.26562749655E+02  0.28425211861E+02  0.51100000000E-03 0. -1.
        -11    1    3    3    0    0  0.36416126922E+01  0.12172163574E+02 -0.64821001986E+01  0.14263258124E+02  0.51100000000E-03 0.  1.
        -12    1    3    3    0    0 -0.63875031552E+01 -0.31449333658E+00 -0.45356845982E+01  0.78403786510E+01  0.00000000000E+00 0.  1.
</event>
<event>
 7    1  0.2835316E-011  0.5052886E+02  0.7816164E-02  0.1300439E+00
        -11   -1    0    0    0    0  0.00000000000E+00  0.00000000000E+00  0.45593999997E+02  0.45594000000E+02  0.51100000000E-03 0.  1.
         11   -1    0    0    0    0 -0.00000000000E+00 -0.00000000000E+00 -0.45593999997E+02  0.45594000000E+02  0.51100000000E-03 0. -1.
    9900012    2    1    2    0    0  0.59112789804E+01  0.20639596434E+02 -0.34528681840E+02  0.50528855521E+02  0.29999986842E+02 0.  0.
        -12    1    1    2    0    0 -0.59112789804E+01 -0.20639596434E+02  0.34528681840E+02  0.40659144479E+02  0.00000000000E+00 0.  1.
         11    1    3    3    0    0 -0.57158079895E+01  0.64148816110E+01 -0.87265584446E+01  0.12246386798E+02  0.51100000000E-03 0. -1.
        -11    1    3    3    0    0  0.59573360174E+01 -0.45716415976E+01 -0.27358227083E+01  0.79921514921E+01  0.51100000000E-03 0.  1.
         12    1    3    3    0    0  0.56697509526E+01  0.18796356421E+02 -0.23066300687E+02  0.30290317231E+02  0.00000000000E+00 0. -1.
</event>
<event>
 7    1  0.2835316E-011  0.5052885E+02  0.7816164E-02  0.1300439E+00
        -11   -1    0    0    0    0  0.00000000000E+00  0.00000000000E+00  0.45593999997E+02  0.45594000000E+02  0.51100000000E-03 0. -1.
         11   -1    0    0    0    0 -0.00000000000E+00 -0.00000000000E+00 -0.45593999997E+02  0.45594000000E+02  0.51100000000E-03 0.  1.
    9900012    2    1    2    0    0 -0.15027700163E+02  0.37006890639E+02  0.76042680381E+01  0.50528848271E+02  0.29999964803E+02 0.  0.
        -12    1    1    2    0    0  0.15027700163E+02 -0.37006890639E+02 -0.76042680381E+01  0.40659151729E+02  0.00000000000E+00 0.  1.
         11    1    3    3    0    0 -0.14842387259E+02  0.23334843567E+02 -0.73990967239E+01  0.28627923719E+02  0.51100000000E-03 0. -1.
        -11    1    3    3    0    0 -0.18241236651E+01 -0.32277187442E+00  0.14826901421E+01  0.23727577093E+01  0.51100000000E-03 0.  1.
         12    1    3    3    0    0  0.16388107611E+01  0.13994818946E+02  0.13520674620E+02  0.19528166842E+02  0.00000000000E+00 0. -1.
</event>
<event>
 7    1  0.2835316E-011  0.5052886E+02  0.7816164E-02  0.1300439E+00
        -11   -1    0    0    0    0  0.00000000000E+00  0.00000000000E+00  0.45593999997E+02  0.45594000000E+02  0.51100000000E-03 0. -1.
         11   -1    0    0    0    0 -0.00000000000E+00 -0.00000000000E+00 -0.45593999997E+02  0.45594000000E+02  0.51100000000E-03 0.  1.
    9900012    2    1    2    0    0  0.31293239657E+02 -0.25583760277E+02  0.44011714876E+01  0.50528856519E+02  0.29999989874E+02 0.  0.
        -12    1    1    2    0    0 -0.31293239657E+02  0.25583760277E+02 -0.44011714876E+01  0.40659143481E+02  0.00000000000E+00 0.  1.
         11    1    3    3    0    0  0.16989605199E+02 -0.24330620425E+02  0.23431562879E+01  0.29767703249E+02  0.51100000000E-03 0. -1.
        -11    1    3    3    0    0  0.14791704805E+02 -0.59404074728E+01  0.18033801935E+01  0.16041669251E+02  0.51100000000E-03 0.  1.
         12    1    3    3    0    0 -0.48807034640E+00  0.46872676209E+01  0.25463500622E+00  0.47194840183E+01  0.00000000000E+00 0. -1.
</event>
<event>
 7    1  0.2835316E-011  0.5052886E+02  0.7816164E-02  0.1300439E+00
        -11   -1    0    0    0    0  0.00000000000E+00  0.00000000000E+00  0.45593999997E+02  0.45594000000E+02  0.51100000000E-03 0.  1.
         11   -1    0    0    0    0 -0.00000000000E+00 -0.00000000000E+00 -0.45593999997E+02  0.45594000000E+02  0.51100000000E-03 0. -1.
    9900012    2    1    2    0    0  0.22805657894E+02  0.33605172715E+02  0.19389711354E+01  0.50528864811E+02  0.30000015081E+02 0.  0.
        -12    1    1    2    0    0 -0.22805657894E+02 -0.33605172715E+02 -0.19389711354E+01  0.40659135189E+02  0.00000000000E+00 0.  1.
         11    1    3    3    0    0  0.23103282736E+02  0.19173355244E+02 -0.11471715516E+01  0.30044886875E+02  0.51100000000E-03 0. -1.
        -11    1    3    3    0    0  0.15771065000E+01  0.16951083711E+02  0.19117749703E+01  0.17131298482E+02  0.51100000000E-03 0.  1.
        -12    1    3    3    0    0 -0.18747313420E+01 -0.25192662394E+01  0.11743677167E+01  0.33526794543E+01  0.00000000000E+00 0.  1.
</event>
<event>
 7    1  0.2835316E-011  0.5052886E+02  0.7816164E-02  0.1300439E+00
        -11   -1    0    0    0    0  0.00000000000E+00  0.00000000000E+00  0.45593999997E+02  0.45594000000E+02  0.51100000000E-03 0.  1.
         11   -1    0    0    0    0 -0.00000000000E+00 -0.00000000000E+00 -0.45593999997E+02  0.45594000000E+02  0.51100000000E-03 0. -1.
    9900012    2    1    2    0    0 -0.11928406996E+02  0.57802471150E+01 -0.38437838204E+02  0.50528861348E+02  0.30000004553E+02 0.  0.
        -12    1    1    2    0    0  0.11928406996E+02 -0.57802471150E+01  0.38437838204E+02  0.40659138652E+02  0.00000000000E+00 0.  1.
         11    1    3    3    0    0 -0.20847900124E+01  0.84034561355E+01 -0.92616996933E+00  0.87075952760E+01  0.51100000000E-03 0. -1.
        -11    1    3    3    0    0  0.19639149960E+01 -0.33210272561E+01 -0.19080041859E+01  0.43042611889E+01  0.51100000000E-03 0.  1.
         12    1    3    3    0    0 -0.11807531979E+02  0.69781823561E+00 -0.35603664048E+02  0.37517004883E+02  0.00000000000E+00 0. -1.
</event>
<event>
 7    1  0.2835316E-011  0.5052882E+02  0.7816164E-02  0.1300439E+00
        -11   -1    0    0    0    0  0.00000000000E+00  0.00000000000E+00  0.45593999997E+02  0.45594000000E+02  0.51100000000E-03 0.  1.
         11   -1    0    0    0    0 -0.00000000000E+00 -0.00000000000E+00 -0.45593999997E+02  0.45594000000E+02  0.51100000000E-03 0. -1.
    9900012    2    1    2    0    0  0.39609893040E+02 -0.83996430415E+01  0.36975236515E+01  0.50528815170E+02  0.29999864192E+02 0.  0.
        -12    1    1    2    0    0 -0.39609893040E+02  0.83996430415E+01 -0.36975236515E+01  0.40659184830E+02  0.00000000000E+00 0.  1.
         11    1    3    3    0    0  0.31046748809E+02 -0.50221190678E+00  0.65920770398E+01  0.31742846570E+02  0.51100000000E-03 0. -1.
        -11    1    3    3    0    0  0.10914629548E+01  0.24258120403E+00  0.50530690851E+01  0.51752917272E+01  0.51100000000E-03 0.  1.
         12    1    3    3    0    0  0.74716812756E+01 -0.81400123388E+01 -0.79476224733E+01  0.13610676873E+02  0.00000000000E+00 0. -1.
</event>
<event>
 7    1  0.2835316E-011  0.5052886E+02  0.7816164E-02  0.1300439E+00
        -11   -1    0    0    0    0  0.00000000000E+00  0.00000000000E+00  0.45593999997E+02  0.45594000000E+02  0.51100000000E-03 0.  1.
         11   -1    0    0    0    0 -0.00000000000E+00 -0.00000000000E+00 -0.45593999997E+02  0.45594000000E+02  0.51100000000E-03 0. -1.
    9900012    2    1    2    0    0  0.12757435927E+02  0.24019839058E+02  0.30223514414E+02  0.50528860027E+02  0.30000000537E+02 0.  0.
        -12    1    1    2    0    0 -0.12757435927E+02 -0.24019839058E+02 -0.30223514414E+02  0.40659139973E+02  0.00000000000E+00 0.  1.
         11    1    3    3    0    0 -0.81775360663E-01  0.13919633328E+02  0.92523927896E+01  0.16714354663E+02  0.51100000000E-03 0. -1.
        -11    1    3    3    0    0 -0.38054485175E+01  0.87530446455E+01  0.10057271120E+02  0.13865277914E+02  0.51100000000E-03 0.  1.
         12    1    3    3    0    0  0.16644659805E+02  0.13471610847E+01  0.10913850505E+02  0.19949227450E+02  0.00000000000E+00 0. -1.
</event>
<event>
 7    1  0.2835316E-011  0.5052886E+02  0.7816164E-02  0.1300439E+00
        -11   -1    0    0    0    0  0.00000000000E+00  0.00000000000E+00  0.45593999997E+02  0.45594000000E+02  0.51100000000E-03 0.  1.
         11   -1    0    0    0    0 -0.00000000000E+00 -0.00000000000E+00 -0.45593999997E+02  0.45594000000E+02  0.51100000000E-03 0. -1.
    9900012    2    1    2    0    0 -0.16732720513E+00  0.18812150070E+01 -0.40615253111E+02  0.50528858917E+02  0.29999997164E+02 0.  0.
        -12    1    1    2    0    0  0.16732720513E+00 -0.18812150070E+01  0.40615253111E+02  0.40659141083E+02  0.00000000000E+00 0.  1.
         11    1    3    3    0    0  0.66573857459E+01 -0.34931376433E+01 -0.76263877889E+01  0.10709088968E+02  0.51100000000E-03 0. -1.
        -11    1    3    3    0    0  0.63042818519E+00  0.33769733356E+01  0.20099065648E+01  0.39800896053E+01  0.51100000000E-03 0.  1.
         12    1    3    3    0    0 -0.74551411363E+01  0.19973793147E+01 -0.34998771887E+02  0.35839680343E+02  0.00000000000E+00 0. -1.
</event>
<event>
 7    1  0.2835316E-011  0.5052887E+02  0.7816164E-02  0.1300439E+00
        -11   -1    0    0    0    0  0.00000000000E+00  0.00000000000E+00  0.45593999997E+02  0.45594000000E+02  0.51100000000E-03 0.  1.
         11   -1    0    0    0    0 -0.00000000000E+00 -0.00000000000E+00 -0.45593999997E+02  0.45594000000E+02  0.51100000000E-03 0. -1.
    9900012    2    1    2    0    0 -0.38220999238E+02  0.44548331954E+01 -0.13132941803E+02  0.50528874555E+02  0.30000044697E+02 0.  0.
        -12    1    1    2    0    0  0.38220999238E+02 -0.44548331954E+01  0.13132941803E+02  0.40659125445E+02  0.00000000000E+00 0.  1.
         11    1    3    3    0    0 -0.16852098584E+02 -0.22044956718E+01 -0.87963995181E+01  0.19137128118E+02  0.51100000000E-03 0. -1.
        -11    1    3    3    0    0 -0.49622728031E+01 -0.77451213446E+01 -0.40072901324E+00  0.92071515692E+01  0.51100000000E-03 0.  1.
        -12    1    3    3    0    0 -0.16406627850E+02  0.14404450212E+02 -0.39358132720E+01  0.22184594868E+02  0.00000000000E+00 0.  1.
</event>
<event>
 7    1  0.2835316E-011  0.5052886E+02  0.7816164E-02  0.1300439E+00
        -11   -1    0    0    0    0  0.00000000000E+00  0.00000000000E+00  0.45593999997E+02  0.45594000000E+02  0.51100000000E-03 0.  1.
         11   -1    0    0    0    0 -0.00000000000E+00 -0.00000000000E+00 -0.45593999997E+02  0.45594000000E+02  0.51100000000E-03 0. -1.
    9900012    2    1    2    0    0 -0.35442751252E+02 -0.10177503829E+01 -0.19898277593E+02  0.50528857322E+02  0.29999992315E+02 0.  0.
        -12    1    1    2    0    0  0.35442751252E+02  0.10177503829E+01  0.19898277593E+02  0.40659142678E+02  0.00000000000E+00 0.  1.
         11    1    3    3    0    0 -0.95061741565E+01  0.31837681741E+01  0.39486231644E+01  0.10774755312E+02  0.51100000000E-03 0. -1.
        -11    1    3    3    0    0 -0.19107055511E+00 -0.47563667142E+01 -0.15608032293E+00  0.47627611325E+01  0.51100000000E-03 0.  1.
         12    1    3    3    0    0 -0.25745506541E+02  0.55484815715E+00 -0.23690820434E+02  0.34991340877E+02  0.00000000000E+00 0. -1.
</event>
<event>
 7    1  0.2835316E-011  0.5052886E+02  0.7816164E-02  0.1300439E+00
        -11   -1    0    0    0    0  0.00000000000E+00  0.00000000000E+00  0.45593999997E+02  0.45594000000E+02  0.51100000000E-03 0.  1.
         11   -1    0    0    0    0 -0.00000000000E+00 -0.00000000000E+00 -0.45593999997E+02  0.45594000000E+02  0.51100000000E-03 0. -1.
    9900012    2    1    2    0    0  0.99425624347E+00 -0.34742819381E+02  0.21097720534E+02  0.50528857660E+02  0.29999993345E+02 0.  0.
        -12    1    1    2    0    0 -0.99425624347E+00  0.34742819381E+02 -0.21097720534E+02  0.40659142340E+02  0.00000000000E+00 0.  1.
         11    1    3    3    0    0 -0.62945970895E+01 -0.24726624787E+01  0.77440537767E+00  0.68070343177E+01  0.51100000000E-03 0. -1.
        -11    1    3    3    0    0  0.10629165456E+01 -0.71037479078E+01  0.15866238419E+02  0.17416387334E+02  0.51100000000E-03 0.  1.
         12    1    3    3    0    0  0.62259367874E+01 -0.25166408995E+02  0.44570767374E+01  0.26305436009E+02  0.00000000000E+00 0. -1.
</event>
<event>
 7    1  0.2835316E-011  0.5052886E+02  0.7816164E-02  0.1300439E+00
        -11   -1    0    0    0    0  0.00000000000E+00  0.00000000000E+00  0.45593999997E+02  0.45594000000E+02  0.51100000000E-03 0.  1.
         11   -1    0    0    0    0 -0.00000000000E+00 -0.00000000000E+00 -0.45593999997E+02  0.45594000000E+02  0.51100000000E-03 0. -1.
    9900012    2    1    2    0    0 -0.11551680044E+02  0.38634431526E+02 -0.52062488387E+01  0.50528860337E+02  0.30000001480E+02 0.  0.
        -12    1    1    2    0    0  0.11551680044E+02 -0.38634431526E+02  0.52062488387E+01  0.40659139663E+02  0.00000000000E+00 0.  1.
         11    1    3    3    0    0  0.19285620197E-01  0.21133288210E+02 -0.82981310234E+01  0.22704079397E+02  0.51100000000E-03 0. -1.
        -11    1    3    3    0    0 -0.28241594179E+01  0.17727036388E+02  0.54557448141E+01  0.18761365815E+02  0.51100000000E-03 0.  1.
         12    1    3    3    0    0 -0.87468062467E+01 -0.22589307237E+00 -0.23638626294E+01  0.90634151250E+01  0.00000000000E+00 0. -1.
</event>
<event>
 7    1  0.2835316E-011  0.5052886E+02  0.7816164E-02  0.1300439E+00
        -11   -1    0    0    0    0  0.00000000000E+00  0.00000000000E+00  0.45593999997E+02  0.45594000000E+02  0.51100000000E-03 0. -1.
         11   -1    0    0    0    0 -0.00000000000E+00 -0.00000000000E+00 -0.45593999997E+02  0.45594000000E+02  0.51100000000E-03 0.  1.
    9900012    2    1    2    0    0  0.29054629025E+02  0.24756791273E+02 -0.14003405491E+02  0.50528861454E+02  0.30000004877E+02 0.  0.
        -12    1    1    2    0    0 -0.29054629025E+02 -0.24756791273E+02  0.14003405491E+02  0.40659138546E+02  0.00000000000E+00 0.  1.
         11    1    3    3    0    0  0.15218733911E+02 -0.38361868757E+00  0.19024635521E+01  0.15341981390E+02  0.51100000000E-03 0. -1.
        -11    1    3    3    0    0 -0.20027021500E+01  0.47784841742E+00 -0.76232381094E+00  0.21955165373E+01  0.51100000000E-03 0.  1.
        -12    1    3    3    0    0  0.15838597264E+02  0.24662561543E+02 -0.15143545232E+02  0.32991363527E+02  0.00000000000E+00 0.  1.
</event>
<event>
 7    1  0.2835316E-011  0.5052885E+02  0.7816164E-02  0.1300439E+00
        -11   -1    0    0    0    0  0.00000000000E+00  0.00000000000E+00  0.45593999997E+02  0.45594000000E+02  0.51100000000E-03 0.  1.
         11   -1    0    0    0    0 -0.00000000000E+00 -0.00000000000E+00 -0.45593999997E+02  0.45594000000E+02  0.51100000000E-03 0. -1.
    9900012    2    1    2    0    0  0.17639615533E+02  0.51792320318E+01 -0.36265492422E+02  0.50528850707E+02  0.29999972209E+02 0.  0.
        -12    1    1    2    0    0 -0.17639615533E+02 -0.51792320318E+01  0.36265492422E+02  0.40659149293E+02  0.00000000000E+00 0.  1.
         11    1    3    3    0    0 -0.22968460006E+01  0.42071652376E+01 -0.15407631218E+02  0.16136010687E+02  0.51100000000E-03 0.  1.
        -11    1    3    3    0    0  0.93504657019E+01  0.94598454734E+01 -0.13524994315E+02  0.18969590315E+02  0.51100000000E-03 0. -1.
        -12    1    3    3    0    0  0.10585995832E+02 -0.84877786792E+01 -0.73328668898E+01  0.15423249706E+02  0.00000000000E+00 0.  1.
</event>
<event>
 7    1  0.2835316E-011  0.5052886E+02  0.7816164E-02  0.1300439E+00
        -11   -1    0    0    0    0  0.00000000000E+00  0.00000000000E+00  0.45593999997E+02  0.45594000000E+02  0.51100000000E-03 0. -1.
         11   -1    0    0    0    0 -0.00000000000E+00 -0.00000000000E+00 -0.45593999997E+02  0.45594000000E+02  0.51100000000E-03 0.  1.
    9900012    2    1    2    0    0 -0.35462067580E+02  0.97488623407E+01  0.17336876454E+02  0.50528857865E+02  0.29999993966E+02 0.  0.
        -12    1    1    2    0    0  0.35462067580E+02 -0.97488623407E+01 -0.17336876454E+02  0.40659142135E+02  0.00000000000E+00 0.  1.
         11    1    3    3    0    0 -0.54680888563E+01  0.55824334720E+01 -0.41915848895E+00  0.78255513103E+01  0.51100000000E-03 0. -1.
        -11    1    3    3    0    0 -0.22099864886E+02  0.12312372127E+02  0.52836307740E+01  0.25844057147E+02  0.51100000000E-03 0.  1.
        -12    1    3    3    0    0 -0.78941138373E+01 -0.81459432580E+01  0.12472404169E+02  0.16859249408E+02  0.00000000000E+00 0.  1.
</event>
<event>
 7    1  0.2835316E-011  0.5052886E+02  0.7816164E-02  0.1300439E+00
        -11   -1    0    0    0    0  0.00000000000E+00  0.00000000000E+00  0.45593999997E+02  0.45594000000E+02  0.51100000000E-03 0.  1.
         11   -1    0    0    0    0 -0.00000000000E+00 -0.00000000000E+00 -0.45593999997E+02  0.45594000000E+02  0.51100000000E-03 0. -1.
    9900012    2    1    2    0    0  0.77973137207E+01  0.39723315472E+02 -0.37981601176E+01  0.50528856949E+02  0.29999991181E+02 0.  0.
        -12    1    1    2    0    0 -0.77973137207E+01 -0.39723315472E+02  0.37981601176E+01  0.40659143051E+02  0.00000000000E+00 0.  1.
         11    1    3    3    0    0 -0.12232693228E+01  0.17921628346E+02 -0.14117128879E+02  0.22846760787E+02  0.51100000000E-03 0. -1.
        -11    1    3    3    0    0  0.16925576041E+01  0.51478275040E+00  0.38834014649E+01  0.42673832406E+01  0.51100000000E-03 0.  1.
        -12    1    3    3    0    0  0.73280254394E+01  0.21286904376E+02  0.64355672964E+01  0.23414712921E+02  0.00000000000E+00 0.  1.
</event>
<event>
 7    1  0.2835316E-011  0.5052886E+02  0.7816164E-02  0.1300439E+00
        -11   -1    0    0    0    0  0.00000000000E+00  0.00000000000E+00  0.45593999997E+02  0.45594000000E+02  0.51100000000E-03 0. -1.
         11   -1    0    0    0    0 -0.00000000000E+00 -0.00000000000E+00 -0.45593999997E+02  0.45594000000E+02  0.51100000000E-03 0.  1.
    9900012    2    1    2    0    0  0.60976687414E+01  0.20230152567E+02  0.34737943163E+02  0.50528864099E+02  0.30000012916E+02 0.  0.
        -12    1    1    2    0    0 -0.60976687414E+01 -0.20230152567E+02 -0.34737943163E+02  0.40659135901E+02  0.00000000000E+00 0.  1.
         11    1    3    3    0    0 -0.40392821635E+01 -0.12635491323E+01  0.15270104232E+02  0.15845770424E+02  0.51100000000E-03 0. -1.
        -11    1    3    3    0    0  0.74160234645E+00  0.35424667507E+01 -0.28008089721E+01  0.45764151778E+01  0.51100000000E-03 0.  1.
        -12    1    3    3    0    0  0.93953485584E+01  0.17951234949E+02  0.22268647904E+02  0.30106678498E+02  0.00000000000E+00 0.  1.
</event>
<event>
 7    1  0.2835316E-011  0.5052885E+02  0.7816164E-02  0.1300439E+00
        -11   -1    0    0    0    0  0.00000000000E+00  0.00000000000E+00  0.45593999997E+02  0.45594000000E+02  0.51100000000E-03 0.  1.
         11   -1    0    0    0    0 -0.00000000000E+00 -0.00000000000E+00 -0.45593999997E+02  0.45594000000E+02  0.51100000000E-03 0. -1.
    9900012    2    1    2    0    0 -0.13765676966E+02 -0.35707990428E+02 -0.13733607196E+02  0.50528850853E+02  0.29999972651E+02 0.  0.
        -12    1    1    2    0    0  0.13765676966E+02  0.35707990428E+02  0.13733607196E+02  0.40659149147E+02  0.00000000000E+00 0.  1.
         11    1    3    3    0    0  0.28417023060E+01 -0.15267771900E+02 -0.57969801755E+01  0.16576643514E+02  0.51100000000E-03 0. -1.
        -11    1    3    3    0    0 -0.38495755591E+01  0.18754752886E+01  0.37715705245E+01  0.57062583210E+01  0.51100000000E-03 0.  1.
         12    1    3    3    0    0 -0.12757803713E+02 -0.22315693817E+02 -0.11708197545E+02  0.28245949017E+02  0.00000000000E+00 0. -1.
</event>
<event>
 7    1  0.2835316E-011  0.5052885E+02  0.7816164E-02  0.1300439E+00
        -11   -1    0    0    0    0  0.00000000000E+00  0.00000000000E+00  0.45593999997E+02  0.45594000000E+02  0.51100000000E-03 0. -1.
         11   -1    0    0    0    0 -0.00000000000E+00 -0.00000000000E+00 -0.45593999997E+02  0.45594000000E+02  0.51100000000E-03 0.  1.
    9900012    2    1    2    0    0  0.33969207440E+02 -0.17515191379E+02  0.13873632008E+02  0.50528847916E+02  0.29999963725E+02 0.  0.
        -12    1    1    2    0    0 -0.33969207440E+02  0.17515191379E+02 -0.13873632008E+02  0.40659152084E+02  0.00000000000E+00 0.  1.
         11    1    3    3    0    0  0.12173641304E+02  0.87065815715E+00  0.11648534599E+02  0.16871394335E+02  0.51100000000E-03 0. -1.
        -11    1    3    3    0    0  0.12394029417E+02  0.11647812071E+00 -0.17766188777E+01  0.12521258214E+02  0.51100000000E-03 0.  1.
         12    1    3    3    0    0  0.94015367182E+01 -0.18502327657E+02  0.40017162861E+01  0.21136195367E+02  0.00000000000E+00 0. -1.
</event>
<event>
 7    1  0.2835316E-011  0.5052887E+02  0.7816164E-02  0.1300439E+00
        -11   -1    0    0    0    0  0.00000000000E+00  0.00000000000E+00  0.45593999997E+02  0.45594000000E+02  0.51100000000E-03 0.  1.
         11   -1    0    0    0    0 -0.00000000000E+00 -0.00000000000E+00 -0.45593999997E+02  0.45594000000E+02  0.51100000000E-03 0. -1.
    9900012    2    1    2    0    0 -0.12264011112E+02 -0.11769196197E+02 -0.36935689167E+02  0.50528867177E+02  0.30000022270E+02 0.  0.
        -12    1    1    2    0    0  0.12264011112E+02  0.11769196197E+02  0.36935689167E+02  0.40659132823E+02  0.00000000000E+00 0.  1.
         11    1    3    3    0    0 -0.17141120913E+01 -0.35831143576E+01 -0.21677272630E+02  0.22038172286E+02  0.51100000000E-03 0. -1.
        -11    1    3    3    0    0  0.14357642205E+01  0.14236108482E+01  0.36230973510E+01  0.41490868176E+01  0.51100000000E-03 0.  1.
         12    1    3    3    0    0 -0.11985663241E+02 -0.96096926877E+01 -0.18881513888E+02  0.24341608073E+02  0.00000000000E+00 0. -1.
</event>
<event>
 7    1  0.2835316E-011  0.5052886E+02  0.7816164E-02  0.1300439E+00
        -11   -1    0    0    0    0  0.00000000000E+00  0.00000000000E+00  0.45593999997E+02  0.45594000000E+02  0.51100000000E-03 0. -1.
         11   -1    0    0    0    0 -0.00000000000E+00 -0.00000000000E+00 -0.45593999997E+02  0.45594000000E+02  0.51100000000E-03 0.  1.
    9900012    2    1    2    0    0  0.38037698707E+02  0.79888849090E+01  0.11936372117E+02  0.50528858539E+02  0.29999996016E+02 0.  0.
        -12    1    1    2    0    0 -0.38037698707E+02 -0.79888849090E+01 -0.11936372117E+02  0.40659141461E+02  0.00000000000E+00 0.  1.
         11    1    3    3    0    0  0.20119927524E+01 -0.37193715178E+01  0.20904360835E+01  0.47171773979E+01  0.51100000000E-03 0. -1.
        -11    1    3    3    0    0  0.20161847910E+02  0.18662115617E+01 -0.62196968702E+01  0.21181772498E+02  0.51100000000E-03 0.  1.
        -12    1    3    3    0    0  0.15863858045E+02  0.98420448651E+01  0.16065632904E+02  0.24629908643E+02  0.00000000000E+00 0.  1.
</event>
<event>
 7    1  0.2835316E-011  0.5052889E+02  0.7816164E-02  0.1300439E+00
        -11   -1    0    0    0    0  0.00000000000E+00  0.00000000000E+00  0.45593999997E+02  0.45594000000E+02  0.51100000000E-03 0. -1.
         11   -1    0    0    0    0 -0.00000000000E+00 -0.00000000000E+00 -0.45593999997E+02  0.45594000000E+02  0.51100000000E-03 0.  1.
    9900012    2    1    2    0    0  0.39412318726E+01 -0.12971508492E+02  0.38332362171E+02  0.50528888711E+02  0.30000087726E+02 0.  0.
        -12    1    1    2    0    0 -0.39412318726E+01  0.12971508492E+02 -0.38332362171E+02  0.40659111289E+02  0.00000000000E+00 0.  1.
         11    1    3    3    0    0 -0.19423959670E+01  0.16197067927E+00  0.15989084624E+01  0.25210404847E+01  0.51100000000E-03 0. -1.
        -11    1    3    3    0    0 -0.75361680541E+00  0.65303114825E+01  0.95058802010E+00  0.66420271148E+01  0.51100000000E-03 0.  1.
        -12    1    3    3    0    0  0.66372446450E+01 -0.19663790654E+02  0.35782865688E+02  0.41365821111E+02  0.00000000000E+00 0.  1.
</event>
<event>
 7    1  0.2835316E-011  0.5052886E+02  0.7816164E-02  0.1300439E+00
        -11   -1    0    0    0    0  0.00000000000E+00  0.00000000000E+00  0.45593999997E+02  0.45594000000E+02  0.51100000000E-03 0.  1.
         11   -1    0    0    0    0 -0.00000000000E+00 -0.00000000000E+00 -0.45593999997E+02  0.45594000000E+02  0.51100000000E-03 0. -1.
    9900012    2    1    2    0    0 -0.26729137837E+02 -0.22428410951E+02 -0.20873077313E+02  0.50528858546E+02  0.29999996036E+02 0.  0.
        -12    1    1    2    0    0  0.26729137837E+02  0.22428410951E+02  0.20873077313E+02  0.40659141454E+02  0.00000000000E+00 0.  1.
         11    1    3    3    0    0 -0.18194854723E+00 -0.32276084855E+01 -0.84061676204E+01  0.90063431055E+01  0.51100000000E-03 0.  1.
        -11    1    3    3    0    0 -0.17013820388E+02 -0.23301899922E+02 -0.11639520715E+02  0.31111526271E+02  0.51100000000E-03 0. -1.
         12    1    3    3    0    0 -0.95333689016E+01  0.41010974569E+01 -0.82738897753E+00  0.10410989169E+02  0.00000000000E+00 0. -1.
</event>
<event>
 7    1  0.2835316E-011  0.5052886E+02  0.7816164E-02  0.1300439E+00
        -11   -1    0    0    0    0  0.00000000000E+00  0.00000000000E+00  0.45593999997E+02  0.45594000000E+02  0.51100000000E-03 0. -1.
         11   -1    0    0    0    0 -0.00000000000E+00 -0.00000000000E+00 -0.45593999997E+02  0.45594000000E+02  0.51100000000E-03 0.  1.
    9900012    2    1    2    0    0  0.17425827960E+02  0.26251241584E+02  0.25697835104E+02  0.50528857193E+02  0.29999991923E+02 0.  0.
        -12    1    1    2    0    0 -0.17425827960E+02 -0.26251241584E+02 -0.25697835104E+02  0.40659142807E+02  0.00000000000E+00 0.  1.
         11    1    3    3    0    0  0.13086005307E+02  0.11483785378E+02  0.21317908356E+01  0.17540393209E+02  0.51100000000E-03 0. -1.
        -11    1    3    3    0    0 -0.24607714439E+01  0.62798212750E+01 -0.31011410368E+00  0.67518680647E+01  0.51100000000E-03 0.  1.
        -12    1    3    3    0    0  0.68005940966E+01  0.84876349309E+01  0.23876158372E+02  0.26236595919E+02  0.00000000000E+00 0.  1.
</event>
<event>
 7    1  0.2835316E-011  0.5052887E+02  0.7816164E-02  0.1300439E+00
        -11   -1    0    0    0    0  0.00000000000E+00  0.00000000000E+00  0.45593999997E+02  0.45594000000E+02  0.51100000000E-03 0.  1.
         11   -1    0    0    0    0 -0.00000000000E+00 -0.00000000000E+00 -0.45593999997E+02  0.45594000000E+02  0.51100000000E-03 0. -1.
    9900012    2    1    2    0    0  0.14601587996E+02 -0.20793757833E+02 -0.31742377200E+02  0.50528865146E+02  0.30000016096E+02 0.  0.
        -12    1    1    2    0    0 -0.14601587996E+02  0.20793757833E+02  0.31742377200E+02  0.40659134854E+02  0.00000000000E+00 0.  1.
         11    1    3    3    0    0  0.11227360363E+02 -0.73328527253E+01 -0.24538403216E+02  0.27963504474E+02  0.51100000000E-03 0. -1.
        -11    1    3    3    0    0 -0.14550640566E+01 -0.15813971857E+02 -0.64500679202E+01  0.17140661998E+02  0.51100000000E-03 0.  1.
         12    1    3    3    0    0  0.48292916894E+01  0.23530667492E+01 -0.75390606388E+00  0.54246986737E+01  0.00000000000E+00 0. -1.
</event>
<event>
 7    1  0.2835316E-011  0.5052886E+02  0.7816164E-02  0.1300439E+00
        -11   -1    0    0    0    0  0.00000000000E+00  0.00000000000E+00  0.45593999997E+02  0.45594000000E+02  0.51100000000E-03 0.  1.
         11   -1    0    0    0    0 -0.00000000000E+00 -0.00000000000E+00 -0.45593999997E+02  0.45594000000E+02  0.51100000000E-03 0. -1.
    9900012    2    1    2    0    0 -0.18271256888E+02 -0.20745108788E+02 -0.29815558590E+02  0.50528857106E+02  0.29999991659E+02 0.  0.
        -12    1    1    2    0    0  0.18271256888E+02  0.20745108788E+02  0.29815558590E+02  0.40659142894E+02  0.00000000000E+00 0.  1.
         11    1    3    3    0    0  0.17014501499E+01 -0.79815778337E+00 -0.69582929504E+01  0.72076230135E+01  0.51100000000E-03 0. -1.
        -11    1    3    3    0    0 -0.98614489926E+01 -0.23503728390E+02 -0.19489429271E+02  0.32085998162E+02  0.51100000000E-03 0.  1.
         12    1    3    3    0    0 -0.10111258045E+02  0.35567773847E+01 -0.33678363678E+01  0.11235235931E+02  0.00000000000E+00 0. -1.
</event>
<event>
 7    1  0.2835316E-011  0.5052885E+02  0.7816164E-02  0.1300439E+00
        -11   -1    0    0    0    0  0.00000000000E+00  0.00000000000E+00  0.45593999997E+02  0.45594000000E+02  0.51100000000E-03 0.  1.
         11   -1    0    0    0    0 -0.00000000000E+00 -0.00000000000E+00 -0.45593999997E+02  0.45594000000E+02  0.51100000000E-03 0. -1.
    9900012    2    1    2    0    0  0.19352956558E+02 -0.34378859943E+02  0.98347990961E+01  0.50528853283E+02  0.29999980038E+02 0.  0.
        -12    1    1    2    0    0 -0.19352956558E+02  0.34378859943E+02 -0.98347990961E+01  0.40659146717E+02  0.00000000000E+00 0.  1.
         11    1    3    3    0    0 -0.42700758315E+01 -0.18152635879E+00  0.27938528822E-01  0.42740238942E+01  0.51100000000E-03 0.  1.
        -11    1    3    3    0    0  0.16727155863E+02 -0.16138478057E+02 -0.24403574373E+01  0.23370998309E+02  0.51100000000E-03 0. -1.
         12    1    3    3    0    0  0.68958765266E+01 -0.18058855528E+02  0.12247218005E+02  0.22883831080E+02  0.00000000000E+00 0. -1.
</event>
<event>
 7    1  0.2835316E-011  0.5052889E+02  0.7816164E-02  0.1300439E+00
        -11   -1    0    0    0    0  0.00000000000E+00  0.00000000000E+00  0.45593999997E+02  0.45594000000E+02  0.51100000000E-03 0. -1.
         11   -1    0    0    0    0 -0.00000000000E+00 -0.00000000000E+00 -0.45593999997E+02  0.45594000000E+02  0.51100000000E-03 0.  1.
    9900012    2    1    2    0    0  0.48889387312E+01  0.38663894714E+02  0.11591584600E+02  0.50528888968E+02  0.30000088508E+02 0.  0.
        -12    1    1    2    0    0 -0.48889387312E+01 -0.38663894714E+02 -0.11591584600E+02  0.40659111032E+02  0.00000000000E+00 0.  1.
         11    1    3    3    0    0  0.12797827840E+02  0.22655489391E+02  0.22225494967E+01  0.26115040178E+02  0.51100000000E-03 0. -1.
        -11    1    3    3    0    0  0.34435013326E+01  0.67496219061E+01  0.51756441314E+01  0.91761860126E+01  0.51100000000E-03 0.  1.
        -12    1    3    3    0    0 -0.11352390441E+02  0.92587834166E+01  0.41933909717E+01  0.15237662778E+02  0.00000000000E+00 0.  1.
</event>
<event>
 7    1  0.2835316E-011  0.5052886E+02  0.7816164E-02  0.1300439E+00
        -11   -1    0    0    0    0  0.00000000000E+00  0.00000000000E+00  0.45593999997E+02  0.45594000000E+02  0.51100000000E-03 0.  1.
         11   -1    0    0    0    0 -0.00000000000E+00 -0.00000000000E+00 -0.45593999997E+02  0.45594000000E+02  0.51100000000E-03 0. -1.
    9900012    2    1    2    0    0  0.13263544023E+02  0.31189947230E+02 -0.22459548308E+02  0.50528859350E+02  0.29999998479E+02 0.  0.
        -12    1    1    2    0    0 -0.13263544023E+02 -0.31189947230E+02  0.22459548308E+02  0.40659140650E+02  0.00000000000E+00 0.  1.
         11    1    3    3    0    0 -0.23413219333E+01  0.54085539681E+01  0.37054184187E+01  0.69616356081E+01  0.51100000000E-03 0. -1.
        -11    1    3    3    0    0  0.33291016245E+01 -0.23947180782E+01 -0.31303507105E+01  0.51591363747E+01  0.51100000000E-03 0.  1.
         12    1    3    3    0    0  0.12275764331E+02  0.28176111340E+02 -0.23034616016E+02  0.38408087367E+02  0.00000000000E+00 0. -1.
</event>
<event>
 7    1  0.2835316E-011  0.5052887E+02  0.7816164E-02  0.1300439E+00
        -11   -1    0    0    0    0  0.00000000000E+00  0.00000000000E+00  0.45593999997E+02  0.45594000000E+02  0.51100000000E-03 0.  1.
         11   -1    0    0    0    0 -0.00000000000E+00 -0.00000000000E+00 -0.45593999997E+02  0.45594000000E+02  0.51100000000E-03 0. -1.
    9900012    2    1    2    0    0 -0.21649707923E+02 -0.95597449694E+00 -0.34402637702E+02  0.50528865464E+02  0.30000017064E+02 0.  0.
        -12    1    1    2    0    0  0.21649707923E+02  0.95597449694E+00  0.34402637702E+02  0.40659134536E+02  0.00000000000E+00 0.  1.
         11    1    3    3    0    0 -0.14876805449E+02  0.97789641316E+01 -0.12173347823E+02  0.21567055370E+02  0.51100000000E-03 0. -1.
        -11    1    3    3    0    0  0.21026391567E+01 -0.18682802375E+01  0.63338609727E+00  0.28831823873E+01  0.51100000000E-03 0.  1.
        -12    1    3    3    0    0 -0.88755416302E+01 -0.88666583910E+01 -0.22862675977E+02  0.26078627707E+02  0.00000000000E+00 0.  1.
</event>
<event>
 7    1  0.2835316E-011  0.5052886E+02  0.7816164E-02  0.1300439E+00
        -11   -1    0    0    0    0  0.00000000000E+00  0.00000000000E+00  0.45593999997E+02  0.45594000000E+02  0.51100000000E-03 0.  1.
         11   -1    0    0    0    0 -0.00000000000E+00 -0.00000000000E+00 -0.45593999997E+02  0.45594000000E+02  0.51100000000E-03 0. -1.
    9900012    2    1    2    0    0  0.20306395292E+02  0.21834640078E+02 -0.27641710916E+02  0.50528863519E+02  0.30000011151E+02 0.  0.
        -12    1    1    2    0    0 -0.20306395292E+02 -0.21834640078E+02  0.27641710916E+02  0.40659136481E+02  0.00000000000E+00 0.  1.
         11    1    3    3    0    0  0.32896898844E+01  0.20674507842E+02 -0.16628570806E+02  0.26735121120E+02  0.51100000000E-03 0. -1.
        -11    1    3    3    0    0  0.11099257039E+02  0.46991783963E+01 -0.16495092521E+01  0.12165388011E+02  0.51100000000E-03 0.  1.
        -12    1    3    3    0    0  0.59174483684E+01 -0.35390461601E+01 -0.93636308579E+01  0.11628354387E+02  0.00000000000E+00 0.  1.
</event>
<event>
 7    1  0.2835316E-011  0.5052886E+02  0.7816164E-02  0.1300439E+00
        -11   -1    0    0    0    0  0.00000000000E+00  0.00000000000E+00  0.45593999997E+02  0.45594000000E+02  0.51100000000E-03 0.  1.
         11   -1    0    0    0    0 -0.00000000000E+00 -0.00000000000E+00 -0.45593999997E+02  0.45594000000E+02  0.51100000000E-03 0. -1.
    9900012    2    1    2    0    0 -0.23866548582E+02  0.28319368175E+02 -0.16779957414E+02  0.50528859259E+02  0.29999998202E+02 0.  0.
        -12    1    1    2    0    0  0.23866548582E+02 -0.28319368175E+02  0.16779957414E+02  0.40659140741E+02  0.00000000000E+00 0.  1.
         11    1    3    3    0    0 -0.86618219833E+01 -0.31072430280E+01  0.30952360730E+01  0.97088931354E+01  0.51100000000E-03 0.  1.
        -11    1    3    3    0    0 -0.71752376724E+01  0.78874079412E+01 -0.44516569569E+01  0.11554760474E+02  0.51100000000E-03 0. -1.
        -12    1    3    3    0    0 -0.80294889260E+01  0.23539203262E+02 -0.15423536530E+02  0.29265205649E+02  0.00000000000E+00 0.  1.
</event>
<event>
 7    1  0.2835316E-011  0.5052886E+02  0.7816164E-02  0.1300439E+00
        -11   -1    0    0    0    0  0.00000000000E+00  0.00000000000E+00  0.45593999997E+02  0.45594000000E+02  0.51100000000E-03 0.  1.
         11   -1    0    0    0    0 -0.00000000000E+00 -0.00000000000E+00 -0.45593999997E+02  0.45594000000E+02  0.51100000000E-03 0. -1.
    9900012    2    1    2    0    0  0.25790909529E+02 -0.10047918905E+02 -0.29783115994E+02  0.50528859736E+02  0.29999999654E+02 0.  0.
        -12    1    1    2    0    0 -0.25790909529E+02  0.10047918905E+02  0.29783115994E+02  0.40659140264E+02  0.00000000000E+00 0.  1.
         11    1    3    3    0    0  0.28320680932E+01  0.45604141559E+01 -0.10010362883E+02  0.11358932708E+02  0.51100000000E-03 0. -1.
        -11    1    3    3    0    0  0.17161520715E+02  0.96860302046E+00 -0.97732559279E+01  0.19773024978E+02  0.51100000000E-03 0.  1.
        -12    1    3    3    0    0  0.57973207203E+01 -0.15576936082E+02 -0.99994971838E+01  0.19396902050E+02  0.00000000000E+00 0.  1.
</event>
<event>
 7    1  0.2835316E-011  0.5052887E+02  0.7816164E-02  0.1300439E+00
        -11   -1    0    0    0    0  0.00000000000E+00  0.00000000000E+00  0.45593999997E+02  0.45594000000E+02  0.51100000000E-03 0.  1.
         11   -1    0    0    0    0 -0.00000000000E+00 -0.00000000000E+00 -0.45593999997E+02  0.45594000000E+02  0.51100000000E-03 0. -1.
    9900012    2    1    2    0    0 -0.13527896798E+02  0.37297365827E+02 -0.88920059000E+01  0.50528865008E+02  0.30000015677E+02 0.  0.
        -12    1    1    2    0    0  0.13527896798E+02 -0.37297365827E+02  0.88920059000E+01  0.40659134992E+02  0.00000000000E+00 0.  1.
         11    1    3    3    0    0 -0.18624094269E+01  0.36123661471E+01 -0.22930202220E+01  0.46664440481E+01  0.51100000000E-03 0. -1.
        -11    1    3    3    0    0 -0.94848044606E+01  0.27086104875E+01 -0.10684750408E+02  0.14541732290E+02  0.51100000000E-03 0.  1.
         12    1    3    3    0    0 -0.21806829109E+01  0.30976389192E+02  0.40857647304E+01  0.31320688670E+02  0.00000000000E+00 0. -1.
</event>
<event>
 7    1  0.2835316E-011  0.5052886E+02  0.7816164E-02  0.1300439E+00
        -11   -1    0    0    0    0  0.00000000000E+00  0.00000000000E+00  0.45593999997E+02  0.45594000000E+02  0.51100000000E-03 0.  1.
         11   -1    0    0    0    0 -0.00000000000E+00 -0.00000000000E+00 -0.45593999997E+02  0.45594000000E+02  0.51100000000E-03 0. -1.
    9900012    2    1    2    0    0  0.46694216002E+01 -0.40140048385E+02 -0.44875920929E+01  0.50528862464E+02  0.30000007944E+02 0.  0.
        -12    1    1    2    0    0 -0.46694216002E+01  0.40140048385E+02  0.44875920929E+01  0.40659137536E+02  0.00000000000E+00 0.  1.
         11    1    3    3    0    0  0.48831541344E+01 -0.76051376086E+01 -0.11143424374E+02  0.14347794931E+02  0.51100000000E-03 0. -1.
        -11    1    3    3    0    0 -0.44656146807E+01 -0.22869785682E+01  0.83917873966E+00  0.50868660948E+01  0.51100000000E-03 0.  1.
        -12    1    3    3    0    0  0.42518821466E+01 -0.30247932208E+02  0.58166535413E+01  0.31094201438E+02  0.00000000000E+00 0.  1.
</event>
<event>
 7    1  0.2835316E-011  0.5052886E+02  0.7816164E-02  0.1300439E+00
        -11   -1    0    0    0    0  0.00000000000E+00  0.00000000000E+00  0.45593999997E+02  0.45594000000E+02  0.51100000000E-03 0.  1.
         11   -1    0    0    0    0 -0.00000000000E+00 -0.00000000000E+00 -0.45593999997E+02  0.45594000000E+02  0.51100000000E-03 0. -1.
    9900012    2    1    2    0    0 -0.14375362315E+02 -0.33576393857E+02  0.17864502212E+02  0.50528859509E+02  0.29999998965E+02 0.  0.
        -12    1    1    2    0    0  0.14375362315E+02  0.33576393857E+02 -0.17864502212E+02  0.40659140491E+02  0.00000000000E+00 0.  1.
         11    1    3    3    0    0 -0.60344467837E+01 -0.21467761881E+02  0.55514516984E+01  0.22980382164E+02  0.51100000000E-03 0. -1.
        -11    1    3    3    0    0 -0.53318945290E+01 -0.10560963390E+02  0.17638697772E+02  0.21238801905E+02  0.51100000000E-03 0.  1.
         12    1    3    3    0    0 -0.30090210021E+01 -0.15476685861E+01 -0.53256472588E+01  0.63096754408E+01  0.00000000000E+00 0. -1.
</event>
<event>
 7    1  0.2835316E-011  0.5052886E+02  0.7816164E-02  0.1300439E+00
        -11   -1    0    0    0    0  0.00000000000E+00  0.00000000000E+00  0.45593999997E+02  0.45594000000E+02  0.51100000000E-03 0.  1.
         11   -1    0    0    0    0 -0.00000000000E+00 -0.00000000000E+00 -0.45593999997E+02  0.45594000000E+02  0.51100000000E-03 0. -1.
    9900012    2    1    2    0    0  0.23267877672E+01 -0.33383668584E+02 -0.23092911597E+02  0.50528857911E+02  0.29999994105E+02 0.  0.
        -12    1    1    2    0    0 -0.23267877672E+01  0.33383668584E+02  0.23092911597E+02  0.40659142089E+02  0.00000000000E+00 0.  1.
         11    1    3    3    0    0  0.99870126036E+01 -0.12771162788E+02 -0.25191846110E+01  0.16406989702E+02  0.51100000000E-03 0. -1.
        -11    1    3    3    0    0 -0.35808731963E+01  0.15972055734E+01 -0.58450849538E+00  0.39642614613E+01  0.51100000000E-03 0.  1.
         12    1    3    3    0    0 -0.40793516401E+01 -0.22209711369E+02 -0.19989218490E+02  0.30157606748E+02  0.00000000000E+00 0. -1.
</event>
<event>
 7    1  0.2835316E-011  0.5052883E+02  0.7816164E-02  0.1300439E+00
        -11   -1    0    0    0    0  0.00000000000E+00  0.00000000000E+00  0.45593999997E+02  0.45594000000E+02  0.51100000000E-03 0.  1.
         11   -1    0    0    0    0 -0.00000000000E+00 -0.00000000000E+00 -0.45593999997E+02  0.45594000000E+02  0.51100000000E-03 0. -1.
    9900012    2    1    2    0    0  0.18079361709E+02  0.13195288436E+02 -0.33943913793E+02  0.50528828337E+02  0.29999904214E+02 0.  0.
        -12    1    1    2    0    0 -0.18079361709E+02 -0.13195288436E+02  0.33943913793E+02  0.40659171663E+02  0.00000000000E+00 0.  1.
         11    1    3    3    0    0  0.38478915761E+01  0.12075587356E+02 -0.30278555735E+02  0.32824031094E+02  0.51100000000E-03 0. -1.
        -11    1    3    3    0    0  0.28761224604E+01  0.40128041279E+01  0.10943775423E+01  0.50569101082E+01  0.51100000000E-03 0.  1.
        -12    1    3    3    0    0  0.11355347672E+02 -0.28931030486E+01 -0.47597356002E+01  0.12647887136E+02  0.00000000000E+00 0.  1.
</event>
<event>
 7    1  0.2835316E-011  0.5052885E+02  0.7816164E-02  0.1300439E+00
        -11   -1    0    0    0    0  0.00000000000E+00  0.00000000000E+00  0.45593999997E+02  0.45594000000E+02  0.51100000000E-03 0.  1.
         11   -1    0    0    0    0 -0.00000000000E+00 -0.00000000000E+00 -0.45593999997E+02  0.45594000000E+02  0.51100000000E-03 0. -1.
    9900012    2    1    2    0    0  0.38617368556E+01  0.22236539532E+02 -0.33819965132E+02  0.50528846744E+02  0.29999960164E+02 0.  0.
        -12    1    1    2    0    0 -0.38617368556E+01 -0.22236539532E+02  0.33819965132E+02  0.40659153256E+02  0.00000000000E+00 0.  1.
         11    1    3    3    0    0 -0.22049232532E+01  0.54635504987E+01  0.34433056251E+01  0.68241061314E+01  0.51100000000E-03 0. -1.
        -11    1    3    3    0    0  0.39543173955E+01 -0.12997405196E+01 -0.39094629856E+01  0.57105037063E+01  0.51100000000E-03 0.  1.
         12    1    3    3    0    0  0.21123427132E+01  0.18072729553E+02 -0.33353807772E+02  0.37994236907E+02  0.00000000000E+00 0. -1.
</event>
<event>
 7    1  0.2835316E-011  0.5052898E+02  0.7816164E-02  0.1300438E+00
        -11   -1    0    0    0    0  0.00000000000E+00  0.00000000000E+00  0.45593999997E+02  0.45594000000E+02  0.51100000000E-03 0.  1.
         11   -1    0    0    0    0 -0.00000000000E+00 -0.00000000000E+00 -0.45593999997E+02  0.45594000000E+02  0.51100000000E-03 0. -1.
    9900012    2    1    2    0    0 -0.29789266199E+02  0.27250604561E+02  0.48124679989E+01  0.50528982822E+02  0.30000373784E+02 0.  0.
        -12    1    1    2    0    0  0.29789266199E+02 -0.27250604561E+02 -0.48124679989E+01  0.40659017178E+02  0.00000000000E+00 0.  1.
         11    1    3    3    0    0 -0.14956035189E+02  0.16583725472E+02 -0.70620606915E+01  0.23421691668E+02  0.51100000000E-03 0. -1.
        -11    1    3    3    0    0  0.67099140654E+00 -0.21814098078E+01 -0.16802005503E+01  0.28340522873E+01  0.51100000000E-03 0.  1.
        -12    1    3    3    0    0 -0.15504222416E+02  0.12848288897E+02  0.13554729241E+02  0.24273238867E+02  0.00000000000E+00 0.  1.
</event>
<event>
 7    1  0.2835316E-011  0.5052880E+02  0.7816164E-02  0.1300439E+00
        -11   -1    0    0    0    0  0.00000000000E+00  0.00000000000E+00  0.45593999997E+02  0.45594000000E+02  0.51100000000E-03 0.  1.
         11   -1    0    0    0    0 -0.00000000000E+00 -0.00000000000E+00 -0.45593999997E+02  0.45594000000E+02  0.51100000000E-03 0. -1.
    9900012    2    1    2    0    0  0.19895903426E+02  0.34488586452E+02 -0.82377682270E+01  0.50528801853E+02  0.29999823713E+02 0.  0.
        -12    1    1    2    0    0 -0.19895903426E+02 -0.34488586452E+02  0.82377682270E+01  0.40659198147E+02  0.00000000000E+00 0.  1.
         11    1    3    3    0    0  0.82106975866E+01  0.32222067523E+02 -0.17312340234E+01  0.33296762032E+02  0.51100000000E-03 0. -1.
        -11    1    3    3    0    0  0.50225407110E+01  0.18338991393E+01  0.25956721962E+01  0.59436197437E+01  0.51100000000E-03 0.  1.
        -12    1    3    3    0    0  0.66626651283E+01  0.43261978917E+00 -0.91022063999E+01  0.11288420077E+02  0.00000000000E+00 0.  1.
</event>
<event>
 7    1  0.2835316E-011  0.5052891E+02  0.7816164E-02  0.1300439E+00
        -11   -1    0    0    0    0  0.00000000000E+00  0.00000000000E+00  0.45593999997E+02  0.45594000000E+02  0.51100000000E-03 0.  1.
         11   -1    0    0    0    0 -0.00000000000E+00 -0.00000000000E+00 -0.45593999997E+02  0.45594000000E+02  0.51100000000E-03 0. -1.
    9900012    2    1    2    0    0 -0.35806139993E+02  0.19263483183E+02  0.19380602009E-01  0.50528907276E+02  0.30000144155E+02 0.  0.
        -12    1    1    2    0    0  0.35806139993E+02 -0.19263483183E+02 -0.19380602009E-01  0.40659092724E+02  0.00000000000E+00 0.  1.
         11    1    3    3    0    0 -0.16477226113E+02  0.66829075284E+01 -0.31382092101E+00  0.17783664337E+02  0.51100000000E-03 0.  1.
        -11    1    3    3    0    0  0.35085454175E+01 -0.33475836375E+01  0.69870539825E+00  0.48994281964E+01  0.51100000000E-03 0. -1.
         12    1    3    3    0    0 -0.22837459298E+02  0.15928159292E+02 -0.36550387523E+00  0.27845814743E+02  0.00000000000E+00 0. -1.
</event>
<event>
 7    1  0.2835316E-011  0.5052886E+02  0.7816164E-02  0.1300439E+00
        -11   -1    0    0    0    0  0.00000000000E+00  0.00000000000E+00  0.45593999997E+02  0.45594000000E+02  0.51100000000E-03 0.  1.
         11   -1    0    0    0    0 -0.00000000000E+00 -0.00000000000E+00 -0.45593999997E+02  0.45594000000E+02  0.51100000000E-03 0. -1.
    9900012    2    1    2    0    0  0.25137607102E+01  0.27433193141E+02 -0.29904290403E+02  0.50528860027E+02  0.30000000538E+02 0.  0.
        -12    1    1    2    0    0 -0.25137607102E+01 -0.27433193141E+02  0.29904290403E+02  0.40659139973E+02  0.00000000000E+00 0.  1.
         11    1    3    3    0    0 -0.69784646311E+01  0.85442700977E+01 -0.14690886753E+02  0.18371871814E+02  0.51100000000E-03 0. -1.
        -11    1    3    3    0    0 -0.40306151917E+01  0.74543619896E+01  0.48962743259E+00  0.84884101444E+01  0.51100000000E-03 0.  1.
        -12    1    3    3    0    0  0.13522840533E+02  0.11434561054E+02 -0.15703031083E+02  0.23668578068E+02  0.00000000000E+00 0.  1.
</event>
<event>
 7    1  0.2835316E-011  0.5052878E+02  0.7816164E-02  0.1300439E+00
        -11   -1    0    0    0    0  0.00000000000E+00  0.00000000000E+00  0.45593999997E+02  0.45594000000E+02  0.51100000000E-03 0. -1.
         11   -1    0    0    0    0 -0.00000000000E+00 -0.00000000000E+00 -0.45593999997E+02  0.45594000000E+02  0.51100000000E-03 0.  1.
    9900012    2    1    2    0    0 -0.23155964647E+02 -0.27469960606E+02 -0.19036133897E+02  0.50528784215E+02  0.29999770100E+02 0.  0.
        -12    1    1    2    0    0  0.23155964647E+02  0.27469960606E+02  0.19036133897E+02  0.40659215785E+02  0.00000000000E+00 0.  1.
         11    1    3    3    0    0  0.47122232504E+01 -0.45881856348E+01 -0.47816295610E+01  0.81314498646E+01  0.51100000000E-03 0. -1.
        -11    1    3    3    0    0 -0.12258131754E+02 -0.15651048703E+02 -0.15412838571E+02  0.25154973915E+02  0.51100000000E-03 0.  1.
        -12    1    3    3    0    0 -0.15610056144E+02 -0.72307262686E+01  0.11583342349E+01  0.17242360435E+02  0.00000000000E+00 0.  1.
</event>
<event>
 7    1  0.2835316E-011  0.5052888E+02  0.7816164E-02  0.1300439E+00
        -11   -1    0    0    0    0  0.00000000000E+00  0.00000000000E+00  0.45593999997E+02  0.45594000000E+02  0.51100000000E-03 0.  1.
         11   -1    0    0    0    0 -0.00000000000E+00 -0.00000000000E+00 -0.45593999997E+02  0.45594000000E+02  0.51100000000E-03 0. -1.
    9900012    2    1    2    0    0 -0.35628857724E+00  0.11759700680E+02 -0.38919741861E+02  0.50528882841E+02  0.30000069882E+02 0.  0.
        -12    1    1    2    0    0  0.35628857724E+00 -0.11759700680E+02  0.38919741861E+02  0.40659117159E+02  0.00000000000E+00 0.  1.
         11    1    3    3    0    0  0.10565667685E+01  0.14276144849E+02 -0.32659805342E+02  0.35659325993E+02  0.51100000000E-03 0. -1.
        -11    1    3    3    0    0  0.50967281370E+01  0.18032966796E+01 -0.40360473953E+01  0.67467173837E+01  0.51100000000E-03 0.  1.
         12    1    3    3    0    0 -0.65095834828E+01 -0.43197408484E+01 -0.22238891244E+01  0.81228394638E+01  0.00000000000E+00 0. -1.
</event>
<event>
 7    1  0.2835316E-011  0.5052886E+02  0.7816164E-02  0.1300439E+00
        -11   -1    0    0    0    0  0.00000000000E+00  0.00000000000E+00  0.45593999997E+02  0.45594000000E+02  0.51100000000E-03 0.  1.
         11   -1    0    0    0    0 -0.00000000000E+00 -0.00000000000E+00 -0.45593999997E+02  0.45594000000E+02  0.51100000000E-03 0. -1.
    9900012    2    1    2    0    0 -0.22803560076E+02 -0.15826265069E+02 -0.29710145940E+02  0.50528858470E+02  0.29999995806E+02 0.  0.
        -12    1    1    2    0    0  0.22803560076E+02  0.15826265069E+02  0.29710145940E+02  0.40659141530E+02  0.00000000000E+00 0.  1.
         11    1    3    3    0    0 -0.22892613004E+02 -0.20780543564E+02 -0.27210424884E+02  0.41186283440E+02  0.51100000000E-03 0. -1.
        -11    1    3    3    0    0 -0.35295051814E+01  0.13853695758E+01 -0.29676186086E+00  0.38032517075E+01  0.51100000000E-03 0.  1.
        -12    1    3    3    0    0  0.36185581094E+01  0.35689089188E+01 -0.22029591947E+01  0.55393233229E+01  0.00000000000E+00 0.  1.
</event>
<event>
 7    1  0.2835316E-011  0.5052887E+02  0.7816164E-02  0.1300439E+00
        -11   -1    0    0    0    0  0.00000000000E+00  0.00000000000E+00  0.45593999997E+02  0.45594000000E+02  0.51100000000E-03 0.  1.
         11   -1    0    0    0    0 -0.00000000000E+00 -0.00000000000E+00 -0.45593999997E+02  0.45594000000E+02  0.51100000000E-03 0. -1.
    9900012    2    1    2    0    0 -0.14898236130E+02  0.35789517726E+02 -0.12260432482E+02  0.50528865436E+02  0.30000016979E+02 0.  0.
        -12    1    1    2    0    0  0.14898236130E+02 -0.35789517726E+02  0.12260432482E+02  0.40659134564E+02  0.00000000000E+00 0.  1.
         11    1    3    3    0    0 -0.82678470239E+01  0.52101235592E+01  0.56323657394E+01  0.11279460359E+02  0.51100000000E-03 0. -1.
        -11    1    3    3    0    0  0.28910293590E+01  0.34786029242E+01 -0.73908660124E+01  0.86650810575E+01  0.51100000000E-03 0.  1.
         12    1    3    3    0    0 -0.95214184647E+01  0.27100791243E+02 -0.10501932209E+02  0.30584324019E+02  0.00000000000E+00 0. -1.
</event>
<event>
 7    1  0.2835316E-011  0.5052894E+02  0.7816164E-02  0.1300438E+00
        -11   -1    0    0    0    0  0.00000000000E+00  0.00000000000E+00  0.45593999997E+02  0.45594000000E+02  0.51100000000E-03 0.  1.
         11   -1    0    0    0    0 -0.00000000000E+00 -0.00000000000E+00 -0.45593999997E+02  0.45594000000E+02  0.51100000000E-03 0. -1.
    9900012    2    1    2    0    0 -0.74039041406E+01  0.35268461072E+02 -0.18827551579E+02  0.50528943919E+02  0.30000255536E+02 0.  0.
        -12    1    1    2    0    0  0.74039041406E+01 -0.35268461072E+02  0.18827551579E+02  0.40659056081E+02  0.00000000000E+00 0.  1.
         11    1    3    3    0    0 -0.29837264501E+01  0.14958904481E+02 -0.98663392390E+01  0.18166345176E+02  0.51100000000E-03 0. -1.
        -11    1    3    3    0    0  0.21521485015E+01  0.20351617527E+02  0.93072780748E+00  0.20486247427E+02  0.51100000000E-03 0.  1.
        -12    1    3    3    0    0 -0.65723261921E+01 -0.42060936418E-01 -0.98919401477E+01  0.11876351316E+02  0.00000000000E+00 0.  1.
</event>
<event>
 7    1  0.2835316E-011  0.5052889E+02  0.7816164E-02  0.1300439E+00
        -11   -1    0    0    0    0  0.00000000000E+00  0.00000000000E+00  0.45593999997E+02  0.45594000000E+02  0.51100000000E-03 0.  1.
         11   -1    0    0    0    0 -0.00000000000E+00 -0.00000000000E+00 -0.45593999997E+02  0.45594000000E+02  0.51100000000E-03 0. -1.
    9900012    2    1    2    0    0 -0.22980253110E+02 -0.14669995173E+02 -0.30163931549E+02  0.50528885919E+02  0.30000079240E+02 0.  0.
        -12    1    1    2    0    0  0.22980253110E+02  0.14669995173E+02  0.30163931549E+02  0.40659114081E+02  0.00000000000E+00 0.  1.
         11    1    3    3    0    0 -0.43643019003E+01 -0.13004685345E+02 -0.31583644715E+01  0.14076371634E+02  0.51100000000E-03 0. -1.
        -11    1    3    3    0    0 -0.13972043058E+02  0.50429048378E+01 -0.10987554523E+02  0.18476342470E+02  0.51100000000E-03 0.  1.
        -12    1    3    3    0    0 -0.46439081512E+01 -0.67082146661E+01 -0.16018012554E+02  0.17976171815E+02  0.00000000000E+00 0.  1.
</event>
<event>
 7    1  0.2835316E-011  0.5052886E+02  0.7816164E-02  0.1300439E+00
        -11   -1    0    0    0    0  0.00000000000E+00  0.00000000000E+00  0.45593999997E+02  0.45594000000E+02  0.51100000000E-03 0.  1.
         11   -1    0    0    0    0 -0.00000000000E+00 -0.00000000000E+00 -0.45593999997E+02  0.45594000000E+02  0.51100000000E-03 0. -1.
    9900012    2    1    2    0    0  0.23991034051E+02  0.31728667819E+02 -0.84194957773E+01  0.50528856065E+02  0.29999988494E+02 0.  0.
        -12    1    1    2    0    0 -0.23991034051E+02 -0.31728667819E+02  0.84194957773E+01  0.40659143935E+02  0.00000000000E+00 0.  1.
         11    1    3    3    0    0  0.85998921080E+01  0.14996574459E+02 -0.12988812926E+02  0.21623243311E+02  0.51100000000E-03 0. -1.
        -11    1    3    3    0    0 -0.27471541225E+00  0.11697533747E+02 -0.42788698869E+00  0.11708580266E+02  0.51100000000E-03 0.  1.
         12    1    3    3    0    0  0.15665857356E+02  0.50345596124E+01  0.49972041375E+01  0.17197032487E+02  0.00000000000E+00 0. -1.
</event>
<event>
 7    1  0.2835316E-011  0.5052886E+02  0.7816164E-02  0.1300439E+00
        -11   -1    0    0    0    0  0.00000000000E+00  0.00000000000E+00  0.45593999997E+02  0.45594000000E+02  0.51100000000E-03 0.  1.
         11   -1    0    0    0    0 -0.00000000000E+00 -0.00000000000E+00 -0.45593999997E+02  0.45594000000E+02  0.51100000000E-03 0. -1.
    9900012    2    1    2    0    0 -0.38189699204E+02  0.42671510372E+01 -0.13285474942E+02  0.50528861449E+02  0.30000004860E+02 0.  0.
        -12    1    1    2    0    0  0.38189699204E+02 -0.42671510372E+01  0.13285474942E+02  0.40659138551E+02  0.00000000000E+00 0.  1.
         11    1    3    3    0    0 -0.13072830609E+02 -0.24735132001E-02 -0.24079699749E+01  0.13292750879E+02  0.51100000000E-03 0.  1.
        -11    1    3    3    0    0 -0.28974575654E+02 -0.19759233260E+00 -0.11754917345E+02  0.31268884840E+02  0.51100000000E-03 0. -1.
        -12    1    3    3    0    0  0.38577070595E+01  0.44672168830E+01  0.87741237816E+00  0.59672257304E+01  0.00000000000E+00 0.  1.
</event>
<event>
 7    1  0.2835316E-011  0.5052886E+02  0.7816164E-02  0.1300439E+00
        -11   -1    0    0    0    0  0.00000000000E+00  0.00000000000E+00  0.45593999997E+02  0.45594000000E+02  0.51100000000E-03 0.  1.
         11   -1    0    0    0    0 -0.00000000000E+00 -0.00000000000E+00 -0.45593999997E+02  0.45594000000E+02  0.51100000000E-03 0. -1.
    9900012    2    1    2    0    0 -0.29637375262E+02 -0.25955064746E+02 -0.10056159237E+02  0.50528859122E+02  0.29999997786E+02 0.  0.
        -12    1    1    2    0    0  0.29637375262E+02  0.25955064746E+02  0.10056159237E+02  0.40659140878E+02  0.00000000000E+00 0.  1.
         11    1    3    3    0    0 -0.25131260518E+02 -0.83709452190E+01 -0.50424147738E+01  0.26964401089E+02  0.51100000000E-03 0. -1.
        -11    1    3    3    0    0  0.43315882094E+01 -0.17278468094E+01  0.23074729069E+00  0.46691921770E+01  0.51100000000E-03 0.  1.
        -12    1    3    3    0    0 -0.88377029526E+01 -0.15856272718E+02 -0.52444917537E+01  0.18895265855E+02  0.00000000000E+00 0.  1.
</event>
<event>
 7    1  0.3420313E-011  0.5052886E+02  0.7816164E-02  0.1300439E+00
        -11   -1    0    0    0    0  0.00000000000E+00  0.00000000000E+00  0.45593999997E+02  0.45594000000E+02  0.51100000000E-03 0. -1.
         11   -1    0    0    0    0 -0.00000000000E+00 -0.00000000000E+00 -0.45593999997E+02  0.45594000000E+02  0.51100000000E-03 0.  1.
    9900012    2    1    2    0    0  0.22172939369E+02  0.16659688727E+02  0.29731821938E+02  0.50528859521E+02  0.29999998999E+02 0.  0.
        -12    1    1    2    0    0 -0.22172939369E+02 -0.16659688727E+02 -0.29731821938E+02  0.40659140479E+02  0.00000000000E+00 0.  1.
         11    1    3    3    0    0  0.56086189138E+01  0.64044628015E+01  0.17364928920E+02  0.19339454660E+02  0.51100000000E-03 0. -1.
        -11    1    3    3    0    0  0.11462260727E+02  0.16643284671E+02  0.10621199909E+02  0.22829634981E+02  0.51100000000E-03 0.  1.
        -12    1    3    3    0    0  0.51020597287E+01 -0.63880587454E+01  0.17456931098E+01  0.83597698798E+01  0.00000000000E+00 0.  1.
</event>
<event>
 7    1  0.2835316E-011  0.5052888E+02  0.7816164E-02  0.1300439E+00
        -11   -1    0    0    0    0  0.00000000000E+00  0.00000000000E+00  0.45593999997E+02  0.45594000000E+02  0.51100000000E-03 0. -1.
         11   -1    0    0    0    0 -0.00000000000E+00 -0.00000000000E+00 -0.45593999997E+02  0.45594000000E+02  0.51100000000E-03 0.  1.
    9900012    2    1    2    0    0  0.39832257119E+02  0.81182915855E+01 -0.80527466303E+00  0.50528882538E+02  0.30000068964E+02 0.  0.
        -12    1    1    2    0    0 -0.39832257119E+02 -0.81182915855E+01  0.80527466303E+00  0.40659117462E+02  0.00000000000E+00 0.  1.
         11    1    3    3    0    0  0.16600046277E+02  0.14048943838E+02  0.33607443049E+00  0.21749650702E+02  0.51100000000E-03 0. -1.
        -11    1    3    3    0    0  0.11785502734E+02  0.29283263282E+01 -0.59550404399E+01  0.13525371591E+02  0.51100000000E-03 0.  1.
         12    1    3    3    0    0  0.11446708108E+02 -0.88589785810E+01  0.48136913464E+01  0.15253860246E+02  0.00000000000E+00 0. -1.
</event>
<event>
 7    1  0.2835316E-011  0.5052885E+02  0.7816164E-02  0.1300439E+00
        -11   -1    0    0    0    0  0.00000000000E+00  0.00000000000E+00  0.45593999997E+02  0.45594000000E+02  0.51100000000E-03 0.  1.
         11   -1    0    0    0    0 -0.00000000000E+00 -0.00000000000E+00 -0.45593999997E+02  0.45594000000E+02  0.51100000000E-03 0. -1.
    9900012    2    1    2    0    0  0.21454771196E+02 -0.29817178417E+02 -0.17429731712E+02  0.50528845024E+02  0.29999954934E+02 0.  0.
        -12    1    1    2    0    0 -0.21454771196E+02  0.29817178417E+02  0.17429731712E+02  0.40659154976E+02  0.00000000000E+00 0.  1.
         11    1    3    3    0    0 -0.26328800099E+01 -0.28308414344E+00 -0.64137357736E+00  0.27246199928E+01  0.51100000000E-03 0. -1.
        -11    1    3    3    0    0  0.25238581967E+01 -0.21605566218E+02 -0.72667353856E+01  0.22934162187E+02  0.51100000000E-03 0.  1.
        -12    1    3    3    0    0  0.21563793009E+02 -0.79285280556E+01 -0.95216227487E+01  0.24870062843E+02  0.00000000000E+00 0.  1.
</event>
<event>
 7    1  0.2835316E-011  0.5052885E+02  0.7816164E-02  0.1300439E+00
        -11   -1    0    0    0    0  0.00000000000E+00  0.00000000000E+00  0.45593999997E+02  0.45594000000E+02  0.51100000000E-03 0. -1.
         11   -1    0    0    0    0 -0.00000000000E+00 -0.00000000000E+00 -0.45593999997E+02  0.45594000000E+02  0.51100000000E-03 0.  1.
    9900012    2    1    2    0    0 -0.60496940189E+01  0.21050567362E+02  0.34255526223E+02  0.50528852680E+02  0.29999978206E+02 0.  0.
        -12    1    1    2    0    0  0.60496940189E+01 -0.21050567362E+02 -0.34255526223E+02  0.40659147320E+02  0.00000000000E+00 0.  1.
         11    1    3    3    0    0 -0.77134105108E+01 -0.18695225337E+01  0.15294786583E+02  0.17231433866E+02  0.51100000000E-03 0. -1.
        -11    1    3    3    0    0  0.37732002904E+01  0.20590216324E+01  0.92304189636E+01  0.10182202366E+02  0.51100000000E-03 0.  1.
         12    1    3    3    0    0 -0.21094837985E+01  0.20861068263E+02  0.97303206765E+01  0.23115216448E+02  0.00000000000E+00 0. -1.
</event>
<event>
 7    1  0.2835316E-011  0.5052886E+02  0.7816164E-02  0.1300439E+00
        -11   -1    0    0    0    0  0.00000000000E+00  0.00000000000E+00  0.45593999997E+02  0.45594000000E+02  0.51100000000E-03 0. -1.
         11   -1    0    0    0    0 -0.00000000000E+00 -0.00000000000E+00 -0.45593999997E+02  0.45594000000E+02  0.51100000000E-03 0.  1.
    9900012    2    1    2    0    0 -0.22954927854E+02  0.24662113649E+02  0.22759986967E+02  0.50528861185E+02  0.30000004059E+02 0.  0.
        -12    1    1    2    0    0  0.22954927854E+02 -0.24662113649E+02 -0.22759986967E+02  0.40659138815E+02  0.00000000000E+00 0.  1.
         11    1    3    3    0    0 -0.14504551799E+02  0.15340890774E+01  0.81234924619E+01  0.16695106535E+02  0.51100000000E-03 0. -1.
        -11    1    3    3    0    0 -0.54515598412E+01  0.10870967023E+02 -0.26352334471E+01  0.12443547898E+02  0.51100000000E-03 0.  1.
        -12    1    3    3    0    0 -0.29988162144E+01  0.12257057549E+02  0.17271727953E+02  0.21390206752E+02  0.00000000000E+00 0.  1.
</event>
<event>
 7    1  0.2835316E-011  0.5052886E+02  0.7816164E-02  0.1300439E+00
        -11   -1    0    0    0    0  0.00000000000E+00  0.00000000000E+00  0.45593999997E+02  0.45594000000E+02  0.51100000000E-03 0. -1.
         11   -1    0    0    0    0 -0.00000000000E+00 -0.00000000000E+00 -0.45593999997E+02  0.45594000000E+02  0.51100000000E-03 0.  1.
    9900012    2    1    2    0    0  0.22384138249E+02  0.26849580587E+02  0.20765743169E+02  0.50528859426E+02  0.29999998710E+02 0.  0.
        -12    1    1    2    0    0 -0.22384138249E+02 -0.26849580587E+02 -0.20765743169E+02  0.40659140574E+02  0.00000000000E+00 0.  1.
         11    1    3    3    0    0  0.10739208258E+02  0.14561114100E+02  0.10694816609E+02  0.21017510329E+02  0.51100000000E-03 0. -1.
        -11    1    3    3    0    0  0.12608440347E+02 -0.15049549282E+01  0.91547819084E+01  0.15653999149E+02  0.51100000000E-03 0.  1.
         12    1    3    3    0    0 -0.96351035559E+00  0.13793421416E+02  0.91614465110E+00  0.13857349948E+02  0.00000000000E+00 0. -1.
</event>
<event>
 7    1  0.2835316E-011  0.5052886E+02  0.7816164E-02  0.1300439E+00
        -11   -1    0    0    0    0  0.00000000000E+00  0.00000000000E+00  0.45593999997E+02  0.45594000000E+02  0.51100000000E-03 0.  1.
         11   -1    0    0    0    0 -0.00000000000E+00 -0.00000000000E+00 -0.45593999997E+02  0.45594000000E+02  0.51100000000E-03 0. -1.
    9900012    2    1    2    0    0 -0.37186800246E+02 -0.15746321506E+02 -0.47287362568E+01  0.50528859575E+02  0.29999999165E+02 0.  0.
        -12    1    1    2    0    0  0.37186800246E+02  0.15746321506E+02  0.47287362568E+01  0.40659140425E+02  0.00000000000E+00 0.  1.
         11    1    3    3    0    0 -0.19129631824E+01 -0.24622924049E+01 -0.79087091696E+01  0.85011759783E+01  0.51100000000E-03 0. -1.
        -11    1    3    3    0    0 -0.83853095924E+00 -0.63636479938E+01  0.25259236743E+01  0.68977851973E+01  0.51100000000E-03 0.  1.
         12    1    3    3    0    0 -0.34435306104E+02 -0.69203811070E+01  0.65404923846E+00  0.35129898400E+02  0.00000000000E+00 0. -1.
</event>
<event>
 7    1  0.2835316E-011  0.5052886E+02  0.7816164E-02  0.1300439E+00
        -11   -1    0    0    0    0  0.00000000000E+00  0.00000000000E+00  0.45593999997E+02  0.45594000000E+02  0.51100000000E-03 0.  1.
         11   -1    0    0    0    0 -0.00000000000E+00 -0.00000000000E+00 -0.45593999997E+02  0.45594000000E+02  0.51100000000E-03 0. -1.
    9900012    2    1    2    0    0  0.53578815132E+01 -0.24089203336E+02 -0.32313601830E+02  0.50528862345E+02  0.30000007583E+02 0.  0.
        -12    1    1    2    0    0 -0.53578815132E+01  0.24089203336E+02  0.32313601830E+02  0.40659137655E+02  0.00000000000E+00 0.  1.
         11    1    3    3    0    0  0.39489181527E+01 -0.99441712693E+01 -0.10035646841E+02  0.14669516168E+02  0.51100000000E-03 0. -1.
        -11    1    3    3    0    0  0.28808907869E+01 -0.11288119616E+02  0.16060165185E+01  0.11760121832E+02  0.51100000000E-03 0.  1.
        -12    1    3    3    0    0 -0.14719274264E+01 -0.28569124508E+01 -0.23883971507E+02  0.24099224345E+02  0.00000000000E+00 0.  1.
</event>
<event>
 7    1  0.2835316E-011  0.5052886E+02  0.7816164E-02  0.1300439E+00
        -11   -1    0    0    0    0  0.00000000000E+00  0.00000000000E+00  0.45593999997E+02  0.45594000000E+02  0.51100000000E-03 0.  1.
         11   -1    0    0    0    0 -0.00000000000E+00 -0.00000000000E+00 -0.45593999997E+02  0.45594000000E+02  0.51100000000E-03 0. -1.
    9900012    2    1    2    0    0  0.30862904325E+02  0.25815757588E+02  0.58475076512E+01  0.50528861434E+02  0.30000004814E+02 0.  0.
        -12    1    1    2    0    0 -0.30862904325E+02 -0.25815757588E+02 -0.58475076512E+01  0.40659138566E+02  0.00000000000E+00 0.  1.
         11    1    3    3    0    0  0.21068661442E+02  0.20759963783E+01 -0.35564552594E+01  0.21467338684E+02  0.51100000000E-03 0.  1.
        -11    1    3    3    0    0  0.28299228347E+01  0.64259446795E+01 -0.18599925064E+01  0.72636630332E+01  0.51100000000E-03 0. -1.
        -12    1    3    3    0    0  0.69643200489E+01  0.17313816530E+02  0.11263955417E+02  0.21797859716E+02  0.00000000000E+00 0.  1.
</event>
<event>
 7    1  0.2835316E-011  0.5052886E+02  0.7816164E-02  0.1300439E+00
        -11   -1    0    0    0    0  0.00000000000E+00  0.00000000000E+00  0.45593999997E+02  0.45594000000E+02  0.51100000000E-03 0. -1.
         11   -1    0    0    0    0 -0.00000000000E+00 -0.00000000000E+00 -0.45593999997E+02  0.45594000000E+02  0.51100000000E-03 0.  1.
    9900012    2    1    2    0    0 -0.19105630810E+02  0.33885943871E+02 -0.11827235433E+02  0.50528858117E+02  0.29999994732E+02 0.  0.
        -12    1    1    2    0    0  0.19105630810E+02 -0.33885943871E+02  0.11827235433E+02  0.40659141883E+02  0.00000000000E+00 0.  1.
         11    1    3    3    0    0  0.30115633202E+01  0.12376951809E+02 -0.20092117956E+01  0.12895556677E+02  0.51100000000E-03 0. -1.
        -11    1    3    3    0    0 -0.10303792212E+02  0.20571539790E+02 -0.11400831757E+02  0.25677526133E+02  0.51100000000E-03 0.  1.
        -12    1    3    3    0    0 -0.11813401919E+02  0.93745227231E+00  0.15828081195E+01  0.11955775307E+02  0.00000000000E+00 0.  1.
</event>
<event>
 7    1  0.2835316E-011  0.5052895E+02  0.7816164E-02  0.1300438E+00
        -11   -1    0    0    0    0  0.00000000000E+00  0.00000000000E+00  0.45593999997E+02  0.45594000000E+02  0.51100000000E-03 0. -1.
         11   -1    0    0    0    0 -0.00000000000E+00 -0.00000000000E+00 -0.45593999997E+02  0.45594000000E+02  0.51100000000E-03 0.  1.
    9900012    2    1    2    0    0 -0.40122529683E+02 -0.41536135041E+01 -0.51077156314E+01  0.50528946245E+02  0.30000262604E+02 0.  0.
        -12    1    1    2    0    0  0.40122529683E+02  0.41536135041E+01  0.51077156314E+01  0.40659053755E+02  0.00000000000E+00 0.  1.
         11    1    3    3    0    0 -0.34321793913E+02 -0.10006437158E+02 -0.64652071831E+01  0.36330610044E+02  0.51100000000E-03 0. -1.
        -11    1    3    3    0    0 -0.89459368117E+01  0.42332842949E+01 -0.99957204486E+00  0.99473426549E+01  0.51100000000E-03 0.  1.
        -12    1    3    3    0    0  0.31452010414E+01  0.16195393593E+01  0.23570635965E+01  0.42509935456E+01  0.00000000000E+00 0.  1.
</event>
<event>
 7    1  0.2835316E-011  0.5052889E+02  0.7816164E-02  0.1300439E+00
        -11   -1    0    0    0    0  0.00000000000E+00  0.00000000000E+00  0.45593999997E+02  0.45594000000E+02  0.51100000000E-03 0. -1.
         11   -1    0    0    0    0 -0.00000000000E+00 -0.00000000000E+00 -0.45593999997E+02  0.45594000000E+02  0.51100000000E-03 0.  1.
    9900012    2    1    2    0    0  0.25222145985E+01 -0.24221622446E+02  0.32559397205E+02  0.50528893926E+02  0.30000103578E+02 0.  0.
        -12    1    1    2    0    0 -0.25222145985E+01  0.24221622446E+02 -0.32559397205E+02  0.40659106074E+02  0.00000000000E+00 0.  1.
         11    1    3    3    0    0 -0.68354010752E+01 -0.22250500398E+02  0.13554999635E+02  0.26935951648E+02  0.51100000000E-03 0. -1.
        -11    1    3    3    0    0  0.76028084186E+01 -0.57599644923E+01  0.15195976868E+02  0.17941504954E+02  0.51100000000E-03 0.  1.
        -12    1    3    3    0    0  0.17548072550E+01  0.37888424451E+01  0.38084207026E+01  0.56514373237E+01  0.00000000000E+00 0.  1.
</event>
<event>
 7    1  0.2835316E-011  0.5052887E+02  0.7816164E-02  0.1300439E+00
        -11   -1    0    0    0    0  0.00000000000E+00  0.00000000000E+00  0.45593999997E+02  0.45594000000E+02  0.51100000000E-03 0.  1.
         11   -1    0    0    0    0 -0.00000000000E+00 -0.00000000000E+00 -0.45593999997E+02  0.45594000000E+02  0.51100000000E-03 0. -1.
    9900012    2    1    2    0    0 -0.28049593936E+02 -0.23288499519E+00 -0.29433499804E+02  0.50528869831E+02  0.30000030338E+02 0.  0.
        -12    1    1    2    0    0  0.28049593936E+02  0.23288499519E+00  0.29433499804E+02  0.40659130169E+02  0.00000000000E+00 0.  1.
         11    1    3    3    0    0 -0.45273020695E+01  0.10404375605E+02 -0.29032407381E+01  0.11712228772E+02  0.51100000000E-03 0. -1.
        -11    1    3    3    0    0  0.59007485153E+00  0.19503481981E-01  0.70016803725E+00  0.91586257579E+00  0.51100000000E-03 0.  1.
        -12    1    3    3    0    0 -0.24112366718E+02 -0.10656764082E+02 -0.27230427103E+02  0.37900778484E+02  0.00000000000E+00 0.  1.
</event>
<event>
 7    1  0.2835316E-011  0.5052886E+02  0.7816164E-02  0.1300439E+00
        -11   -1    0    0    0    0  0.00000000000E+00  0.00000000000E+00  0.45593999997E+02  0.45594000000E+02  0.51100000000E-03 0.  1.
         11   -1    0    0    0    0 -0.00000000000E+00 -0.00000000000E+00 -0.45593999997E+02  0.45594000000E+02  0.51100000000E-03 0. -1.
    9900012    2    1    2    0    0  0.10626447739E+02 -0.26835683141E+02 -0.28637225439E+02  0.50528856354E+02  0.29999989374E+02 0.  0.
        -12    1    1    2    0    0 -0.10626447739E+02  0.26835683141E+02  0.28637225439E+02  0.40659143646E+02  0.00000000000E+00 0.  1.
         11    1    3    3    0    0 -0.26552664392E+01  0.96749267580E+00  0.15535201842E+01  0.32248887058E+01  0.51100000000E-03 0. -1.
        -11    1    3    3    0    0 -0.43198345506E+01 -0.10882681852E+02 -0.70663931297E+01  0.13675805167E+02  0.51100000000E-03 0.  1.
         12    1    3    3    0    0  0.17601548729E+02 -0.16920493965E+02 -0.23124352493E+02  0.33628162482E+02  0.00000000000E+00 0. -1.
</event>
<event>
 7    1  0.2835316E-011  0.5052886E+02  0.7816164E-02  0.1300439E+00
        -11   -1    0    0    0    0  0.00000000000E+00  0.00000000000E+00  0.45593999997E+02  0.45594000000E+02  0.51100000000E-03 0. -1.
         11   -1    0    0    0    0 -0.00000000000E+00 -0.00000000000E+00 -0.45593999997E+02  0.45594000000E+02  0.51100000000E-03 0.  1.
    9900012    2    1    2    0    0 -0.20869824172E+02 -0.15848916918E+02  0.31087430037E+02  0.50528855460E+02  0.29999986656E+02 0.  0.
        -12    1    1    2    0    0  0.20869824172E+02  0.15848916918E+02 -0.31087430037E+02  0.40659144540E+02  0.00000000000E+00 0.  1.
         11    1    3    3    0    0 -0.97279802700E+01 -0.89058067936E+01  0.87068181847E+01  0.15803660270E+02  0.51100000000E-03 0. -1.
        -11    1    3    3    0    0  0.61595335102E+00 -0.11892457429E+02  0.17280799260E+02  0.20986566311E+02  0.51100000000E-03 0.  1.
        -12    1    3    3    0    0 -0.11757797253E+02  0.49493473045E+01  0.50998125926E+01  0.13738628878E+02  0.00000000000E+00 0.  1.
</event>
<event>
 7    1  0.2835316E-011  0.5052889E+02  0.7816164E-02  0.1300439E+00
        -11   -1    0    0    0    0  0.00000000000E+00  0.00000000000E+00  0.45593999997E+02  0.45594000000E+02  0.51100000000E-03 0.  1.
         11   -1    0    0    0    0 -0.00000000000E+00 -0.00000000000E+00 -0.45593999997E+02  0.45594000000E+02  0.51100000000E-03 0. -1.
    9900012    2    1    2    0    0  0.18240492500E+02 -0.19395686766E+02 -0.30728735715E+02  0.50528887486E+02  0.30000084001E+02 0.  0.
        -12    1    1    2    0    0 -0.18240492500E+02  0.19395686766E+02  0.30728735715E+02  0.40659112514E+02  0.00000000000E+00 0.  1.
         11    1    3    3    0    0  0.90830659909E+01 -0.25383920625E+02 -0.25234084989E+02  0.36927016662E+02  0.51100000000E-03 0. -1.
        -11    1    3    3    0    0  0.35512243597E+01  0.10696221545E+01  0.85599622834E+00  0.38063126265E+01  0.51100000000E-03 0.  1.
        -12    1    3    3    0    0  0.56062021495E+01  0.49186117043E+01 -0.63506469549E+01  0.97955581966E+01  0.00000000000E+00 0.  1.
</event>
<event>
 7    1  0.2835316E-011  0.5052896E+02  0.7816164E-02  0.1300438E+00
        -11   -1    0    0    0    0  0.00000000000E+00  0.00000000000E+00  0.45593999997E+02  0.45594000000E+02  0.51100000000E-03 0.  1.
         11   -1    0    0    0    0 -0.00000000000E+00 -0.00000000000E+00 -0.45593999997E+02  0.45594000000E+02  0.51100000000E-03 0. -1.
    9900012    2    1    2    0    0  0.22975062204E+02  0.33516781559E+02 -0.13891406870E+01  0.50528956219E+02  0.30000292923E+02 0.  0.
        -12    1    1    2    0    0 -0.22975062204E+02 -0.33516781559E+02  0.13891406870E+01  0.40659043781E+02  0.00000000000E+00 0.  1.
         11    1    3    3    0    0  0.25517154191E-01  0.67412760345E+01 -0.14694870153E+00  0.67429257656E+01  0.51100000000E-03 0. -1.
        -11    1    3    3    0    0  0.22985245707E+02  0.29837445398E+02  0.38328306804E+01  0.37858754065E+02  0.51100000000E-03 0.  1.
        -12    1    3    3    0    0 -0.35700657279E-01 -0.30619398738E+01 -0.50750226658E+01  0.59272763886E+01  0.00000000000E+00 0.  1.
</event>
<event>
 7    1  0.2835316E-011  0.5052886E+02  0.7816164E-02  0.1300439E+00
        -11   -1    0    0    0    0  0.00000000000E+00  0.00000000000E+00  0.45593999997E+02  0.45594000000E+02  0.51100000000E-03 0. -1.
         11   -1    0    0    0    0 -0.00000000000E+00 -0.00000000000E+00 -0.45593999997E+02  0.45594000000E+02  0.51100000000E-03 0.  1.
    9900012    2    1    2    0    0  0.35520290659E+02 -0.16868708603E+01  0.19713675480E+02  0.50528861018E+02  0.30000003551E+02 0.  0.
        -12    1    1    2    0    0 -0.35520290659E+02  0.16868708603E+01 -0.19713675480E+02  0.40659138982E+02  0.00000000000E+00 0.  1.
         11    1    3    3    0    0  0.11552634937E+01  0.20343548183E+01 -0.12762330229E+01  0.26649585844E+01  0.51100000000E-03 0.  1.
        -11    1    3    3    0    0  0.20423694045E+02 -0.14782180913E+02  0.12755114880E+02  0.28254789096E+02  0.51100000000E-03 0. -1.
         12    1    3    3    0    0  0.13941333121E+02  0.11060955235E+02  0.82347936229E+01  0.19609113338E+02  0.00000000000E+00 0. -1.
</event>
<event>
 7    1  0.2835316E-011  0.5052882E+02  0.7816164E-02  0.1300439E+00
        -11   -1    0    0    0    0  0.00000000000E+00  0.00000000000E+00  0.45593999997E+02  0.45594000000E+02  0.51100000000E-03 0. -1.
         11   -1    0    0    0    0 -0.00000000000E+00 -0.00000000000E+00 -0.45593999997E+02  0.45594000000E+02  0.51100000000E-03 0.  1.
    9900012    2    1    2    0    0  0.37095140205E+02 -0.13830602681E+02  0.92646658644E+01  0.50528818614E+02  0.29999874659E+02 0.  0.
        -12    1    1    2    0    0 -0.37095140205E+02  0.13830602681E+02 -0.92646658644E+01  0.40659181386E+02  0.00000000000E+00 0.  1.
         11    1    3    3    0    0  0.10406930806E+02 -0.78060172323E+01 -0.40533350215E+01  0.13625991300E+02  0.51100000000E-03 0. -1.
        -11    1    3    3    0    0  0.22367714021E+02 -0.12907914227E+02  0.74475483293E+01  0.26877404201E+02  0.51100000000E-03 0.  1.
         12    1    3    3    0    0  0.43204953783E+01  0.68833287783E+01  0.58704525567E+01  0.10025423113E+02  0.00000000000E+00 0. -1.
</event>
<event>
 7    1  0.2835316E-011  0.5052887E+02  0.7816164E-02  0.1300439E+00
        -11   -1    0    0    0    0  0.00000000000E+00  0.00000000000E+00  0.45593999997E+02  0.45594000000E+02  0.51100000000E-03 0.  1.
         11   -1    0    0    0    0 -0.00000000000E+00 -0.00000000000E+00 -0.45593999997E+02  0.45594000000E+02  0.51100000000E-03 0. -1.
    9900012    2    1    2    0    0  0.93668047762E+01 -0.87912304683E+01 -0.38576443860E+02  0.50528870819E+02  0.30000033341E+02 0.  0.
        -12    1    1    2    0    0 -0.93668047762E+01  0.87912304683E+01  0.38576443860E+02  0.40659129181E+02  0.00000000000E+00 0.  1.
         11    1    3    3    0    0  0.39330107789E+00 -0.63535545389E+01 -0.14307103817E+02  0.15659360169E+02  0.51100000000E-03 0. -1.
        -11    1    3    3    0    0  0.31722262016E+01  0.71772248976E+01 -0.22074243366E+02  0.23427500864E+02  0.51100000000E-03 0.  1.
        -12    1    3    3    0    0  0.58012774967E+01 -0.96149008269E+01 -0.21950966777E+01  0.11442009785E+02  0.00000000000E+00 0.  1.
</event>
<event>
 7    1  0.2835316E-011  0.5052886E+02  0.7816164E-02  0.1300439E+00
        -11   -1    0    0    0    0  0.00000000000E+00  0.00000000000E+00  0.45593999997E+02  0.45594000000E+02  0.51100000000E-03 0. -1.
         11   -1    0    0    0    0 -0.00000000000E+00 -0.00000000000E+00 -0.45593999997E+02  0.45594000000E+02  0.51100000000E-03 0.  1.
    9900012    2    1    2    0    0  0.88192307184E+01  0.20164824002E+02  0.34187229562E+02  0.50528860527E+02  0.30000002059E+02 0.  0.
        -12    1    1    2    0    0 -0.88192307184E+01 -0.20164824002E+02 -0.34187229562E+02  0.40659139473E+02  0.00000000000E+00 0.  1.
         11    1    3    3    0    0 -0.37535900031E+00  0.48899040190E+01  0.23537473821E+02  0.24042976726E+02  0.51100000000E-03 0. -1.
        -11    1    3    3    0    0  0.84331158296E+01  0.12002398337E+02  0.15005855103E+02  0.20984534688E+02  0.51100000000E-03 0.  1.
        -12    1    3    3    0    0  0.76147388904E+00  0.32725216462E+01 -0.43560993625E+01  0.55013491131E+01  0.00000000000E+00 0.  1.
</event>
<event>
 7    1  0.2835316E-011  0.5052886E+02  0.7816164E-02  0.1300439E+00
        -11   -1    0    0    0    0  0.00000000000E+00  0.00000000000E+00  0.45593999997E+02  0.45594000000E+02  0.51100000000E-03 0.  1.
         11   -1    0    0    0    0 -0.00000000000E+00 -0.00000000000E+00 -0.45593999997E+02  0.45594000000E+02  0.51100000000E-03 0. -1.
    9900012    2    1    2    0    0 -0.18309618331E+01 -0.16789454555E+02 -0.36985504610E+02  0.50528858879E+02  0.29999997048E+02 0.  0.
        -12    1    1    2    0    0  0.18309618331E+01  0.16789454555E+02  0.36985504610E+02  0.40659141121E+02  0.00000000000E+00 0.  1.
         11    1    3    3    0    0 -0.11875450355E+02 -0.13042661917E+02 -0.21056489523E+02  0.27468401888E+02  0.51100000000E-03 0. -1.
        -11    1    3    3    0    0  0.52764596536E+01 -0.25217184450E+01  0.53852039277E+00  0.58728268207E+01  0.51100000000E-03 0.  1.
        -12    1    3    3    0    0  0.47680288687E+01 -0.12250741929E+01 -0.16467535480E+02  0.17187630170E+02  0.00000000000E+00 0.  1.
</event>
<event>
 7    1  0.2835316E-011  0.5052882E+02  0.7816164E-02  0.1300439E+00
        -11   -1    0    0    0    0  0.00000000000E+00  0.00000000000E+00  0.45593999997E+02  0.45594000000E+02  0.51100000000E-03 0. -1.
         11   -1    0    0    0    0 -0.00000000000E+00 -0.00000000000E+00 -0.45593999997E+02  0.45594000000E+02  0.51100000000E-03 0.  1.
    9900012    2    1    2    0    0 -0.18710510512E+02 -0.36088492657E+02 -0.84063021870E+00  0.50528816966E+02  0.29999869648E+02 0.  0.
        -12    1    1    2    0    0  0.18710510512E+02  0.36088492657E+02  0.84063021870E+00  0.40659183034E+02  0.00000000000E+00 0.  1.
         11    1    3    3    0    0  0.25675273236E+01 -0.48357203651E+01  0.96712162694E-01  0.54759238043E+01  0.51100000000E-03 0. -1.
        -11    1    3    3    0    0 -0.63773946511E+01  0.26956020677E+01 -0.37460384491E+01  0.78721177180E+01  0.51100000000E-03 0.  1.
         12    1    3    3    0    0 -0.14900643184E+02 -0.33948374360E+02  0.28086960677E+01  0.37180775443E+02  0.00000000000E+00 0. -1.
</event>
<event>
 7    1  0.2835316E-011  0.5052886E+02  0.7816164E-02  0.1300439E+00
        -11   -1    0    0    0    0  0.00000000000E+00  0.00000000000E+00  0.45593999997E+02  0.45594000000E+02  0.51100000000E-03 0.  1.
         11   -1    0    0    0    0 -0.00000000000E+00 -0.00000000000E+00 -0.45593999997E+02  0.45594000000E+02  0.51100000000E-03 0. -1.
    9900012    2    1    2    0    0 -0.50880043593E+01 -0.17735779156E+02 -0.36231477721E+02  0.50528860456E+02  0.30000001843E+02 0.  0.
        -12    1    1    2    0    0  0.50880043593E+01  0.17735779156E+02  0.36231477721E+02  0.40659139544E+02  0.00000000000E+00 0.  1.
         11    1    3    3    0    0 -0.98775343444E+01 -0.75920039858E+01 -0.13252427807E+02  0.18188761703E+02  0.51100000000E-03 0. -1.
        -11    1    3    3    0    0 -0.65355004228E+01 -0.19580806663E+01 -0.19572660825E+01  0.70977275554E+01  0.51100000000E-03 0.  1.
         12    1    3    3    0    0  0.11325030408E+02 -0.81856945037E+01 -0.21021783832E+02  0.25242371198E+02  0.00000000000E+00 0. -1.
</event>
<event>
 7    1  0.2835316E-011  0.5052878E+02  0.7816164E-02  0.1300439E+00
        -11   -1    0    0    0    0  0.00000000000E+00  0.00000000000E+00  0.45593999997E+02  0.45594000000E+02  0.51100000000E-03 0.  1.
         11   -1    0    0    0    0 -0.00000000000E+00 -0.00000000000E+00 -0.45593999997E+02  0.45594000000E+02  0.51100000000E-03 0. -1.
    9900012    2    1    2    0    0  0.32478923609E+02  0.46524519272E+01 -0.24013470157E+02  0.50528775503E+02  0.29999743618E+02 0.  0.
        -12    1    1    2    0    0 -0.32478923609E+02 -0.46524519272E+01  0.24013470157E+02  0.40659224497E+02  0.00000000000E+00 0.  1.
         11    1    3    3    0    0  0.12558882848E+02  0.17803783705E+01 -0.45978860567E+01  0.13492065890E+02  0.51100000000E-03 0. -1.
        -11    1    3    3    0    0  0.24149911948E+02  0.40752135680E+01 -0.21100488787E+02  0.32327329615E+02  0.51100000000E-03 0.  1.
        -12    1    3    3    0    0 -0.42298711880E+01 -0.12031400113E+01  0.16849046868E+01  0.47093799971E+01  0.00000000000E+00 0.  1.
</event>
<event>
 7    1  0.2835316E-011  0.5052887E+02  0.7816164E-02  0.1300439E+00
        -11   -1    0    0    0    0  0.00000000000E+00  0.00000000000E+00  0.45593999997E+02  0.45594000000E+02  0.51100000000E-03 0.  1.
         11   -1    0    0    0    0 -0.00000000000E+00 -0.00000000000E+00 -0.45593999997E+02  0.45594000000E+02  0.51100000000E-03 0. -1.
    9900012    2    1    2    0    0  0.25606161460E+02  0.25313590867E+02  0.18886814692E+02  0.50528866260E+02  0.30000019483E+02 0.  0.
        -12    1    1    2    0    0 -0.25606161460E+02 -0.25313590867E+02 -0.18886814692E+02  0.40659133740E+02  0.00000000000E+00 0.  1.
         11    1    3    3    0    0  0.16730109044E+02  0.19810632149E+02  0.28358404598E+00  0.25931411742E+02  0.51100000000E-03 0. -1.
        -11    1    3    3    0    0  0.10254538083E+02  0.80100430184E+01  0.13520941223E+02  0.18765185644E+02  0.51100000000E-03 0.  1.
        -12    1    3    3    0    0 -0.13784856673E+01 -0.25070843006E+01  0.50822894233E+01  0.58322688731E+01  0.00000000000E+00 0.  1.
</event>
<event>
 7    1  0.2835316E-011  0.5052886E+02  0.7816164E-02  0.1300439E+00
        -11   -1    0    0    0    0  0.00000000000E+00  0.00000000000E+00  0.45593999997E+02  0.45594000000E+02  0.51100000000E-03 0.  1.
         11   -1    0    0    0    0 -0.00000000000E+00 -0.00000000000E+00 -0.45593999997E+02  0.45594000000E+02  0.51100000000E-03 0. -1.
    9900012    2    1    2    0    0 -0.16479242441E+02 -0.22143027965E+02 -0.29854427290E+02  0.50528856530E+02  0.29999989909E+02 0.  0.
        -12    1    1    2    0    0  0.16479242441E+02  0.22143027965E+02  0.29854427290E+02  0.40659143470E+02  0.00000000000E+00 0.  1.
         11    1    3    3    0    0 -0.21939697107E+02 -0.21439237348E+02 -0.18892755677E+02  0.36026759840E+02  0.51100000000E-03 0. -1.
        -11    1    3    3    0    0 -0.14060248787E+01 -0.39700405297E+00 -0.55926671227E+01  0.57803498150E+01  0.51100000000E-03 0.  1.
        -12    1    3    3    0    0  0.68664795452E+01 -0.30678656403E+00 -0.53690044899E+01  0.87217468751E+01  0.00000000000E+00 0.  1.
</event>
<event>
 7    1  0.2835316E-011  0.5052886E+02  0.7816164E-02  0.1300439E+00
        -11   -1    0    0    0    0  0.00000000000E+00  0.00000000000E+00  0.45593999997E+02  0.45594000000E+02  0.51100000000E-03 0. -1.
         11   -1    0    0    0    0 -0.00000000000E+00 -0.00000000000E+00 -0.45593999997E+02  0.45594000000E+02  0.51100000000E-03 0.  1.
    9900012    2    1    2    0    0 -0.31798447907E+02  0.16413182372E+02  0.19303682561E+02  0.50528855822E+02  0.29999987758E+02 0.  0.
        -12    1    1    2    0    0  0.31798447907E+02 -0.16413182372E+02 -0.19303682561E+02  0.40659144178E+02  0.00000000000E+00 0.  1.
         11    1    3    3    0    0 -0.30737272552E+02  0.72540886362E+01  0.19219392485E+02  0.36970079437E+02  0.51100000000E-03 0. -1.
        -11    1    3    3    0    0  0.34083396587E+01  0.74307302366E-01 -0.33363937791E+00  0.34254366583E+01  0.51100000000E-03 0.  1.
        -12    1    3    3    0    0 -0.44695150133E+01  0.90847864330E+01  0.41792945469E+00  0.10133339727E+02  0.00000000000E+00 0.  1.
</event>
<event>
 7    1  0.2835316E-011  0.5052887E+02  0.7816164E-02  0.1300439E+00
        -11   -1    0    0    0    0  0.00000000000E+00  0.00000000000E+00  0.45593999997E+02  0.45594000000E+02  0.51100000000E-03 0.  1.
         11   -1    0    0    0    0 -0.00000000000E+00 -0.00000000000E+00 -0.45593999997E+02  0.45594000000E+02  0.51100000000E-03 0. -1.
    9900012    2    1    2    0    0 -0.20600591554E+02 -0.34806793662E+02 -0.41553986888E+01  0.50528873157E+02  0.30000040448E+02 0.  0.
        -12    1    1    2    0    0  0.20600591554E+02  0.34806793662E+02  0.41553986888E+01  0.40659126843E+02  0.00000000000E+00 0.  1.
         11    1    3    3    0    0 -0.10110730117E+02 -0.10660320076E+02 -0.68456041853E+01  0.16208997025E+02  0.51100000000E-03 0. -1.
        -11    1    3    3    0    0 -0.58971454619E+01 -0.16789570513E+02  0.12102889800E+02  0.21520825829E+02  0.51100000000E-03 0.  1.
         12    1    3    3    0    0 -0.45927159749E+01 -0.73569030728E+01 -0.94126843037E+01  0.12799050303E+02  0.00000000000E+00 0. -1.
</event>
<event>
 7    1  0.2835316E-011  0.5052886E+02  0.7816164E-02  0.1300439E+00
        -11   -1    0    0    0    0  0.00000000000E+00  0.00000000000E+00  0.45593999997E+02  0.45594000000E+02  0.51100000000E-03 0.  1.
         11   -1    0    0    0    0 -0.00000000000E+00 -0.00000000000E+00 -0.45593999997E+02  0.45594000000E+02  0.51100000000E-03 0. -1.
    9900012    2    1    2    0    0 -0.12896392523E+02 -0.73953393266E+01 -0.37843861050E+02  0.50528858309E+02  0.29999995316E+02 0.  0.
        -12    1    1    2    0    0  0.12896392523E+02  0.73953393266E+01  0.37843861050E+02  0.40659141691E+02  0.00000000000E+00 0.  1.
         11    1    3    3    0    0  0.60577523409E+01 -0.68788895058E+00 -0.19450562181E+02  0.20383668071E+02  0.51100000000E-03 0. -1.
        -11    1    3    3    0    0 -0.68390832499E+00  0.14921111420E+01  0.12732145736E+01  0.20773063973E+01  0.51100000000E-03 0.  1.
         12    1    3    3    0    0 -0.18270236539E+02 -0.81995615180E+01 -0.19666513443E+02  0.28067883840E+02  0.00000000000E+00 0. -1.
</event>
<event>
 7    1  0.2835316E-011  0.5052887E+02  0.7816164E-02  0.1300439E+00
        -11   -1    0    0    0    0  0.00000000000E+00  0.00000000000E+00  0.45593999997E+02  0.45594000000E+02  0.51100000000E-03 0.  1.
         11   -1    0    0    0    0 -0.00000000000E+00 -0.00000000000E+00 -0.45593999997E+02  0.45594000000E+02  0.51100000000E-03 0. -1.
    9900012    2    1    2    0    0  0.35954202206E+02 -0.84408926417E+01 -0.17006231521E+02  0.50528865289E+02  0.30000016534E+02 0.  0.
        -12    1    1    2    0    0 -0.35954202206E+02  0.84408926417E+01  0.17006231521E+02  0.40659134711E+02  0.00000000000E+00 0.  1.
         11    1    3    3    0    0  0.42322457681E+01 -0.93601461652E+01 -0.77332844131E+01  0.12857990844E+02  0.51100000000E-03 0. -1.
        -11    1    3    3    0    0  0.46754735205E+01  0.49317632453E+01 -0.77190340443E+01  0.10284251465E+02  0.51100000000E-03 0.  1.
        -12    1    3    3    0    0  0.27046482917E+02 -0.40125097219E+01 -0.15539130638E+01  0.27386622981E+02  0.00000000000E+00 0.  1.
</event>
<event>
 7    1  0.2835316E-011  0.5052880E+02  0.7816164E-02  0.1300439E+00
        -11   -1    0    0    0    0  0.00000000000E+00  0.00000000000E+00  0.45593999997E+02  0.45594000000E+02  0.51100000000E-03 0.  1.
         11   -1    0    0    0    0 -0.00000000000E+00 -0.00000000000E+00 -0.45593999997E+02  0.45594000000E+02  0.51100000000E-03 0. -1.
    9900012    2    1    2    0    0 -0.18089933997E+02 -0.27942672099E+01 -0.36305880199E+02  0.50528799587E+02  0.29999816823E+02 0.  0.
        -12    1    1    2    0    0  0.18089933997E+02  0.27942672099E+01  0.36305880199E+02  0.40659200413E+02  0.00000000000E+00 0.  1.
         11    1    3    3    0    0 -0.16633711229E+02  0.13238245770E+01 -0.24603705288E+02  0.29728356412E+02  0.51100000000E-03 0. -1.
        -11    1    3    3    0    0  0.11233348129E+01 -0.37634955995E+01 -0.15614484351E+02  0.16100866500E+02  0.51100000000E-03 0.  1.
        -12    1    3    3    0    0 -0.25795575803E+01 -0.35459618747E+00  0.39123094406E+01  0.46995766751E+01  0.00000000000E+00 0.  1.
</event>
<event>
 7    1  0.2835316E-011  0.5052886E+02  0.7816164E-02  0.1300439E+00
        -11   -1    0    0    0    0  0.00000000000E+00  0.00000000000E+00  0.45593999997E+02  0.45594000000E+02  0.51100000000E-03 0.  1.
         11   -1    0    0    0    0 -0.00000000000E+00 -0.00000000000E+00 -0.45593999997E+02  0.45594000000E+02  0.51100000000E-03 0. -1.
    9900012    2    1    2    0    0  0.38962442910E+02 -0.64695368649E+01 -0.96560402063E+01  0.50528856168E+02  0.29999988807E+02 0.  0.
        -12    1    1    2    0    0 -0.38962442910E+02  0.64695368649E+01  0.96560402063E+01  0.40659143832E+02  0.00000000000E+00 0.  1.
         11    1    3    3    0    0  0.27907499182E+02 -0.86332942134E+01 -0.64544980758E+01  0.29916932083E+02  0.51100000000E-03 0. -1.
        -11    1    3    3    0    0  0.77033539983E+01 -0.23437459083E+01  0.58544634169E+01  0.99553779369E+01  0.51100000000E-03 0.  1.
        -12    1    3    3    0    0  0.33515897288E+01  0.45075032568E+01 -0.90560055474E+01  0.10656546148E+02  0.00000000000E+00 0.  1.
</event>
<event>
 7    1  0.2835316E-011  0.5052886E+02  0.7816164E-02  0.1300439E+00
        -11   -1    0    0    0    0  0.00000000000E+00  0.00000000000E+00  0.45593999997E+02  0.45594000000E+02  0.51100000000E-03 0.  1.
         11   -1    0    0    0    0 -0.00000000000E+00 -0.00000000000E+00 -0.45593999997E+02  0.45594000000E+02  0.51100000000E-03 0. -1.
    9900012    2    1    2    0    0 -0.83689658909E+01  0.23040199651E+02 -0.32438795389E+02  0.50528857900E+02  0.29999994072E+02 0.  0.
        -12    1    1    2    0    0  0.83689658909E+01 -0.23040199651E+02  0.32438795389E+02  0.40659142100E+02  0.00000000000E+00 0.  1.
         11    1    3    3    0    0 -0.89849215263E+01 -0.20499180112E+01 -0.81339466144E+01  0.12291951288E+02  0.51100000000E-03 0. -1.
        -11    1    3    3    0    0  0.20114208430E+01  0.14824629435E+01  0.17495033606E+01  0.30502905528E+01  0.51100000000E-03 0.  1.
         12    1    3    3    0    0 -0.13954652076E+01  0.23607654718E+02 -0.26054352136E+02  0.35186616059E+02  0.00000000000E+00 0. -1.
</event>
<event>
 7    1  0.2835316E-011  0.5052887E+02  0.7816164E-02  0.1300439E+00
        -11   -1    0    0    0    0  0.00000000000E+00  0.00000000000E+00  0.45593999997E+02  0.45594000000E+02  0.51100000000E-03 0.  1.
         11   -1    0    0    0    0 -0.00000000000E+00 -0.00000000000E+00 -0.45593999997E+02  0.45594000000E+02  0.51100000000E-03 0. -1.
    9900012    2    1    2    0    0 -0.11238701038E+02 -0.10304511108E+02 -0.37691823502E+02  0.50528869302E+02  0.30000028730E+02 0.  0.
        -12    1    1    2    0    0  0.11238701038E+02  0.10304511108E+02  0.37691823502E+02  0.40659130698E+02  0.00000000000E+00 0.  1.
         11    1    3    3    0    0  0.37000926094E+01  0.18896952883E+01 -0.83582257359E+01  0.93338936845E+01  0.51100000000E-03 0. -1.
        -11    1    3    3    0    0 -0.37485012604E+01  0.38312697217E+01  0.65402335170E+00  0.53997811238E+01  0.51100000000E-03 0.  1.
         12    1    3    3    0    0 -0.11190292387E+02 -0.16025476118E+02 -0.29987621118E+02  0.35795194494E+02  0.00000000000E+00 0. -1.
</event>
<event>
 7    1  0.2835316E-011  0.5052886E+02  0.7816164E-02  0.1300439E+00
        -11   -1    0    0    0    0  0.00000000000E+00  0.00000000000E+00  0.45593999997E+02  0.45594000000E+02  0.51100000000E-03 0.  1.
         11   -1    0    0    0    0 -0.00000000000E+00 -0.00000000000E+00 -0.45593999997E+02  0.45594000000E+02  0.51100000000E-03 0. -1.
    9900012    2    1    2    0    0  0.34838740811E+02  0.18842958196E+02 -0.91853663141E+01  0.50528857249E+02  0.29999992095E+02 0.  0.
        -12    1    1    2    0    0 -0.34838740811E+02 -0.18842958196E+02  0.91853663141E+01  0.40659142751E+02  0.00000000000E+00 0.  1.
         11    1    3    3    0    0  0.87921140050E-01  0.21976435066E+01 -0.57603420054E+01  0.61659474040E+01  0.51100000000E-03 0.  1.
        -11    1    3    3    0    0  0.19056283364E+01 -0.15453968282E+01 -0.62463929487E+01  0.67109683239E+01  0.51100000000E-03 0. -1.
         12    1    3    3    0    0  0.32845191335E+02  0.18190711517E+02  0.28213686400E+01  0.37651941522E+02  0.00000000000E+00 0. -1.
</event>
<event>
 7    1  0.2835316E-011  0.5052884E+02  0.7816164E-02  0.1300439E+00
        -11   -1    0    0    0    0  0.00000000000E+00  0.00000000000E+00  0.45593999997E+02  0.45594000000E+02  0.51100000000E-03 0. -1.
         11   -1    0    0    0    0 -0.00000000000E+00 -0.00000000000E+00 -0.45593999997E+02  0.45594000000E+02  0.51100000000E-03 0.  1.
    9900012    2    1    2    0    0  0.14015877979E+02 -0.58185486601E+01  0.37720909093E+02  0.50528839570E+02  0.29999938358E+02 0.  0.
        -12    1    1    2    0    0 -0.14015877979E+02  0.58185486601E+01 -0.37720909093E+02  0.40659160430E+02  0.00000000000E+00 0.  1.
         11    1    3    3    0    0  0.14434570302E+02  0.51161164745E+01  0.23638808264E+02  0.28166020734E+02  0.51100000000E-03 0. -1.
        -11    1    3    3    0    0 -0.79751634458E+00  0.31243308920E+01  0.18131413957E+01  0.36993185622E+01  0.51100000000E-03 0.  1.
        -12    1    3    3    0    0  0.37882402177E+00 -0.14058996027E+02  0.12268959434E+02  0.18663500275E+02  0.00000000000E+00 0.  1.
</event>
<event>
 7    1  0.2835316E-011  0.5052886E+02  0.7816164E-02  0.1300439E+00
        -11   -1    0    0    0    0  0.00000000000E+00  0.00000000000E+00  0.45593999997E+02  0.45594000000E+02  0.51100000000E-03 0. -1.
         11   -1    0    0    0    0 -0.00000000000E+00 -0.00000000000E+00 -0.45593999997E+02  0.45594000000E+02  0.51100000000E-03 0.  1.
    9900012    2    1    2    0    0 -0.65097412342E+01  0.34326091337E+02  0.20796843071E+02  0.50528856390E+02  0.29999989482E+02 0.  0.
        -12    1    1    2    0    0  0.65097412342E+01 -0.34326091337E+02 -0.20796843071E+02  0.40659143610E+02  0.00000000000E+00 0.  1.
         11    1    3    3    0    0  0.27950657038E+01 -0.14455972543E+01  0.53420863193E+01  0.62000024367E+01  0.51100000000E-03 0. -1.
        -11    1    3    3    0    0 -0.31368095309E+01  0.16410232161E+02 -0.28870178298E+01  0.16954945173E+02  0.51100000000E-03 0.  1.
        -12    1    3    3    0    0 -0.61679974072E+01  0.19361456431E+02  0.18341774581E+02  0.27373908780E+02  0.00000000000E+00 0.  1.
</event>
<event>
 7    1  0.2835316E-011  0.5052886E+02  0.7816164E-02  0.1300439E+00
        -11   -1    0    0    0    0  0.00000000000E+00  0.00000000000E+00  0.45593999997E+02  0.45594000000E+02  0.51100000000E-03 0.  1.
         11   -1    0    0    0    0 -0.00000000000E+00 -0.00000000000E+00 -0.45593999997E+02  0.45594000000E+02  0.51100000000E-03 0. -1.
    9900012    2    1    2    0    0 -0.37889748948E+02  0.14704180018E+02 -0.11486409957E+01  0.50528863740E+02  0.30000011823E+02 0.  0.
        -12    1    1    2    0    0  0.37889748948E+02 -0.14704180018E+02  0.11486409957E+01  0.40659136260E+02  0.00000000000E+00 0.  1.
         11    1    3    3    0    0 -0.23913164498E+02  0.13206573637E+02 -0.60690736204E+01  0.27983685933E+02  0.51100000000E-03 0. -1.
        -11    1    3    3    0    0 -0.12959739231E+02 -0.67227487037E+00 -0.37834521619E+01  0.13517444469E+02  0.51100000000E-03 0.  1.
        -12    1    3    3    0    0 -0.10168452186E+01  0.21698812508E+01  0.87038847866E+01  0.90277333379E+01  0.00000000000E+00 0.  1.
</event>
<event>
 7    1  0.2835316E-011  0.5052887E+02  0.7816164E-02  0.1300439E+00
        -11   -1    0    0    0    0  0.00000000000E+00  0.00000000000E+00  0.45593999997E+02  0.45594000000E+02  0.51100000000E-03 0. -1.
         11   -1    0    0    0    0 -0.00000000000E+00 -0.00000000000E+00 -0.45593999997E+02  0.45594000000E+02  0.51100000000E-03 0.  1.
    9900012    2    1    2    0    0 -0.33699281614E+02  0.22703465416E+02  0.14407680666E+01  0.50528871433E+02  0.30000035208E+02 0.  0.
        -12    1    1    2    0    0  0.33699281614E+02 -0.22703465416E+02 -0.14407680666E+01  0.40659128567E+02  0.00000000000E+00 0.  1.
         11    1    3    3    0    0 -0.46558556146E+01  0.31225293057E+01  0.22682791045E+01  0.60475012299E+01  0.51100000000E-03 0. -1.
        -11    1    3    3    0    0 -0.19266011944E+02  0.16790500283E+02 -0.12957886893E+02  0.28653218824E+02  0.51100000000E-03 0.  1.
        -12    1    3    3    0    0 -0.97774140558E+01  0.27904358270E+01  0.12130375855E+02  0.15828151380E+02  0.00000000000E+00 0.  1.
</event>
<event>
 7    1  0.2835316E-011  0.5052886E+02  0.7816164E-02  0.1300439E+00
        -11   -1    0    0    0    0  0.00000000000E+00  0.00000000000E+00  0.45593999997E+02  0.45594000000E+02  0.51100000000E-03 0.  1.
         11   -1    0    0    0    0 -0.00000000000E+00 -0.00000000000E+00 -0.45593999997E+02  0.45594000000E+02  0.51100000000E-03 0. -1.
    9900012    2    1    2    0    0  0.36345658896E+02  0.49297352899E+01 -0.17545837632E+02  0.50528860452E+02  0.30000001828E+02 0.  0.
        -12    1    1    2    0    0 -0.36345658896E+02 -0.49297352899E+01  0.17545837632E+02  0.40659139548E+02  0.00000000000E+00 0.  1.
         11    1    3    3    0    0  0.25238168331E+02  0.70866709171E+01 -0.18499485231E+02  0.32084528974E+02  0.51100000000E-03 0. -1.
        -11    1    3    3    0    0 -0.29490710433E+00  0.90319538953E+00 -0.50924360048E+01  0.51803124265E+01  0.51100000000E-03 0.  1.
         12    1    3    3    0    0  0.11402397669E+02 -0.30601310167E+01  0.60460836038E+01  0.13264019051E+02  0.00000000000E+00 0. -1.
</event>
<event>
 7    1  0.2835316E-011  0.5052886E+02  0.7816164E-02  0.1300439E+00
        -11   -1    0    0    0    0  0.00000000000E+00  0.00000000000E+00  0.45593999997E+02  0.45594000000E+02  0.51100000000E-03 0. -1.
         11   -1    0    0    0    0 -0.00000000000E+00 -0.00000000000E+00 -0.45593999997E+02  0.45594000000E+02  0.51100000000E-03 0.  1.
    9900012    2    1    2    0    0  0.19242141104E+02  0.35817629958E+02 -0.58454518529E-01  0.50528855555E+02  0.29999986944E+02 0.  0.
        -12    1    1    2    0    0 -0.19242141104E+02 -0.35817629958E+02  0.58454518529E-01  0.40659144445E+02  0.00000000000E+00 0.  1.
         11    1    3    3    0    0  0.10834820994E+02  0.22503418983E+01  0.65690255998E+01  0.12868934774E+02  0.51100000000E-03 0.  1.
        -11    1    3    3    0    0 -0.30255410314E+01  0.24041855374E+01 -0.10050252004E+01  0.39930042006E+01  0.51100000000E-03 0. -1.
         12    1    3    3    0    0  0.11432861142E+02  0.31163102522E+02 -0.56224549179E+01  0.33666916580E+02  0.00000000000E+00 0. -1.
</event>
<event>
 7    1  0.2835316E-011  0.5052886E+02  0.7816164E-02  0.1300439E+00
        -11   -1    0    0    0    0  0.00000000000E+00  0.00000000000E+00  0.45593999997E+02  0.45594000000E+02  0.51100000000E-03 0.  1.
         11   -1    0    0    0    0 -0.00000000000E+00 -0.00000000000E+00 -0.45593999997E+02  0.45594000000E+02  0.51100000000E-03 0. -1.
    9900012    2    1    2    0    0  0.13586869602E+01 -0.42752619716E+01 -0.40410914963E+02  0.50528856584E+02  0.29999990073E+02 0.  0.
        -12    1    1    2    0    0 -0.13586869602E+01  0.42752619716E+01  0.40410914963E+02  0.40659143416E+02  0.00000000000E+00 0.  1.
         11    1    3    3    0    0 -0.19140554416E+00 -0.17769213988E+01  0.17582165556E+01  0.25070722880E+01  0.51100000000E-03 0.  1.
        -11    1    3    3    0    0 -0.97876972310E+01 -0.45610471543E+01 -0.14756652026E+02  0.18285539301E+02  0.51100000000E-03 0. -1.
         12    1    3    3    0    0  0.11337789735E+02  0.20627065815E+01 -0.27412479492E+02  0.29736244995E+02  0.00000000000E+00 0. -1.
</event>
<event>
 7    1  0.2835316E-011  0.5052885E+02  0.7816164E-02  0.1300439E+00
        -11   -1    0    0    0    0  0.00000000000E+00  0.00000000000E+00  0.45593999997E+02  0.45594000000E+02  0.51100000000E-03 0.  1.
         11   -1    0    0    0    0 -0.00000000000E+00 -0.00000000000E+00 -0.45593999997E+02  0.45594000000E+02  0.51100000000E-03 0. -1.
    9900012    2    1    2    0    0 -0.55268730954E+01  0.25041650839E+02 -0.31552115668E+02  0.50528848434E+02  0.29999965299E+02 0.  0.
        -12    1    1    2    0    0  0.55268730954E+01 -0.25041650839E+02  0.31552115668E+02  0.40659151566E+02  0.00000000000E+00 0.  1.
         11    1    3    3    0    0  0.23448176001E+01  0.82369580223E+00  0.54350984527E-01  0.24858798529E+01  0.51100000000E-03 0. -1.
        -11    1    3    3    0    0 -0.85511977743E+01  0.28873797873E+00 -0.19331840263E+02  0.21140633889E+02  0.51100000000E-03 0.  1.
         12    1    3    3    0    0  0.67950707877E+00  0.23929217058E+02 -0.12274626389E+02  0.26902334692E+02  0.00000000000E+00 0. -1.
</event>
<event>
 7    1  0.2835316E-011  0.5052886E+02  0.7816164E-02  0.1300439E+00
        -11   -1    0    0    0    0  0.00000000000E+00  0.00000000000E+00  0.45593999997E+02  0.45594000000E+02  0.51100000000E-03 0.  1.
         11   -1    0    0    0    0 -0.00000000000E+00 -0.00000000000E+00 -0.45593999997E+02  0.45594000000E+02  0.51100000000E-03 0. -1.
    9900012    2    1    2    0    0 -0.12461797192E+02 -0.34874451984E+02 -0.16782196076E+02  0.50528857171E+02  0.29999991857E+02 0.  0.
        -12    1    1    2    0    0  0.12461797192E+02  0.34874451984E+02  0.16782196076E+02  0.40659142829E+02  0.00000000000E+00 0.  1.
         11    1    3    3    0    0  0.48227566164E+00 -0.62156463395E+01 -0.14315958435E+01  0.63965862889E+01  0.51100000000E-03 0. -1.
        -11    1    3    3    0    0 -0.12967519431E+02 -0.19641509973E+02 -0.22548687590E+02  0.32594306045E+02  0.51100000000E-03 0.  1.
        -12    1    3    3    0    0  0.23446577414E-01 -0.90172956714E+01  0.71980873581E+01  0.11537964837E+02  0.00000000000E+00 0.  1.
</event>
<event>
 7    1  0.2835316E-011  0.5052885E+02  0.7816164E-02  0.1300439E+00
        -11   -1    0    0    0    0  0.00000000000E+00  0.00000000000E+00  0.45593999997E+02  0.45594000000E+02  0.51100000000E-03 0. -1.
         11   -1    0    0    0    0 -0.00000000000E+00 -0.00000000000E+00 -0.45593999997E+02  0.45594000000E+02  0.51100000000E-03 0.  1.
    9900012    2    1    2    0    0  0.25251975329E+02  0.31151152496E+02 -0.67164093980E+01  0.50528847094E+02  0.29999961227E+02 0.  0.
        -12    1    1    2    0    0 -0.25251975329E+02 -0.31151152496E+02  0.67164093980E+01  0.40659152906E+02  0.00000000000E+00 0.  1.
         11    1    3    3    0    0 -0.21995329706E+01 -0.10047875036E+01  0.20281221712E+01  0.31560771566E+01  0.51100000000E-03 0.  1.
        -11    1    3    3    0    0  0.10703238777E+02  0.16089413187E+02  0.55621981445E+01  0.20108868329E+02  0.51100000000E-03 0. -1.
        -12    1    3    3    0    0  0.16748269523E+02  0.16066526813E+02 -0.14306729714E+02  0.27263901609E+02  0.00000000000E+00 0.  1.
</event>
<event>
 7    1  0.2835316E-011  0.5052884E+02  0.7816164E-02  0.1300439E+00
        -11   -1    0    0    0    0  0.00000000000E+00  0.00000000000E+00  0.45593999997E+02  0.45594000000E+02  0.51100000000E-03 0.  1.
         11   -1    0    0    0    0 -0.00000000000E+00 -0.00000000000E+00 -0.45593999997E+02  0.45594000000E+02  0.51100000000E-03 0. -1.
    9900012    2    1    2    0    0  0.21567674599E+02 -0.19204092646E+02 -0.28621773574E+02  0.50528835172E+02  0.29999924989E+02 0.  0.
        -12    1    1    2    0    0 -0.21567674599E+02  0.19204092646E+02  0.28621773574E+02  0.40659164828E+02  0.00000000000E+00 0.  1.
         11    1    3    3    0    0  0.78098089788E+01 -0.12427828448E+02 -0.15748446250E+02  0.21528065305E+02  0.51100000000E-03 0. -1.
        -11    1    3    3    0    0  0.41987328858E+01  0.63680661036E+01 -0.98683401274E+01  0.12472600406E+02  0.51100000000E-03 0.  1.
        -12    1    3    3    0    0  0.95591327346E+01 -0.13144330301E+02 -0.30049871972E+01  0.16528169462E+02  0.00000000000E+00 0.  1.
</event>
<event>
 7    1  0.2835316E-011  0.5052886E+02  0.7816164E-02  0.1300439E+00
        -11   -1    0    0    0    0  0.00000000000E+00  0.00000000000E+00  0.45593999997E+02  0.45594000000E+02  0.51100000000E-03 0.  1.
         11   -1    0    0    0    0 -0.00000000000E+00 -0.00000000000E+00 -0.45593999997E+02  0.45594000000E+02  0.51100000000E-03 0. -1.
    9900012    2    1    2    0    0  0.53033945139E+01 -0.18177504558E+02 -0.35980802873E+02  0.50528857846E+02  0.29999993908E+02 0.  0.
        -12    1    1    2    0    0 -0.53033945139E+01  0.18177504558E+02  0.35980802873E+02  0.40659142154E+02  0.00000000000E+00 0.  1.
         11    1    3    3    0    0  0.40323590592E+01 -0.23199064844E+02 -0.25153146188E+02  0.34454858767E+02  0.51100000000E-03 0. -1.
        -11    1    3    3    0    0  0.42107787673E+01  0.14348130782E+01 -0.17079603204E+00  0.44517994049E+01  0.51100000000E-03 0.  1.
        -12    1    3    3    0    0 -0.29397433126E+01  0.35867472081E+01 -0.10656860653E+02  0.11622199674E+02  0.00000000000E+00 0.  1.
</event>
<event>
 7    1  0.2835316E-011  0.5052886E+02  0.7816164E-02  0.1300439E+00
        -11   -1    0    0    0    0  0.00000000000E+00  0.00000000000E+00  0.45593999997E+02  0.45594000000E+02  0.51100000000E-03 0.  1.
         11   -1    0    0    0    0 -0.00000000000E+00 -0.00000000000E+00 -0.45593999997E+02  0.45594000000E+02  0.51100000000E-03 0. -1.
    9900012    2    1    2    0    0  0.29632698205E+02  0.26730778909E+02 -0.77804020911E+01  0.50528855879E+02  0.29999987929E+02 0.  0.
        -12    1    1    2    0    0 -0.29632698205E+02 -0.26730778909E+02  0.77804020911E+01  0.40659144121E+02  0.00000000000E+00 0.  1.
         11    1    3    3    0    0  0.12539116610E+02 -0.11480570505E+01  0.11997421353E+01  0.12648591297E+02  0.51100000000E-03 0.  1.
        -11    1    3    3    0    0  0.18734775306E+02  0.15676904078E+02 -0.49451811206E+01  0.24924123732E+02  0.51100000000E-03 0. -1.
        -12    1    3    3    0    0 -0.16411937115E+01  0.12201931882E+02 -0.40349631057E+01  0.12956140850E+02  0.00000000000E+00 0.  1.
</event>
<event>
 7    1  0.2835316E-011  0.5052883E+02  0.7816164E-02  0.1300439E+00
        -11   -1    0    0    0    0  0.00000000000E+00  0.00000000000E+00  0.45593999997E+02  0.45594000000E+02  0.51100000000E-03 0.  1.
         11   -1    0    0    0    0 -0.00000000000E+00 -0.00000000000E+00 -0.45593999997E+02  0.45594000000E+02  0.51100000000E-03 0. -1.
    9900012    2    1    2    0    0 -0.38270972947E+02 -0.13080741323E+02 -0.41707329651E+01  0.50528829112E+02  0.29999906569E+02 0.  0.
        -12    1    1    2    0    0  0.38270972947E+02  0.13080741323E+02  0.41707329651E+01  0.40659170888E+02  0.00000000000E+00 0.  1.
         11    1    3    3    0    0 -0.11714924786E+02 -0.69664769779E+01 -0.67722314400E+01  0.15219539518E+02  0.51100000000E-03 0. -1.
        -11    1    3    3    0    0  0.19886348980E+01  0.10199070492E+00 -0.47793882127E+01  0.51776078270E+01  0.51100000000E-03 0.  1.
         12    1    3    3    0    0 -0.28544683059E+02 -0.62162550497E+01  0.73808866877E+01  0.30131681767E+02  0.00000000000E+00 0. -1.
</event>
<event>
 7    1  0.2835316E-011  0.5052889E+02  0.7816164E-02  0.1300439E+00
        -11   -1    0    0    0    0  0.00000000000E+00  0.00000000000E+00  0.45593999997E+02  0.45594000000E+02  0.51100000000E-03 0.  1.
         11   -1    0    0    0    0 -0.00000000000E+00 -0.00000000000E+00 -0.45593999997E+02  0.45594000000E+02  0.51100000000E-03 0. -1.
    9900012    2    1    2    0    0 -0.33649690819E+02  0.22652865606E+02 -0.27765881505E+01  0.50528887194E+02  0.30000083116E+02 0.  0.
        -12    1    1    2    0    0  0.33649690819E+02 -0.22652865606E+02  0.27765881505E+01  0.40659112806E+02  0.00000000000E+00 0.  1.
         11    1    3    3    0    0 -0.14160791050E+01  0.65135696627E+01 -0.46115015084E+01  0.81054189408E+01  0.51100000000E-03 0. -1.
        -11    1    3    3    0    0  0.20275614623E+01  0.40525208865E+01 -0.34701224143E+01  0.57075109155E+01  0.51100000000E-03 0.  1.
        -12    1    3    3    0    0 -0.34261173177E+02  0.12086775057E+02  0.53050357722E+01  0.36715957338E+02  0.00000000000E+00 0.  1.
</event>
<event>
 7    1  0.2835316E-011  0.5052886E+02  0.7816164E-02  0.1300439E+00
        -11   -1    0    0    0    0  0.00000000000E+00  0.00000000000E+00  0.45593999997E+02  0.45594000000E+02  0.51100000000E-03 0.  1.
         11   -1    0    0    0    0 -0.00000000000E+00 -0.00000000000E+00 -0.45593999997E+02  0.45594000000E+02  0.51100000000E-03 0. -1.
    9900012    2    1    2    0    0  0.35511518443E+02 -0.15425727170E+02 -0.12415514331E+02  0.50528855925E+02  0.29999988070E+02 0.  0.
        -12    1    1    2    0    0 -0.35511518443E+02  0.15425727170E+02  0.12415514331E+02  0.40659144075E+02  0.00000000000E+00 0.  1.
         11    1    3    3    0    0  0.41388432908E+01 -0.60505438275E+00 -0.34243149340E+01  0.54057420971E+01  0.51100000000E-03 0. -1.
        -11    1    3    3    0    0  0.17615431746E+02 -0.21327578246E+02 -0.43670159901E+00  0.27665135785E+02  0.51100000000E-03 0.  1.
        -12    1    3    3    0    0  0.13757243406E+02  0.65069054593E+01 -0.85544977978E+01  0.17457978043E+02  0.00000000000E+00 0.  1.
</event>
<event>
 7    1  0.2835316E-011  0.5052885E+02  0.7816164E-02  0.1300439E+00
        -11   -1    0    0    0    0  0.00000000000E+00  0.00000000000E+00  0.45593999997E+02  0.45594000000E+02  0.51100000000E-03 0.  1.
         11   -1    0    0    0    0 -0.00000000000E+00 -0.00000000000E+00 -0.45593999997E+02  0.45594000000E+02  0.51100000000E-03 0. -1.
    9900012    2    1    2    0    0  0.43471249088E+01  0.93503689224E+01 -0.39329877933E+02  0.50528853524E+02  0.29999980772E+02 0.  0.
        -12    1    1    2    0    0 -0.43471249088E+01 -0.93503689224E+01  0.39329877933E+02  0.40659146476E+02  0.00000000000E+00 0.  1.
         11    1    3    3    0    0 -0.22335639151E+01 -0.22632581828E+01 -0.68333473150E+01  0.75369610025E+01  0.51100000000E-03 0. -1.
        -11    1    3    3    0    0 -0.31732637704E+01 -0.42754092282E+01  0.22770938604E+00  0.53292193472E+01  0.51100000000E-03 0.  1.
         12    1    3    3    0    0  0.97539525943E+01  0.15889036333E+02 -0.32724240004E+02  0.37662673174E+02  0.00000000000E+00 0. -1.
</event>
<event>
 7    1  0.2835316E-011  0.5052886E+02  0.7816164E-02  0.1300439E+00
        -11   -1    0    0    0    0  0.00000000000E+00  0.00000000000E+00  0.45593999997E+02  0.45594000000E+02  0.51100000000E-03 0. -1.
         11   -1    0    0    0    0 -0.00000000000E+00 -0.00000000000E+00 -0.45593999997E+02  0.45594000000E+02  0.51100000000E-03 0.  1.
    9900012    2    1    2    0    0 -0.31436793256E+02  0.17836944008E+02  0.18620871815E+02  0.50528863156E+02  0.30000010049E+02 0.  0.
        -12    1    1    2    0    0  0.31436793256E+02 -0.17836944008E+02 -0.18620871815E+02  0.40659136844E+02  0.00000000000E+00 0.  1.
         11    1    3    3    0    0 -0.16999237712E+02  0.14255520948E+02  0.15077666980E+01  0.22236621168E+02  0.51100000000E-03 0. -1.
        -11    1    3    3    0    0 -0.17855890790E+02  0.39712282269E+01  0.11192888120E+02  0.21444911617E+02  0.51100000000E-03 0.  1.
         12    1    3    3    0    0  0.34183352456E+01 -0.38980516748E+00  0.59202169966E+01  0.68473303708E+01  0.00000000000E+00 0. -1.
</event>
<event>
 7    1  0.2835316E-011  0.5052886E+02  0.7816164E-02  0.1300439E+00
        -11   -1    0    0    0    0  0.00000000000E+00  0.00000000000E+00  0.45593999997E+02  0.45594000000E+02  0.51100000000E-03 0.  1.
         11   -1    0    0    0    0 -0.00000000000E+00 -0.00000000000E+00 -0.45593999997E+02  0.45594000000E+02  0.51100000000E-03 0. -1.
    9900012    2    1    2    0    0 -0.25751153588E+02 -0.10357896707E+01 -0.31447903594E+02  0.50528863120E+02  0.30000009941E+02 0.  0.
        -12    1    1    2    0    0  0.25751153588E+02  0.10357896707E+01  0.31447903594E+02  0.40659136880E+02  0.00000000000E+00 0.  1.
         11    1    3    3    0    0 -0.40368782268E+00 -0.31855337066E+01 -0.13469806030E+02  0.13847247510E+02  0.51100000000E-03 0. -1.
        -11    1    3    3    0    0 -0.30763361946E+01 -0.50394407903E+01  0.16576144254E+01  0.61324949006E+01  0.51100000000E-03 0.  1.
        -12    1    3    3    0    0 -0.22271129570E+02  0.71891848262E+01 -0.19635711989E+02  0.30549120710E+02  0.00000000000E+00 0.  1.
</event>
<event>
 7    1  0.2835316E-011  0.5052886E+02  0.7816164E-02  0.1300439E+00
        -11   -1    0    0    0    0  0.00000000000E+00  0.00000000000E+00  0.45593999997E+02  0.45594000000E+02  0.51100000000E-03 0. -1.
         11   -1    0    0    0    0 -0.00000000000E+00 -0.00000000000E+00 -0.45593999997E+02  0.45594000000E+02  0.51100000000E-03 0.  1.
    9900012    2    1    2    0    0 -0.32430582681E+02  0.21259549802E+02  0.12225146568E+02  0.50528863765E+02  0.30000011899E+02 0.  0.
        -12    1    1    2    0    0  0.32430582681E+02 -0.21259549802E+02 -0.12225146568E+02  0.40659136235E+02  0.00000000000E+00 0.  1.
         11    1    3    3    0    0 -0.20846460892E+02 -0.27281637350E+01  0.93260018317E+00  0.21044893738E+02  0.51100000000E-03 0.  1.
        -11    1    3    3    0    0 -0.33431820591E+01  0.98834380117E+01  0.17906854484E+01  0.10586112027E+02  0.51100000000E-03 0. -1.
        -12    1    3    3    0    0 -0.82409397301E+01  0.14104275525E+02  0.95018609359E+01  0.18897858000E+02  0.00000000000E+00 0.  1.
</event>
<event>
 7    1  0.2835316E-011  0.5052885E+02  0.7816164E-02  0.1300439E+00
        -11   -1    0    0    0    0  0.00000000000E+00  0.00000000000E+00  0.45593999997E+02  0.45594000000E+02  0.51100000000E-03 0.  1.
         11   -1    0    0    0    0 -0.00000000000E+00 -0.00000000000E+00 -0.45593999997E+02  0.45594000000E+02  0.51100000000E-03 0. -1.
    9900012    2    1    2    0    0 -0.34420271525E+02  0.20281932638E+02  0.75534513030E+01  0.50528849616E+02  0.29999968893E+02 0.  0.
        -12    1    1    2    0    0  0.34420271525E+02 -0.20281932638E+02 -0.75534513030E+01  0.40659150384E+02  0.00000000000E+00 0.  1.
         11    1    3    3    0    0  0.34470161895E+00  0.22962023638E+01 -0.21040395198E+01  0.31334241755E+01  0.51100000000E-03 0. -1.
        -11    1    3    3    0    0 -0.11550404182E+02  0.18270512607E+02  0.10775256160E+02  0.24152217564E+02  0.51100000000E-03 0.  1.
        -12    1    3    3    0    0 -0.23214568962E+02 -0.28478233297E+00 -0.11177653368E+01  0.23243207877E+02  0.00000000000E+00 0.  1.
</event>
<event>
 7    1  0.2835316E-011  0.5052887E+02  0.7816164E-02  0.1300439E+00
        -11   -1    0    0    0    0  0.00000000000E+00  0.00000000000E+00  0.45593999997E+02  0.45594000000E+02  0.51100000000E-03 0.  1.
         11   -1    0    0    0    0 -0.00000000000E+00 -0.00000000000E+00 -0.45593999997E+02  0.45594000000E+02  0.51100000000E-03 0. -1.
    9900012    2    1    2    0    0  0.18601765869E+02 -0.63236450212E+01 -0.35597065384E+02  0.50528865187E+02  0.30000016222E+02 0.  0.
        -12    1    1    2    0    0 -0.18601765869E+02  0.63236450212E+01  0.35597065384E+02  0.40659134813E+02  0.00000000000E+00 0.  1.
         11    1    3    3    0    0  0.19711556697E+02 -0.48776367337E+01 -0.12161621420E+02  0.23669428454E+02  0.51100000000E-03 0. -1.
        -11    1    3    3    0    0 -0.13475138929E+01 -0.10587547692E+01  0.12805347359E+01  0.21392813802E+01  0.51100000000E-03 0.  1.
        -12    1    3    3    0    0  0.23772306504E+00 -0.38725351821E+00 -0.24715978701E+02  0.24720155353E+02  0.00000000000E+00 0.  1.
</event>
<event>
 7    1  0.2835316E-011  0.5052886E+02  0.7816164E-02  0.1300439E+00
        -11   -1    0    0    0    0  0.00000000000E+00  0.00000000000E+00  0.45593999997E+02  0.45594000000E+02  0.51100000000E-03 0.  1.
         11   -1    0    0    0    0 -0.00000000000E+00 -0.00000000000E+00 -0.45593999997E+02  0.45594000000E+02  0.51100000000E-03 0. -1.
    9900012    2    1    2    0    0 -0.13411227450E+02 -0.37712002793E+02 -0.71490786565E+01  0.50528862011E+02  0.30000006569E+02 0.  0.
        -12    1    1    2    0    0  0.13411227450E+02  0.37712002793E+02  0.71490786565E+01  0.40659137989E+02  0.00000000000E+00 0.  1.
         11    1    3    3    0    0 -0.81501414464E+01 -0.31820451846E+02 -0.86355245918E+01  0.33963778448E+02  0.51100000000E-03 0. -1.
        -11    1    3    3    0    0  0.12520556004E+00 -0.46834963572E+01 -0.57795644146E+01  0.74400389544E+01  0.51100000000E-03 0.  1.
        -12    1    3    3    0    0 -0.53862915636E+01 -0.12080545900E+01  0.72660103500E+01  0.91250446085E+01  0.00000000000E+00 0.  1.
</event>
<event>
 7    1  0.2835316E-011  0.5052886E+02  0.7816164E-02  0.1300439E+00
        -11   -1    0    0    0    0  0.00000000000E+00  0.00000000000E+00  0.45593999997E+02  0.45594000000E+02  0.51100000000E-03 0.  1.
         11   -1    0    0    0    0 -0.00000000000E+00 -0.00000000000E+00 -0.45593999997E+02  0.45594000000E+02  0.51100000000E-03 0. -1.
    9900012    2    1    2    0    0  0.10306653833E+02  0.25606681921E+02 -0.29853587408E+02  0.50528856461E+02  0.29999989698E+02 0.  0.
        -12    1    1    2    0    0 -0.10306653833E+02 -0.25606681921E+02  0.29853587408E+02  0.40659143539E+02  0.00000000000E+00 0.  1.
         11    1    3    3    0    0  0.12953075949E+02  0.16872868190E+02 -0.80546269597E+01  0.22745392351E+02  0.51100000000E-03 0. -1.
        -11    1    3    3    0    0  0.22310318338E+01  0.53433874031E+01 -0.21007458399E+02  0.21790883430E+02  0.51100000000E-03 0.  1.
        -12    1    3    3    0    0 -0.48774539491E+01  0.33904263279E+01 -0.79150204868E+00  0.59925806798E+01  0.00000000000E+00 0.  1.
</event>
<event>
 7    1  0.2835316E-011  0.5052884E+02  0.7816164E-02  0.1300439E+00
        -11   -1    0    0    0    0  0.00000000000E+00  0.00000000000E+00  0.45593999997E+02  0.45594000000E+02  0.51100000000E-03 0.  1.
         11   -1    0    0    0    0 -0.00000000000E+00 -0.00000000000E+00 -0.45593999997E+02  0.45594000000E+02  0.51100000000E-03 0. -1.
    9900012    2    1    2    0    0  0.28574297110E+02  0.26892653088E+02 -0.10651848588E+02  0.50528842068E+02  0.29999945950E+02 0.  0.
        -12    1    1    2    0    0 -0.28574297110E+02 -0.26892653088E+02  0.10651848588E+02  0.40659157932E+02  0.00000000000E+00 0.  1.
         11    1    3    3    0    0  0.84298520208E+01  0.35719612457E+01  0.39023536075E+01  0.99523703796E+01  0.51100000000E-03 0. -1.
        -11    1    3    3    0    0 -0.26458438974E+01  0.58977915606E+01  0.28044416842E+01  0.70462279727E+01  0.51100000000E-03 0.  1.
         12    1    3    3    0    0  0.22790288986E+02  0.17422900281E+02 -0.17358643880E+02  0.33530243716E+02  0.00000000000E+00 0. -1.
</event>
<event>
 7    1  0.1444887E-010  0.5052885E+02  0.7816164E-02  0.1300439E+00
        -11   -1    0    0    0    0  0.00000000000E+00  0.00000000000E+00  0.45593999997E+02  0.45594000000E+02  0.51100000000E-03 0.  1.
         11   -1    0    0    0    0 -0.00000000000E+00 -0.00000000000E+00 -0.45593999997E+02  0.45594000000E+02  0.51100000000E-03 0. -1.
    9900012    2    1    2    0    0  0.73653430059E+01 -0.21929591497E+02 -0.33436670587E+02  0.50528853418E+02  0.29999980448E+02 0.  0.
        -12    1    1    2    0    0 -0.73653430059E+01  0.21929591497E+02  0.33436670587E+02  0.40659146582E+02  0.00000000000E+00 0.  1.
         11    1    3    3    0    0  0.12468945196E+02 -0.38047084595E+01 -0.14844815394E+02  0.19756491215E+02  0.51100000000E-03 0. -1.
        -11    1    3    3    0    0  0.21832456061E+01  0.33816737142E+00  0.13878812348E+01  0.26090483190E+01  0.51100000000E-03 0.  1.
         12    1    3    3    0    0 -0.72868477960E+01 -0.18463050409E+02 -0.19979736428E+02  0.28163313884E+02  0.00000000000E+00 0. -1.
</event>
<event>
 7    1  0.2835316E-011  0.5052887E+02  0.7816164E-02  0.1300439E+00
        -11   -1    0    0    0    0  0.00000000000E+00  0.00000000000E+00  0.45593999997E+02  0.45594000000E+02  0.51100000000E-03 0.  1.
         11   -1    0    0    0    0 -0.00000000000E+00 -0.00000000000E+00 -0.45593999997E+02  0.45594000000E+02  0.51100000000E-03 0. -1.
    9900012    2    1    2    0    0 -0.15144661596E+02  0.34168263306E+01 -0.37578314348E+02  0.50528865894E+02  0.30000018370E+02 0.  0.
        -12    1    1    2    0    0  0.15144661596E+02 -0.34168263306E+01  0.37578314348E+02  0.40659134106E+02  0.00000000000E+00 0.  1.
         11    1    3    3    0    0 -0.12794754391E+02  0.26220065810E+01 -0.32080304984E+02  0.34637070121E+02  0.51100000000E-03 0. -1.
        -11    1    3    3    0    0 -0.80109517566E+01  0.28138753252E+01 -0.13704695812E+01  0.86006644817E+01  0.51100000000E-03 0.  1.
         12    1    3    3    0    0  0.56610445521E+01 -0.20190555756E+01 -0.41275397828E+01  0.72911312906E+01  0.00000000000E+00 0. -1.
</event>
<event>
 7    1  0.2835316E-011  0.5052886E+02  0.7816164E-02  0.1300439E+00
        -11   -1    0    0    0    0  0.00000000000E+00  0.00000000000E+00  0.45593999997E+02  0.45594000000E+02  0.51100000000E-03 0.  1.
         11   -1    0    0    0    0 -0.00000000000E+00 -0.00000000000E+00 -0.45593999997E+02  0.45594000000E+02  0.51100000000E-03 0. -1.
    9900012    2    1    2    0    0 -0.55335785707E+01 -0.38417043979E+02 -0.12110986434E+02  0.50528858934E+02  0.29999997215E+02 0.  0.
        -12    1    1    2    0    0  0.55335785707E+01  0.38417043979E+02  0.12110986434E+02  0.40659141066E+02  0.00000000000E+00 0.  1.
         11    1    3    3    0    0 -0.57942307801E+01 -0.15972249529E+02 -0.12035788766E+02  0.20821769301E+02  0.51100000000E-03 0. -1.
        -11    1    3    3    0    0 -0.84218644070E+01 -0.15359797387E+02  0.36583808052E+01  0.17895109003E+02  0.51100000000E-03 0.  1.
         12    1    3    3    0    0  0.86825166165E+01 -0.70849970628E+01 -0.37335784733E+01  0.11811980630E+02  0.00000000000E+00 0. -1.
</event>
<event>
 7    1  0.2835316E-011  0.5052889E+02  0.7816164E-02  0.1300439E+00
        -11   -1    0    0    0    0  0.00000000000E+00  0.00000000000E+00  0.45593999997E+02  0.45594000000E+02  0.51100000000E-03 0.  1.
         11   -1    0    0    0    0 -0.00000000000E+00 -0.00000000000E+00 -0.45593999997E+02  0.45594000000E+02  0.51100000000E-03 0. -1.
    9900012    2    1    2    0    0 -0.33630654535E+02 -0.14532057540E+02 -0.17634096011E+02  0.50528893236E+02  0.30000101479E+02 0.  0.
        -12    1    1    2    0    0  0.33630654535E+02  0.14532057540E+02  0.17634096011E+02  0.40659106764E+02  0.00000000000E+00 0.  1.
         11    1    3    3    0    0 -0.18202383555E+02  0.35928565369E+00 -0.10309550993E+01  0.18235095885E+02  0.51100000000E-03 0. -1.
        -11    1    3    3    0    0 -0.52691728479E+01  0.31925662653E+01 -0.78983890309E+00  0.62113209234E+01  0.51100000000E-03 0.  1.
         12    1    3    3    0    0 -0.10159098132E+02 -0.18083909459E+02 -0.15813302008E+02  0.26082476427E+02  0.00000000000E+00 0. -1.
</event>
<event>
 7    1  0.2835316E-011  0.5052892E+02  0.7816164E-02  0.1300439E+00
        -11   -1    0    0    0    0  0.00000000000E+00  0.00000000000E+00  0.45593999997E+02  0.45594000000E+02  0.51100000000E-03 0.  1.
         11   -1    0    0    0    0 -0.00000000000E+00 -0.00000000000E+00 -0.45593999997E+02  0.45594000000E+02  0.51100000000E-03 0. -1.
    9900012    2    1    2    0    0 -0.75900634207E+01 -0.36071909410E+02 -0.17157194115E+02  0.50528917114E+02  0.30000174060E+02 0.  0.
        -12    1    1    2    0    0  0.75900634207E+01  0.36071909410E+02  0.17157194115E+02  0.40659082886E+02  0.00000000000E+00 0.  1.
         11    1    3    3    0    0  0.19431169102E+01 -0.10974141529E+02 -0.48638411654E+00  0.11155449583E+02  0.51100000000E-03 0. -1.
        -11    1    3    3    0    0 -0.14093802962E+02 -0.15011202538E+02 -0.15706176080E+01  0.20650383132E+02  0.51100000000E-03 0.  1.
         12    1    3    3    0    0  0.45606226313E+01 -0.10086565343E+02 -0.15100192390E+02  0.18723084399E+02  0.00000000000E+00 0. -1.
</event>
<event>
 7    1  0.2835316E-011  0.5052885E+02  0.7816164E-02  0.1300439E+00
        -11   -1    0    0    0    0  0.00000000000E+00  0.00000000000E+00  0.45593999997E+02  0.45594000000E+02  0.51100000000E-03 0.  1.
         11   -1    0    0    0    0 -0.00000000000E+00 -0.00000000000E+00 -0.45593999997E+02  0.45594000000E+02  0.51100000000E-03 0. -1.
    9900012    2    1    2    0    0 -0.28948300366E+02 -0.26849550974E+02 -0.97089504801E+01  0.50528853415E+02  0.29999980441E+02 0.  0.
        -12    1    1    2    0    0  0.28948300366E+02  0.26849550974E+02  0.97089504801E+01  0.40659146585E+02  0.00000000000E+00 0.  1.
         11    1    3    3    0    0 -0.16113290402E+01 -0.58800092106E+01  0.49612168428E+01  0.78603156689E+01  0.51100000000E-03 0. -1.
        -11    1    3    3    0    0 -0.21039520571E+01  0.41043745875E+00 -0.88269920539E+01  0.90835489841E+01  0.51100000000E-03 0.  1.
         12    1    3    3    0    0 -0.25233019269E+02 -0.21379979222E+02 -0.58431752690E+01  0.33584988762E+02  0.00000000000E+00 0. -1.
</event>
<event>
 7    1  0.2835316E-011  0.5052886E+02  0.7816164E-02  0.1300439E+00
        -11   -1    0    0    0    0  0.00000000000E+00  0.00000000000E+00  0.45593999997E+02  0.45594000000E+02  0.51100000000E-03 0. -1.
         11   -1    0    0    0    0 -0.00000000000E+00 -0.00000000000E+00 -0.45593999997E+02  0.45594000000E+02  0.51100000000E-03 0.  1.
    9900012    2    1    2    0    0  0.69543349774E+01  0.38033629676E+02  0.12579587993E+02  0.50528858403E+02  0.29999995603E+02 0.  0.
        -12    1    1    2    0    0 -0.69543349774E+01 -0.38033629676E+02 -0.12579587993E+02  0.40659141597E+02  0.00000000000E+00 0.  1.
         11    1    3    3    0    0  0.30512853920E+01  0.18242360993E+01  0.74521012832E+01  0.82566333142E+01  0.51100000000E-03 0. -1.
        -11    1    3    3    0    0  0.12606968875E+01  0.22869635352E+01 -0.59429490749E+01  0.64913945206E+01  0.51100000000E-03 0.  1.
         12    1    3    3    0    0  0.26423526979E+01  0.33922430041E+02  0.11070435785E+02  0.35780830568E+02  0.00000000000E+00 0. -1.
</event>
<event>
 7    1  0.2835316E-011  0.5052889E+02  0.7816164E-02  0.1300439E+00
        -11   -1    0    0    0    0  0.00000000000E+00  0.00000000000E+00  0.45593999997E+02  0.45594000000E+02  0.51100000000E-03 0.  1.
         11   -1    0    0    0    0 -0.00000000000E+00 -0.00000000000E+00 -0.45593999997E+02  0.45594000000E+02  0.51100000000E-03 0. -1.
    9900012    2    1    2    0    0 -0.20837597519E+02 -0.13114346259E+02 -0.32356945710E+02  0.50528886829E+02  0.30000082005E+02 0.  0.
        -12    1    1    2    0    0  0.20837597519E+02  0.13114346259E+02  0.32356945710E+02  0.40659113171E+02  0.00000000000E+00 0.  1.
         11    1    3    3    0    0 -0.72792031137E+01 -0.11698530277E+02 -0.27576538223E+02  0.30827063908E+02  0.51100000000E-03 0. -1.
        -11    1    3    3    0    0 -0.11995165684E+02  0.46539308262E+00 -0.88774765335E+01  0.14930176836E+02  0.51100000000E-03 0.  1.
        -12    1    3    3    0    0 -0.15632287215E+01 -0.18812090654E+01  0.40970690460E+01  0.47716460840E+01  0.00000000000E+00 0.  1.
</event>
<event>
 7    1  0.2835316E-011  0.5052886E+02  0.7816164E-02  0.1300439E+00
        -11   -1    0    0    0    0  0.00000000000E+00  0.00000000000E+00  0.45593999997E+02  0.45594000000E+02  0.51100000000E-03 0. -1.
         11   -1    0    0    0    0 -0.00000000000E+00 -0.00000000000E+00 -0.45593999997E+02  0.45594000000E+02  0.51100000000E-03 0.  1.
    9900012    2    1    2    0    0 -0.28734004980E+02  0.28078905266E+02  0.62528468153E+01  0.50528855193E+02  0.29999985845E+02 0.  0.
        -12    1    1    2    0    0  0.28734004980E+02 -0.28078905266E+02 -0.62528468153E+01  0.40659144807E+02  0.00000000000E+00 0.  1.
         11    1    3    3    0    0 -0.27661372522E+01  0.15110421419E+02  0.12198157455E+02  0.19615590644E+02  0.51100000000E-03 0. -1.
        -11    1    3    3    0    0 -0.15507163026E+02  0.12058904030E+02 -0.22078014951E+01  0.19767742896E+02  0.51100000000E-03 0.  1.
        -12    1    3    3    0    0 -0.10460704702E+02  0.90957981701E+00 -0.37375091449E+01  0.11145521653E+02  0.00000000000E+00 0.  1.
</event>
<event>
 7    1  0.2835316E-011  0.5052886E+02  0.7816164E-02  0.1300439E+00
        -11   -1    0    0    0    0  0.00000000000E+00  0.00000000000E+00  0.45593999997E+02  0.45594000000E+02  0.51100000000E-03 0.  1.
         11   -1    0    0    0    0 -0.00000000000E+00 -0.00000000000E+00 -0.45593999997E+02  0.45594000000E+02  0.51100000000E-03 0. -1.
    9900012    2    1    2    0    0  0.97472484794E+01 -0.38507799794E+02 -0.86779023552E+01  0.50528862194E+02  0.30000007124E+02 0.  0.
        -12    1    1    2    0    0 -0.97472484794E+01  0.38507799794E+02  0.86779023552E+01  0.40659137806E+02  0.00000000000E+00 0.  1.
         11    1    3    3    0    0  0.10711288501E+02 -0.21365273090E+02 -0.16339687569E+02  0.28951545480E+02  0.51100000000E-03 0. -1.
        -11    1    3    3    0    0  0.40890149587E+01 -0.28576501941E+01  0.24144411783E+01  0.55421777695E+01  0.51100000000E-03 0.  1.
        -12    1    3    3    0    0 -0.50530549804E+01 -0.14284876509E+02  0.52473440360E+01  0.16035138944E+02  0.00000000000E+00 0.  1.
</event>
<event>
 7    1  0.2835316E-011  0.5052876E+02  0.7816164E-02  0.1300439E+00
        -11   -1    0    0    0    0  0.00000000000E+00  0.00000000000E+00  0.45593999997E+02  0.45594000000E+02  0.51100000000E-03 0. -1.
         11   -1    0    0    0    0 -0.00000000000E+00 -0.00000000000E+00 -0.45593999997E+02  0.45594000000E+02  0.51100000000E-03 0.  1.
    9900012    2    1    2    0    0  0.16323105292E+02 -0.30484627005E+02  0.21387318331E+02  0.50528761992E+02  0.29999702548E+02 0.  0.
        -12    1    1    2    0    0 -0.16323105292E+02  0.30484627005E+02 -0.21387318331E+02  0.40659238008E+02  0.00000000000E+00 0.  1.
         11    1    3    3    0    0  0.65071316391E+01 -0.65692004962E+01  0.39410178153E+01  0.10051307328E+02  0.51100000000E-03 0. -1.
        -11    1    3    3    0    0  0.16633878542E+02 -0.69117060443E+01  0.65763146945E+01  0.19175648907E+02  0.51100000000E-03 0.  1.
         12    1    3    3    0    0 -0.68179048890E+01 -0.17003720465E+02  0.10869985821E+02  0.21301805756E+02  0.00000000000E+00 0. -1.
</event>
<event>
 7    1  0.2835316E-011  0.5052886E+02  0.7816164E-02  0.1300439E+00
        -11   -1    0    0    0    0  0.00000000000E+00  0.00000000000E+00  0.45593999997E+02  0.45594000000E+02  0.51100000000E-03 0.  1.
         11   -1    0    0    0    0 -0.00000000000E+00 -0.00000000000E+00 -0.45593999997E+02  0.45594000000E+02  0.51100000000E-03 0. -1.
    9900012    2    1    2    0    0 -0.95589783898E+01 -0.13453296235E+02 -0.37159123826E+02  0.50528859195E+02  0.29999998009E+02 0.  0.
        -12    1    1    2    0    0  0.95589783898E+01  0.13453296235E+02  0.37159123826E+02  0.40659140805E+02  0.00000000000E+00 0.  1.
         11    1    3    3    0    0 -0.11445686126E+02 -0.22226895963E+01 -0.56412683816E+01  0.12952528292E+02  0.51100000000E-03 0. -1.
        -11    1    3    3    0    0  0.46937894915E+01  0.28531840360E+01 -0.50402103958E+01  0.74549339386E+01  0.51100000000E-03 0.  1.
         12    1    3    3    0    0 -0.28070817553E+01 -0.14083790675E+02 -0.26477645049E+02  0.30121396965E+02  0.00000000000E+00 0. -1.
</event>
<event>
 7    1  0.2835316E-011  0.5052886E+02  0.7816164E-02  0.1300439E+00
        -11   -1    0    0    0    0  0.00000000000E+00  0.00000000000E+00  0.45593999997E+02  0.45594000000E+02  0.51100000000E-03 0.  1.
         11   -1    0    0    0    0 -0.00000000000E+00 -0.00000000000E+00 -0.45593999997E+02  0.45594000000E+02  0.51100000000E-03 0. -1.
    9900012    2    1    2    0    0 -0.72532684069E+01  0.48950501949E+01 -0.39706353271E+02  0.50528857005E+02  0.29999991352E+02 0.  0.
        -12    1    1    2    0    0  0.72532684069E+01 -0.48950501949E+01  0.39706353271E+02  0.40659142995E+02  0.00000000000E+00 0.  1.
         11    1    3    3    0    0 -0.86378027243E+01  0.31813122221E+01 -0.43568382784E+01  0.10184027858E+02  0.51100000000E-03 0. -1.
        -11    1    3    3    0    0  0.28071854104E+01  0.42967071595E+00  0.16575211652E+01  0.32882036930E+01  0.51100000000E-03 0.  1.
         12    1    3    3    0    0 -0.14226510930E+01  0.12840672568E+01 -0.37007036158E+02  0.37056625454E+02  0.00000000000E+00 0. -1.
</event>
<event>
 7    1  0.2835316E-011  0.5052885E+02  0.7816164E-02  0.1300439E+00
        -11   -1    0    0    0    0  0.00000000000E+00  0.00000000000E+00  0.45593999997E+02  0.45594000000E+02  0.51100000000E-03 0.  1.
         11   -1    0    0    0    0 -0.00000000000E+00 -0.00000000000E+00 -0.45593999997E+02  0.45594000000E+02  0.51100000000E-03 0. -1.
    9900012    2    1    2    0    0  0.18417001236E+02  0.58173833291E+01 -0.35779022311E+02  0.50528851941E+02  0.29999975961E+02 0.  0.
        -12    1    1    2    0    0 -0.18417001236E+02 -0.58173833291E+01  0.35779022311E+02  0.40659148059E+02  0.00000000000E+00 0.  1.
         11    1    3    3    0    0  0.17187095543E+01  0.14762321964E+02 -0.97436808586E+01  0.17771309159E+02  0.51100000000E-03 0. -1.
        -11    1    3    3    0    0  0.11071665741E+02 -0.29053281371E+01 -0.12923774795E+02  0.17264028182E+02  0.51100000000E-03 0.  1.
        -12    1    3    3    0    0  0.56266259411E+01 -0.60396104977E+01 -0.13111566658E+02  0.15493514600E+02  0.00000000000E+00 0.  1.
</event>
<event>
 7    1  0.2835316E-011  0.5052888E+02  0.7816164E-02  0.1300439E+00
        -11   -1    0    0    0    0  0.00000000000E+00  0.00000000000E+00  0.45593999997E+02  0.45594000000E+02  0.51100000000E-03 0.  1.
         11   -1    0    0    0    0 -0.00000000000E+00 -0.00000000000E+00 -0.45593999997E+02  0.45594000000E+02  0.51100000000E-03 0. -1.
    9900012    2    1    2    0    0  0.30498027335E+02 -0.36938724462E+00 -0.26886768357E+02  0.50528875182E+02  0.30000046604E+02 0.  0.
        -12    1    1    2    0    0 -0.30498027335E+02  0.36938724462E+00  0.26886768357E+02  0.40659124818E+02  0.00000000000E+00 0.  1.
         11    1    3    3    0    0  0.25165607294E+01 -0.47662690466E+01  0.19477688727E+01  0.57309861605E+01  0.51100000000E-03 0. -1.
        -11    1    3    3    0    0 -0.17585640993E+01  0.21241326126E+01  0.67623988308E+00  0.28393287390E+01  0.51100000000E-03 0.  1.
         12    1    3    3    0    0  0.29740030705E+02  0.22727491894E+01 -0.29510777113E+02  0.41958560283E+02  0.00000000000E+00 0. -1.
</event>
<event>
 7    1  0.2835316E-011  0.5052885E+02  0.7816164E-02  0.1300439E+00
        -11   -1    0    0    0    0  0.00000000000E+00  0.00000000000E+00  0.45593999997E+02  0.45594000000E+02  0.51100000000E-03 0. -1.
         11   -1    0    0    0    0 -0.00000000000E+00 -0.00000000000E+00 -0.45593999997E+02  0.45594000000E+02  0.51100000000E-03 0.  1.
    9900012    2    1    2    0    0 -0.17537994190E+02  0.17900665723E+01  0.36638515695E+02  0.50528850834E+02  0.29999972595E+02 0.  0.
        -12    1    1    2    0    0  0.17537994190E+02 -0.17900665723E+01 -0.36638515695E+02  0.40659149166E+02  0.00000000000E+00 0.  1.
         11    1    3    3    0    0  0.26711803568E+01  0.31003659032E+01  0.63548332962E-01  0.40928610878E+01  0.51100000000E-03 0. -1.
        -11    1    3    3    0    0  0.29775078494E+01 -0.21469033866E+01  0.73846580226E+00  0.37443396143E+01  0.51100000000E-03 0.  1.
         12    1    3    3    0    0 -0.23186682397E+02  0.83660405569E+00  0.35836501560E+02  0.42691650132E+02  0.00000000000E+00 0. -1.
</event>
<event>
 7    1  0.2835316E-011  0.5052887E+02  0.7816164E-02  0.1300439E+00
        -11   -1    0    0    0    0  0.00000000000E+00  0.00000000000E+00  0.45593999997E+02  0.45594000000E+02  0.51100000000E-03 0.  1.
         11   -1    0    0    0    0 -0.00000000000E+00 -0.00000000000E+00 -0.45593999997E+02  0.45594000000E+02  0.51100000000E-03 0. -1.
    9900012    2    1    2    0    0  0.36132262981E+02 -0.31701240748E+01 -0.18373199519E+02  0.50528873406E+02  0.30000041205E+02 0.  0.
        -12    1    1    2    0    0 -0.36132262981E+02  0.31701240748E+01  0.18373199519E+02  0.40659126594E+02  0.00000000000E+00 0.  1.
         11    1    3    3    0    0  0.16590479161E+02 -0.82680101678E+01 -0.14371501797E+02  0.23455149863E+02  0.51100000000E-03 0. -1.
        -11    1    3    3    0    0 -0.15149516455E+01 -0.32280178827E+01  0.13397342340E+01  0.38092080565E+01  0.51100000000E-03 0.  1.
        -12    1    3    3    0    0  0.21056735465E+02  0.83259039757E+01 -0.53414319562E+01  0.23264515486E+02  0.00000000000E+00 0.  1.
</event>
<event>
 7    1  0.2835316E-011  0.5052885E+02  0.7816164E-02  0.1300439E+00
        -11   -1    0    0    0    0  0.00000000000E+00  0.00000000000E+00  0.45593999997E+02  0.45594000000E+02  0.51100000000E-03 0. -1.
         11   -1    0    0    0    0 -0.00000000000E+00 -0.00000000000E+00 -0.45593999997E+02  0.45594000000E+02  0.51100000000E-03 0.  1.
    9900012    2    1    2    0    0 -0.51621027646E+01  0.26329602986E+02  0.30549486746E+02  0.50528850491E+02  0.29999971552E+02 0.  0.
        -12    1    1    2    0    0  0.51621027646E+01 -0.26329602986E+02 -0.30549486746E+02  0.40659149509E+02  0.00000000000E+00 0.  1.
         11    1    3    3    0    0  0.40901636941E+01  0.24133683249E+02  0.26455655909E+02  0.36042555904E+02  0.51100000000E-03 0. -1.
        -11    1    3    3    0    0 -0.19935260869E+01 -0.27495950332E+01 -0.18628597519E+01  0.38735856544E+01  0.51100000000E-03 0.  1.
        -12    1    3    3    0    0 -0.72587403718E+01  0.49455147699E+01  0.59566905886E+01  0.10612708933E+02  0.00000000000E+00 0.  1.
</event>
<event>
 7    1  0.2835316E-011  0.5052887E+02  0.7816164E-02  0.1300439E+00
        -11   -1    0    0    0    0  0.00000000000E+00  0.00000000000E+00  0.45593999997E+02  0.45594000000E+02  0.51100000000E-03 0.  1.
         11   -1    0    0    0    0 -0.00000000000E+00 -0.00000000000E+00 -0.45593999997E+02  0.45594000000E+02  0.51100000000E-03 0. -1.
    9900012    2    1    2    0    0 -0.11847255585E+02  0.31179529599E+02  0.23251765683E+02  0.50528866484E+02  0.30000020165E+02 0.  0.
        -12    1    1    2    0    0  0.11847255585E+02 -0.31179529599E+02 -0.23251765683E+02  0.40659133516E+02  0.00000000000E+00 0.  1.
         11    1    3    3    0    0 -0.12432916776E+02  0.12989776785E+02  0.20233970639E+02  0.27068898916E+02  0.51100000000E-03 0. -1.
        -11    1    3    3    0    0 -0.34570054434E+01  0.13841401159E+01  0.48092080263E+01  0.60823689955E+01  0.51100000000E-03 0.  1.
        -12    1    3    3    0    0  0.40426666342E+01  0.16805612698E+02 -0.17914129823E+01  0.17377598572E+02  0.00000000000E+00 0.  1.
</event>
<event>
 7    1 -0.1565579E-010  0.5052886E+02  0.7816164E-02  0.1300439E+00
        -11   -1    0    0    0    0  0.00000000000E+00  0.00000000000E+00  0.45593999997E+02  0.45594000000E+02  0.51100000000E-03 0.  1.
         11   -1    0    0    0    0 -0.00000000000E+00 -0.00000000000E+00 -0.45593999997E+02  0.45594000000E+02  0.51100000000E-03 0. -1.
    9900012    2    1    2    0    0  0.10900595646E+02  0.38146989758E+02 -0.88966045391E+01  0.50528863445E+02  0.30000010928E+02 0.  0.
        -12    1    1    2    0    0 -0.10900595646E+02 -0.38146989758E+02  0.88966045391E+01  0.40659136555E+02  0.00000000000E+00 0.  1.
         11    1    3    3    0    0  0.37427170343E+01  0.37157029691E+02 -0.25392106983E+01  0.37431275392E+02  0.51100000000E-03 0. -1.
        -11    1    3    3    0    0 -0.20699925156E+01  0.73263668136E+00 -0.89586565977E+00  0.23715398084E+01  0.51100000000E-03 0.  1.
         12    1    3    3    0    0  0.92278711277E+01  0.25732338573E+00 -0.54615281811E+01  0.10726048245E+02  0.00000000000E+00 0. -1.
</event>
<event>
 7    1  0.2835316E-011  0.5052886E+02  0.7816164E-02  0.1300439E+00
        -11   -1    0    0    0    0  0.00000000000E+00  0.00000000000E+00  0.45593999997E+02  0.45594000000E+02  0.51100000000E-03 0. -1.
         11   -1    0    0    0    0 -0.00000000000E+00 -0.00000000000E+00 -0.45593999997E+02  0.45594000000E+02  0.51100000000E-03 0.  1.
    9900012    2    1    2    0    0 -0.38604524825E+02  0.60648891195E+01  0.11228255536E+02  0.50528856633E+02  0.29999990221E+02 0.  0.
        -12    1    1    2    0    0  0.38604524825E+02 -0.60648891195E+01 -0.11228255536E+02  0.40659143367E+02  0.00000000000E+00 0.  1.
         11    1    3    3    0    0 -0.89577756821E+00 -0.38876043714E+01  0.58299577579E+01  0.70642970578E+01  0.51100000000E-03 0. -1.
        -11    1    3    3    0    0 -0.17531774032E+01  0.11702998856E+01 -0.46558037815E+01  0.51107476892E+01  0.51100000000E-03 0.  1.
         12    1    3    3    0    0 -0.35955569853E+02  0.87821936054E+01  0.10054101560E+02  0.38353811886E+02  0.00000000000E+00 0. -1.
</event>
<event>
 7    1  0.2835316E-011  0.5052879E+02  0.7816164E-02  0.1300439E+00
        -11   -1    0    0    0    0  0.00000000000E+00  0.00000000000E+00  0.45593999997E+02  0.45594000000E+02  0.51100000000E-03 0.  1.
         11   -1    0    0    0    0 -0.00000000000E+00 -0.00000000000E+00 -0.45593999997E+02  0.45594000000E+02  0.51100000000E-03 0. -1.
    9900012    2    1    2    0    0 -0.16439268376E+02 -0.70119869837E+01 -0.36520599672E+02  0.50528785711E+02  0.29999774646E+02 0.  0.
        -12    1    1    2    0    0  0.16439268376E+02  0.70119869837E+01  0.36520599672E+02  0.40659214289E+02  0.00000000000E+00 0.  1.
         11    1    3    3    0    0  0.52425870425E+00  0.69039823269E+00  0.20858356584E+01  0.22588066681E+01  0.51100000000E-03 0. -1.
        -11    1    3    3    0    0 -0.19462229152E+02 -0.97364878313E+01 -0.20559811003E+02  0.29937992378E+02  0.51100000000E-03 0.  1.
         12    1    3    3    0    0  0.24987020717E+01  0.20341026149E+01 -0.18046624327E+02  0.18331986665E+02  0.00000000000E+00 0. -1.
</event>
<event>
 7    1  0.2835316E-011  0.5052885E+02  0.7816164E-02  0.1300439E+00
        -11   -1    0    0    0    0  0.00000000000E+00  0.00000000000E+00  0.45593999997E+02  0.45594000000E+02  0.51100000000E-03 0. -1.
         11   -1    0    0    0    0 -0.00000000000E+00 -0.00000000000E+00 -0.45593999997E+02  0.45594000000E+02  0.51100000000E-03 0.  1.
    9900012    2    1    2    0    0 -0.20376251673E+02 -0.17482823334E+02  0.30534009088E+02  0.50528850292E+02  0.29999970948E+02 0.  0.
        -12    1    1    2    0    0  0.20376251673E+02  0.17482823334E+02 -0.30534009088E+02  0.40659149708E+02  0.00000000000E+00 0.  1.
         11    1    3    3    0    0 -0.10056575518E+02 -0.56804509131E+01  0.17958370146E+02  0.21351938841E+02  0.51100000000E-03 0. -1.
        -11    1    3    3    0    0 -0.68645349493E+01 -0.13375027771E+02  0.17427838605E+02  0.23016141437E+02  0.51100000000E-03 0.  1.
        -12    1    3    3    0    0 -0.34551412056E+01  0.15726553502E+01 -0.48521996625E+01  0.61607700141E+01  0.00000000000E+00 0.  1.
</event>
<event>
 7    1  0.2835316E-011  0.5052886E+02  0.7816164E-02  0.1300439E+00
        -11   -1    0    0    0    0  0.00000000000E+00  0.00000000000E+00  0.45593999997E+02  0.45594000000E+02  0.51100000000E-03 0. -1.
         11   -1    0    0    0    0 -0.00000000000E+00 -0.00000000000E+00 -0.45593999997E+02  0.45594000000E+02  0.51100000000E-03 0.  1.
    9900012    2    1    2    0    0  0.25477780052E+02  0.23088298721E+02  0.21702043476E+02  0.50528861971E+02  0.30000006447E+02 0.  0.
        -12    1    1    2    0    0 -0.25477780052E+02 -0.23088298721E+02 -0.21702043476E+02  0.40659138029E+02  0.00000000000E+00 0.  1.
         11    1    3    3    0    0  0.36044973396E+01  0.13088757789E+02  0.28177404219E+01  0.13865339624E+02  0.51100000000E-03 0. -1.
        -11    1    3    3    0    0  0.50689569604E+01 -0.49059076704E+01  0.10578315383E+02  0.12714677005E+02  0.51100000000E-03 0.  1.
         12    1    3    3    0    0  0.16804325752E+02  0.14905448603E+02  0.83059876709E+01  0.23948845342E+02  0.00000000000E+00 0. -1.
</event>
<event>
 7    1  0.2835316E-011  0.5052886E+02  0.7816164E-02  0.1300439E+00
        -11   -1    0    0    0    0  0.00000000000E+00  0.00000000000E+00  0.45593999997E+02  0.45594000000E+02  0.51100000000E-03 0.  1.
         11   -1    0    0    0    0 -0.00000000000E+00 -0.00000000000E+00 -0.45593999997E+02  0.45594000000E+02  0.51100000000E-03 0. -1.
    9900012    2    1    2    0    0 -0.87240542342E+01  0.28407110448E+01 -0.39610438816E+02  0.50528860502E+02  0.30000001981E+02 0.  0.
        -12    1    1    2    0    0  0.87240542342E+01 -0.28407110448E+01  0.39610438816E+02  0.40659139498E+02  0.00000000000E+00 0.  1.
         11    1    3    3    0    0  0.21212006972E+00 -0.45268484777E+01 -0.90428886517E+01  0.10114899282E+02  0.51100000000E-03 0. -1.
        -11    1    3    3    0    0 -0.15588286363E+02  0.87291477514E+00 -0.12151146675E+02  0.19784009142E+02  0.51100000000E-03 0.  1.
         12    1    3    3    0    0  0.66521120589E+01  0.64946447474E+01 -0.18416403489E+02  0.20629952077E+02  0.00000000000E+00 0. -1.
</event>
<event>
 7    1  0.2835316E-011  0.5052887E+02  0.7816164E-02  0.1300439E+00
        -11   -1    0    0    0    0  0.00000000000E+00  0.00000000000E+00  0.45593999997E+02  0.45594000000E+02  0.51100000000E-03 0.  1.
         11   -1    0    0    0    0 -0.00000000000E+00 -0.00000000000E+00 -0.45593999997E+02  0.45594000000E+02  0.51100000000E-03 0. -1.
    9900012    2    1    2    0    0 -0.37965191383E+02 -0.37297834298E+01 -0.14067620944E+02  0.50528868182E+02  0.30000025327E+02 0.  0.
        -12    1    1    2    0    0  0.37965191383E+02  0.37297834298E+01  0.14067620944E+02  0.40659131818E+02  0.00000000000E+00 0.  1.
         11    1    3    3    0    0 -0.11482266546E+02  0.47085111966E+00 -0.10047748680E+02  0.15265038474E+02  0.51100000000E-03 0. -1.
        -11    1    3    3    0    0 -0.48404346635E+01  0.80398961336E+01 -0.44718387082E+01  0.10395531697E+02  0.51100000000E-03 0.  1.
         12    1    3    3    0    0 -0.21642490174E+02 -0.12240530683E+02  0.45196644447E+00  0.24868298011E+02  0.00000000000E+00 0. -1.
</event>
<event>
 7    1  0.2835316E-011  0.5052885E+02  0.7816164E-02  0.1300439E+00
        -11   -1    0    0    0    0  0.00000000000E+00  0.00000000000E+00  0.45593999997E+02  0.45594000000E+02  0.51100000000E-03 0.  1.
         11   -1    0    0    0    0 -0.00000000000E+00 -0.00000000000E+00 -0.45593999997E+02  0.45594000000E+02  0.51100000000E-03 0. -1.
    9900012    2    1    2    0    0 -0.17177881477E+02  0.10710376015E+01 -0.36836658018E+02  0.50528854565E+02  0.29999983936E+02 0.  0.
        -12    1    1    2    0    0  0.17177881477E+02 -0.10710376015E+01  0.36836658018E+02  0.40659145435E+02  0.00000000000E+00 0.  1.
         11    1    3    3    0    0 -0.57370602435E+01 -0.39767200918E+01 -0.10989534564E+02  0.13019141028E+02  0.51100000000E-03 0. -1.
        -11    1    3    3    0    0 -0.15737953727E+02 -0.16704619355E+00 -0.65208576996E+01  0.17036216638E+02  0.51100000000E-03 0.  1.
         12    1    3    3    0    0  0.42971324933E+01  0.52148038869E+01 -0.19326265754E+02  0.20473496898E+02  0.00000000000E+00 0. -1.
</event>
<event>
 7    1  0.2835316E-011  0.5052885E+02  0.7816164E-02  0.1300439E+00
        -11   -1    0    0    0    0  0.00000000000E+00  0.00000000000E+00  0.45593999997E+02  0.45594000000E+02  0.51100000000E-03 0.  1.
         11   -1    0    0    0    0 -0.00000000000E+00 -0.00000000000E+00 -0.45593999997E+02  0.45594000000E+02  0.51100000000E-03 0. -1.
    9900012    2    1    2    0    0  0.54927998096E+01 -0.11073687585E+02 -0.38734601181E+02  0.50528846846E+02  0.29999960474E+02 0.  0.
        -12    1    1    2    0    0 -0.54927998096E+01  0.11073687585E+02  0.38734601181E+02  0.40659153154E+02  0.00000000000E+00 0.  1.
         11    1    3    3    0    0  0.13210042905E+02 -0.75116763534E+01 -0.27713194451E+02  0.31606196577E+02  0.51100000000E-03 0. -1.
        -11    1    3    3    0    0 -0.54993209989E+01  0.21690748219E+01 -0.11319415076E+02  0.12770143889E+02  0.51100000000E-03 0.  1.
        -12    1    3    3    0    0 -0.22179220959E+01 -0.57310860534E+01  0.29800834512E+00  0.61525063795E+01  0.00000000000E+00 0.  1.
</event>
<event>
 7    1  0.2835316E-011  0.5052886E+02  0.7816164E-02  0.1300439E+00
        -11   -1    0    0    0    0  0.00000000000E+00  0.00000000000E+00  0.45593999997E+02  0.45594000000E+02  0.51100000000E-03 0.  1.
         11   -1    0    0    0    0 -0.00000000000E+00 -0.00000000000E+00 -0.45593999997E+02  0.45594000000E+02  0.51100000000E-03 0. -1.
    9900012    2    1    2    0    0  0.61646071697E+01  0.30906045100E+02 -0.25690073172E+02  0.50528857549E+02  0.29999993006E+02 0.  0.
        -12    1    1    2    0    0 -0.61646071697E+01 -0.30906045100E+02  0.25690073172E+02  0.40659142451E+02  0.00000000000E+00 0.  1.
         11    1    3    3    0    0 -0.12089228499E+01  0.18928508949E+02 -0.75629866866E+01  0.20419322060E+02  0.51100000000E-03 0. -1.
        -11    1    3    3    0    0 -0.44200885137E+01  0.19365636398E+01  0.15491553796E+01  0.50682683286E+01  0.51100000000E-03 0.  1.
         12    1    3    3    0    0  0.11793618533E+02  0.10040972511E+02 -0.19676241865E+02  0.25041267160E+02  0.00000000000E+00 0. -1.
</event>
<event>
 7    1  0.2835316E-011  0.5052886E+02  0.7816164E-02  0.1300439E+00
        -11   -1    0    0    0    0  0.00000000000E+00  0.00000000000E+00  0.45593999997E+02  0.45594000000E+02  0.51100000000E-03 0.  1.
         11   -1    0    0    0    0 -0.00000000000E+00 -0.00000000000E+00 -0.45593999997E+02  0.45594000000E+02  0.51100000000E-03 0. -1.
    9900012    2    1    2    0    0  0.27362000585E+02  0.56755188105E+01 -0.29534303202E+02  0.50528860125E+02  0.30000000835E+02 0.  0.
        -12    1    1    2    0    0 -0.27362000585E+02 -0.56755188105E+01  0.29534303202E+02  0.40659139875E+02  0.00000000000E+00 0.  1.
         11    1    3    3    0    0  0.63143246737E+01  0.72649449948E+00 -0.91206117654E-02  0.63559872396E+01  0.51100000000E-03 0. -1.
        -11    1    3    3    0    0 -0.40917813410E+01 -0.43739174071E+01 -0.44438893992E+01  0.74580145669E+01  0.51100000000E-03 0.  1.
         12    1    3    3    0    0  0.25139457252E+02  0.93229417181E+01 -0.25081293191E+02  0.36714858318E+02  0.00000000000E+00 0. -1.
</event>
<event>
 7    1  0.2835316E-011  0.5052887E+02  0.7816164E-02  0.1300439E+00
        -11   -1    0    0    0    0  0.00000000000E+00  0.00000000000E+00  0.45593999997E+02  0.45594000000E+02  0.51100000000E-03 0.  1.
         11   -1    0    0    0    0 -0.00000000000E+00 -0.00000000000E+00 -0.45593999997E+02  0.45594000000E+02  0.51100000000E-03 0. -1.
    9900012    2    1    2    0    0 -0.12556248009E+02 -0.11217131244E+01 -0.38655498407E+02  0.50528866199E+02  0.30000019298E+02 0.  0.
        -12    1    1    2    0    0  0.12556248009E+02  0.11217131244E+01  0.38655498407E+02  0.40659133801E+02  0.00000000000E+00 0.  1.
         11    1    3    3    0    0 -0.24650459217E+01  0.70265129113E+01 -0.12312679532E+02  0.14389246423E+02  0.51100000000E-03 0. -1.
        -11    1    3    3    0    0 -0.83538190065E+01 -0.70015869549E+01 -0.30007031972E+02  0.31925389268E+02  0.51100000000E-03 0.  1.
        -12    1    3    3    0    0 -0.17373830809E+01 -0.11466390807E+01  0.36642130977E+01  0.42142305082E+01  0.00000000000E+00 0.  1.
</event>
<event>
 7    1  0.2835316E-011  0.5052886E+02  0.7816164E-02  0.1300439E+00
        -11   -1    0    0    0    0  0.00000000000E+00  0.00000000000E+00  0.45593999997E+02  0.45594000000E+02  0.51100000000E-03 0.  1.
         11   -1    0    0    0    0 -0.00000000000E+00 -0.00000000000E+00 -0.45593999997E+02  0.45594000000E+02  0.51100000000E-03 0. -1.
    9900012    2    1    2    0    0 -0.37995851771E+02  0.99992251362E+01 -0.10464055105E+02  0.50528859522E+02  0.29999999004E+02 0.  0.
        -12    1    1    2    0    0  0.37995851771E+02 -0.99992251362E+01  0.10464055105E+02  0.40659140478E+02  0.00000000000E+00 0.  1.
         11    1    3    3    0    0 -0.35704740973E+02  0.68110639820E+01 -0.41031632473E+01  0.36579435062E+02  0.51100000000E-03 0. -1.
        -11    1    3    3    0    0 -0.30987634492E+01 -0.70363813167E+00  0.26263226654E+01  0.41225007626E+01  0.51100000000E-03 0.  1.
        -12    1    3    3    0    0  0.80765265094E+00  0.38917992859E+01 -0.89872145228E+01  0.98269236979E+01  0.00000000000E+00 0.  1.
</event>
<event>
 7    1  0.2835316E-011  0.5052886E+02  0.7816164E-02  0.1300439E+00
        -11   -1    0    0    0    0  0.00000000000E+00  0.00000000000E+00  0.45593999997E+02  0.45594000000E+02  0.51100000000E-03 0.  1.
         11   -1    0    0    0    0 -0.00000000000E+00 -0.00000000000E+00 -0.45593999997E+02  0.45594000000E+02  0.51100000000E-03 0. -1.
    9900012    2    1    2    0    0 -0.25445777246E+02 -0.15262374418E+02 -0.27798163861E+02  0.50528861217E+02  0.30000004156E+02 0.  0.
        -12    1    1    2    0    0  0.25445777246E+02  0.15262374418E+02  0.27798163861E+02  0.40659138783E+02  0.00000000000E+00 0.  1.
         11    1    3    3    0    0 -0.11039111734E+02  0.10493113466E+01  0.14575579536E+00  0.11089828096E+02  0.51100000000E-03 0. -1.
        -11    1    3    3    0    0 -0.29027056451E+01  0.36500484467E+01 -0.62097351941E+01  0.77659104532E+01  0.51100000000E-03 0.  1.
         12    1    3    3    0    0 -0.11503959867E+02 -0.19961734211E+02 -0.21734184462E+02  0.31673122668E+02  0.00000000000E+00 0. -1.
</event>
<event>
 7    1  0.2835316E-011  0.5052887E+02  0.7816164E-02  0.1300439E+00
        -11   -1    0    0    0    0  0.00000000000E+00  0.00000000000E+00  0.45593999997E+02  0.45594000000E+02  0.51100000000E-03 0. -1.
         11   -1    0    0    0    0 -0.00000000000E+00 -0.00000000000E+00 -0.45593999997E+02  0.45594000000E+02  0.51100000000E-03 0.  1.
    9900012    2    1    2    0    0  0.34087822930E+02 -0.23406875462E+01 -0.22038750353E+02  0.50528868093E+02  0.30000025056E+02 0.  0.
        -12    1    1    2    0    0 -0.34087822930E+02  0.23406875462E+01  0.22038750353E+02  0.40659131907E+02  0.00000000000E+00 0.  1.
         11    1    3    3    0    0  0.11501888086E+02  0.27680953048E+01 -0.93660730881E+01  0.15089039284E+02  0.51100000000E-03 0. -1.
        -11    1    3    3    0    0 -0.16249550072E+01  0.13586941289E+01 -0.10018342349E+02  0.10239810164E+02  0.51100000000E-03 0.  1.
        -12    1    3    3    0    0  0.24210889851E+02 -0.64674769799E+01 -0.26543349157E+01  0.25200018645E+02  0.00000000000E+00 0.  1.
</event>
<event>
 7    1  0.2835316E-011  0.5052886E+02  0.7816164E-02  0.1300439E+00
        -11   -1    0    0    0    0  0.00000000000E+00  0.00000000000E+00  0.45593999997E+02  0.45594000000E+02  0.51100000000E-03 0.  1.
         11   -1    0    0    0    0 -0.00000000000E+00 -0.00000000000E+00 -0.45593999997E+02  0.45594000000E+02  0.51100000000E-03 0. -1.
    9900012    2    1    2    0    0 -0.93311794465E+01 -0.37721733339E+02  0.11965195956E+02  0.50528856008E+02  0.29999988321E+02 0.  0.
        -12    1    1    2    0    0  0.93311794465E+01  0.37721733339E+02 -0.11965195956E+02  0.40659143992E+02  0.00000000000E+00 0.  1.
         11    1    3    3    0    0  0.70765261748E+00 -0.31141171440E+02  0.46137597874E+01  0.31489047470E+02  0.51100000000E-03 0. -1.
        -11    1    3    3    0    0 -0.85934399775E+01 -0.99381137506E+01  0.32272537308E+01  0.13528801960E+02  0.51100000000E-03 0.  1.
        -12    1    3    3    0    0 -0.14453920865E+01  0.33575518523E+01  0.41241824375E+01  0.55110065779E+01  0.00000000000E+00 0.  1.
</event>
<event>
 7    1  0.2835316E-011  0.5052886E+02  0.7816164E-02  0.1300439E+00
        -11   -1    0    0    0    0  0.00000000000E+00  0.00000000000E+00  0.45593999997E+02  0.45594000000E+02  0.51100000000E-03 0.  1.
         11   -1    0    0    0    0 -0.00000000000E+00 -0.00000000000E+00 -0.45593999997E+02  0.45594000000E+02  0.51100000000E-03 0. -1.
    9900012    2    1    2    0    0  0.11613585690E+02  0.30457532372E+02 -0.24302860326E+02  0.50528859935E+02  0.30000000259E+02 0.  0.
        -12    1    1    2    0    0 -0.11613585690E+02 -0.30457532372E+02  0.24302860326E+02  0.40659140065E+02  0.00000000000E+00 0.  1.
         11    1    3    3    0    0  0.37447565981E+00  0.19599196052E+02 -0.24257309829E+02  0.31187911093E+02  0.51100000000E-03 0. -1.
        -11    1    3    3    0    0 -0.29184799289E+00 -0.18355377273E+00  0.30576238509E+01  0.30770003434E+01  0.51100000000E-03 0.  1.
        -12    1    3    3    0    0  0.11530958023E+02  0.11041890093E+02 -0.31031743472E+01  0.16263948499E+02  0.00000000000E+00 0.  1.
</event>
<event>
 7    1  0.2835316E-011  0.5052887E+02  0.7816164E-02  0.1300439E+00
        -11   -1    0    0    0    0  0.00000000000E+00  0.00000000000E+00  0.45593999997E+02  0.45594000000E+02  0.51100000000E-03 0.  1.
         11   -1    0    0    0    0 -0.00000000000E+00 -0.00000000000E+00 -0.45593999997E+02  0.45594000000E+02  0.51100000000E-03 0. -1.
    9900012    2    1    2    0    0  0.19759245885E+02  0.12485855989E+02 -0.33269217314E+02  0.50528865499E+02  0.30000017170E+02 0.  0.
        -12    1    1    2    0    0 -0.19759245885E+02 -0.12485855989E+02  0.33269217314E+02  0.40659134501E+02  0.00000000000E+00 0.  1.
         11    1    3    3    0    0  0.91992889611E+01  0.12419914107E+01 -0.13796099276E+02  0.16628343741E+02  0.51100000000E-03 0. -1.
        -11    1    3    3    0    0  0.16533867604E+02  0.13205460345E+02 -0.12793508278E+02  0.24727046228E+02  0.51100000000E-03 0.  1.
        -12    1    3    3    0    0 -0.59739106799E+01 -0.19615957659E+01 -0.66796097594E+01  0.91734755299E+01  0.00000000000E+00 0.  1.
</event>
<event>
 7    1  0.2835316E-011  0.5052886E+02  0.7816164E-02  0.1300439E+00
        -11   -1    0    0    0    0  0.00000000000E+00  0.00000000000E+00  0.45593999997E+02  0.45594000000E+02  0.51100000000E-03 0.  1.
         11   -1    0    0    0    0 -0.00000000000E+00 -0.00000000000E+00 -0.45593999997E+02  0.45594000000E+02  0.51100000000E-03 0. -1.
    9900012    2    1    2    0    0 -0.10112754867E+02  0.15561034394E+02 -0.36176676404E+02  0.50528861814E+02  0.30000005970E+02 0.  0.
        -12    1    1    2    0    0  0.10112754867E+02 -0.15561034394E+02  0.36176676404E+02  0.40659138186E+02  0.00000000000E+00 0.  1.
         11    1    3    3    0    0  0.10824820708E+01  0.66146336621E+01 -0.29193448786E+01  0.73107948062E+01  0.51100000000E-03 0.  1.
        -11    1    3    3    0    0 -0.61493343303E+01  0.12357424176E+02 -0.34359656680E+02  0.37028451931E+02  0.51100000000E-03 0. -1.
         12    1    3    3    0    0 -0.50459026074E+01 -0.34110234436E+01  0.11023251546E+01  0.61896150772E+01  0.00000000000E+00 0. -1.
</event>
<event>
 7    1  0.2835316E-011  0.5052886E+02  0.7816164E-02  0.1300439E+00
        -11   -1    0    0    0    0  0.00000000000E+00  0.00000000000E+00  0.45593999997E+02  0.45594000000E+02  0.51100000000E-03 0.  1.
         11   -1    0    0    0    0 -0.00000000000E+00 -0.00000000000E+00 -0.45593999997E+02  0.45594000000E+02  0.51100000000E-03 0. -1.
    9900012    2    1    2    0    0 -0.10016341969E+02  0.21322861824E+02 -0.33138711171E+02  0.50528859319E+02  0.29999998388E+02 0.  0.
        -12    1    1    2    0    0  0.10016341969E+02 -0.21322861824E+02  0.33138711171E+02  0.40659140681E+02  0.00000000000E+00 0.  1.
         11    1    3    3    0    0 -0.11170681990E+02  0.41618861090E+01 -0.11789718738E+02  0.16766123592E+02  0.51100000000E-03 0. -1.
        -11    1    3    3    0    0  0.14945001663E+01  0.41425357969E+01 -0.20216614150E+02  0.20690713413E+02  0.51100000000E-03 0.  1.
        -12    1    3    3    0    0 -0.34016014534E+00  0.13018439919E+02 -0.11323782828E+01  0.13072022315E+02  0.00000000000E+00 0.  1.
</event>
<event>
 7    1  0.2835316E-011  0.5052886E+02  0.7816164E-02  0.1300439E+00
        -11   -1    0    0    0    0  0.00000000000E+00  0.00000000000E+00  0.45593999997E+02  0.45594000000E+02  0.51100000000E-03 0. -1.
         11   -1    0    0    0    0 -0.00000000000E+00 -0.00000000000E+00 -0.45593999997E+02  0.45594000000E+02  0.51100000000E-03 0.  1.
    9900012    2    1    2    0    0 -0.10990711973E+01  0.40589864605E+02 -0.21024663734E+01  0.50528862884E+02  0.30000009223E+02 0.  0.
        -12    1    1    2    0    0  0.10990711973E+01 -0.40589864605E+02  0.21024663734E+01  0.40659137116E+02  0.00000000000E+00 0.  1.
         11    1    3    3    0    0 -0.86495248077E+01  0.11331703394E+02 -0.66115508472E+01  0.15714146050E+02  0.51100000000E-03 0. -1.
        -11    1    3    3    0    0 -0.24466208873E+00  0.22306016453E+02  0.81557573287E+01  0.23751518002E+02  0.51100000000E-03 0.  1.
        -12    1    3    3    0    0  0.77951156991E+01  0.69521447582E+01 -0.36466728549E+01  0.11063198833E+02  0.00000000000E+00 0.  1.
</event>
<event>
 7    1  0.2835316E-011  0.5052886E+02  0.7816164E-02  0.1300439E+00
        -11   -1    0    0    0    0  0.00000000000E+00  0.00000000000E+00  0.45593999997E+02  0.45594000000E+02  0.51100000000E-03 0. -1.
         11   -1    0    0    0    0 -0.00000000000E+00 -0.00000000000E+00 -0.45593999997E+02  0.45594000000E+02  0.51100000000E-03 0.  1.
    9900012    2    1    2    0    0  0.17924327064E+02  0.36399168012E+02 -0.26428347029E+01  0.50528861939E+02  0.30000006349E+02 0.  0.
        -12    1    1    2    0    0 -0.17924327064E+02 -0.36399168012E+02  0.26428347029E+01  0.40659138061E+02  0.00000000000E+00 0.  1.
         11    1    3    3    0    0  0.20293062531E+01  0.20193860646E+02  0.25143546603E+01  0.20450723002E+02  0.51100000000E-03 0. -1.
        -11    1    3    3    0    0 -0.68544032053E+00 -0.64323133281E+00  0.44600472608E+01  0.45580255385E+01  0.51100000000E-03 0.  1.
         12    1    3    3    0    0  0.16580461131E+02  0.16848538698E+02 -0.96172366239E+01  0.25520113399E+02  0.00000000000E+00 0. -1.
</event>
<event>
 7    1  0.2835316E-011  0.5052885E+02  0.7816164E-02  0.1300439E+00
        -11   -1    0    0    0    0  0.00000000000E+00  0.00000000000E+00  0.45593999997E+02  0.45594000000E+02  0.51100000000E-03 0.  1.
         11   -1    0    0    0    0 -0.00000000000E+00 -0.00000000000E+00 -0.45593999997E+02  0.45594000000E+02  0.51100000000E-03 0. -1.
    9900012    2    1    2    0    0  0.12122535534E+02 -0.35099339350E+02 -0.16560402531E+02  0.50528850690E+02  0.29999972159E+02 0.  0.
        -12    1    1    2    0    0 -0.12122535534E+02  0.35099339350E+02  0.16560402531E+02  0.40659149310E+02  0.00000000000E+00 0.  1.
         11    1    3    3    0    0  0.60445412049E+01 -0.17805721753E+02 -0.57968299663E+01  0.19676977498E+02  0.51100000000E-03 0. -1.
        -11    1    3    3    0    0  0.29284552775E+01 -0.14383866438E+02 -0.17515717027E+02  0.22853266884E+02  0.51100000000E-03 0.  1.
        -12    1    3    3    0    0  0.31495390514E+01 -0.29097511588E+01  0.67521444625E+01  0.79986063089E+01  0.00000000000E+00 0.  1.
</event>
<event>
 7    1  0.2835316E-011  0.5052884E+02  0.7816164E-02  0.1300439E+00
        -11   -1    0    0    0    0  0.00000000000E+00  0.00000000000E+00  0.45593999997E+02  0.45594000000E+02  0.51100000000E-03 0.  1.
         11   -1    0    0    0    0 -0.00000000000E+00 -0.00000000000E+00 -0.45593999997E+02  0.45594000000E+02  0.51100000000E-03 0. -1.
    9900012    2    1    2    0    0  0.25659008746E+02  0.11775550613E+02 -0.29259515709E+02  0.50528836438E+02  0.29999928836E+02 0.  0.
        -12    1    1    2    0    0 -0.25659008746E+02 -0.11775550613E+02  0.29259515709E+02  0.40659163562E+02  0.00000000000E+00 0.  1.
         11    1    3    3    0    0  0.10744243473E+02 -0.47482057678E-01 -0.67296621633E+01  0.12677908954E+02  0.51100000000E-03 0. -1.
        -11    1    3    3    0    0  0.68436398968E+01 -0.15904171300E+01 -0.20973721404E+02  0.22119263629E+02  0.51100000000E-03 0.  1.
        -12    1    3    3    0    0  0.80711253757E+01  0.13413449801E+02 -0.15561321413E+01  0.15731663855E+02  0.00000000000E+00 0.  1.
</event>
<event>
 7    1  0.2835316E-011  0.5052887E+02  0.7816164E-02  0.1300439E+00
        -11   -1    0    0    0    0  0.00000000000E+00  0.00000000000E+00  0.45593999997E+02  0.45594000000E+02  0.51100000000E-03 0. -1.
         11   -1    0    0    0    0 -0.00000000000E+00 -0.00000000000E+00 -0.45593999997E+02  0.45594000000E+02  0.51100000000E-03 0.  1.
    9900012    2    1    2    0    0  0.14612585578E+02 -0.35519821211E+02  0.13340907608E+02  0.50528866070E+02  0.30000018906E+02 0.  0.
        -12    1    1    2    0    0 -0.14612585578E+02  0.35519821211E+02 -0.13340907608E+02  0.40659133930E+02  0.00000000000E+00 0.  1.
         11    1    3    3    0    0  0.12644104071E+01 -0.18421337552E+02 -0.43845514669E+00  0.18469885058E+02  0.51100000000E-03 0. -1.
        -11    1    3    3    0    0  0.12485910385E+02 -0.19234108343E+02  0.56604041390E+01  0.23619675213E+02  0.51100000000E-03 0.  1.
        -12    1    3    3    0    0  0.86226478594E+00  0.21356246842E+01  0.81189586158E+01  0.84393057984E+01  0.00000000000E+00 0.  1.
</event>
<event>
 7    1  0.2835316E-011  0.5052886E+02  0.7816164E-02  0.1300439E+00
        -11   -1    0    0    0    0  0.00000000000E+00  0.00000000000E+00  0.45593999997E+02  0.45594000000E+02  0.51100000000E-03 0.  1.
         11   -1    0    0    0    0 -0.00000000000E+00 -0.00000000000E+00 -0.45593999997E+02  0.45594000000E+02  0.51100000000E-03 0. -1.
    9900012    2    1    2    0    0  0.22820152270E+02 -0.18654413624E+02 -0.28007480666E+02  0.50528862398E+02  0.30000007744E+02 0.  0.
        -12    1    1    2    0    0 -0.22820152270E+02  0.18654413624E+02  0.28007480666E+02  0.40659137602E+02  0.00000000000E+00 0.  1.
         11    1    3    3    0    0  0.23409263679E+01  0.10626452050E+01 -0.93513074788E+01  0.96982525702E+01  0.51100000000E-03 0. -1.
        -11    1    3    3    0    0  0.20415274994E+00 -0.75634879893E+00  0.45696567285E+01  0.46363244848E+01  0.51100000000E-03 0.  1.
         12    1    3    3    0    0  0.20275073152E+02 -0.18960710030E+02 -0.23225829916E+02  0.36194285343E+02  0.00000000000E+00 0. -1.
</event>
<event>
 7    1  0.2835316E-011  0.5052886E+02  0.7816164E-02  0.1300439E+00
        -11   -1    0    0    0    0  0.00000000000E+00  0.00000000000E+00  0.45593999997E+02  0.45594000000E+02  0.51100000000E-03 0.  1.
         11   -1    0    0    0    0 -0.00000000000E+00 -0.00000000000E+00 -0.45593999997E+02  0.45594000000E+02  0.51100000000E-03 0. -1.
    9900012    2    1    2    0    0 -0.54319186039E+01  0.33957016099E+02 -0.21692873070E+02  0.50528862969E+02  0.30000009482E+02 0.  0.
        -12    1    1    2    0    0  0.54319186039E+01 -0.33957016099E+02  0.21692873070E+02  0.40659137031E+02  0.00000000000E+00 0.  1.
         11    1    3    3    0    0  0.33077137560E+00 -0.27567404745E+00 -0.99376110385E+01  0.99469351710E+01  0.51100000000E-03 0. -1.
        -11    1    3    3    0    0 -0.75011950677E+01  0.58258589029E+01  0.68357537729E+00  0.95223859908E+01  0.51100000000E-03 0.  1.
         12    1    3    3    0    0  0.17385050882E+01  0.28406831243E+02 -0.12438837409E+02  0.31059541808E+02  0.00000000000E+00 0. -1.
</event>
<event>
 7    1  0.2835316E-011  0.5052886E+02  0.7816164E-02  0.1300439E+00
        -11   -1    0    0    0    0  0.00000000000E+00  0.00000000000E+00  0.45593999997E+02  0.45594000000E+02  0.51100000000E-03 0.  1.
         11   -1    0    0    0    0 -0.00000000000E+00 -0.00000000000E+00 -0.45593999997E+02  0.45594000000E+02  0.51100000000E-03 0. -1.
    9900012    2    1    2    0    0 -0.25694722677E+02 -0.22359137961E+02 -0.22203954739E+02  0.50528862898E+02  0.30000009264E+02 0.  0.
        -12    1    1    2    0    0  0.25694722677E+02  0.22359137961E+02  0.22203954739E+02  0.40659137102E+02  0.00000000000E+00 0.  1.
         11    1    3    3    0    0 -0.22737604407E+02 -0.15261143464E+02 -0.12751220235E+02  0.30207528395E+02  0.51100000000E-03 0. -1.
        -11    1    3    3    0    0 -0.39018728887E+01 -0.39518856258E+01  0.37598030450E+01  0.67065737331E+01  0.51100000000E-03 0.  1.
        -12    1    3    3    0    0  0.94475461906E+00 -0.31461088717E+01 -0.13212537549E+02  0.13614760769E+02  0.00000000000E+00 0.  1.
</event>
<event>
 7    1  0.2835316E-011  0.5052884E+02  0.7816164E-02  0.1300439E+00
        -11   -1    0    0    0    0  0.00000000000E+00  0.00000000000E+00  0.45593999997E+02  0.45594000000E+02  0.51100000000E-03 0. -1.
         11   -1    0    0    0    0 -0.00000000000E+00 -0.00000000000E+00 -0.45593999997E+02  0.45594000000E+02  0.51100000000E-03 0.  1.
    9900012    2    1    2    0    0 -0.36932419605E+02 -0.99292751223E+01 -0.13804820334E+02  0.50528841293E+02  0.29999943593E+02 0.  0.
        -12    1    1    2    0    0  0.36932419605E+02  0.99292751223E+01  0.13804820334E+02  0.40659158707E+02  0.00000000000E+00 0.  1.
         11    1    3    3    0    0 -0.23699493040E+02 -0.44306743840E+01 -0.72038487431E+00  0.24120858204E+02  0.51100000000E-03 0. -1.
        -11    1    3    3    0    0 -0.42173727241E+01  0.59191283080E+01 -0.69821747788E+00  0.73013574442E+01  0.51100000000E-03 0.  1.
        -12    1    3    3    0    0 -0.90155538405E+01 -0.11417729046E+02 -0.12386217982E+02  0.19106625644E+02  0.00000000000E+00 0.  1.
</event>
<event>
 7    1  0.2835316E-011  0.5052881E+02  0.7816164E-02  0.1300439E+00
        -11   -1    0    0    0    0  0.00000000000E+00  0.00000000000E+00  0.45593999997E+02  0.45594000000E+02  0.51100000000E-03 0.  1.
         11   -1    0    0    0    0 -0.00000000000E+00 -0.00000000000E+00 -0.45593999997E+02  0.45594000000E+02  0.51100000000E-03 0. -1.
    9900012    2    1    2    0    0 -0.29034236123E+02  0.16090192592E+02 -0.23479530336E+02  0.50528812727E+02  0.29999856765E+02 0.  0.
        -12    1    1    2    0    0  0.29034236123E+02 -0.16090192592E+02  0.23479530336E+02  0.40659187273E+02  0.00000000000E+00 0.  1.
         11    1    3    3    0    0 -0.20445003694E+02  0.16222602430E+02 -0.11895181040E+02  0.28682160621E+02  0.51100000000E-03 0. -1.
        -11    1    3    3    0    0 -0.47286588942E+01  0.35718280171E+01  0.27598009982E+01  0.65371761588E+01  0.51100000000E-03 0.  1.
        -12    1    3    3    0    0 -0.38605735348E+01 -0.37042378552E+01 -0.14344150295E+02  0.15309475948E+02  0.00000000000E+00 0.  1.
</event>
<event>
 7    1  0.2835316E-011  0.5052886E+02  0.7816164E-02  0.1300439E+00
        -11   -1    0    0    0    0  0.00000000000E+00  0.00000000000E+00  0.45593999997E+02  0.45594000000E+02  0.51100000000E-03 0. -1.
         11   -1    0    0    0    0 -0.00000000000E+00 -0.00000000000E+00 -0.45593999997E+02  0.45594000000E+02  0.51100000000E-03 0.  1.
    9900012    2    1    2    0    0  0.11883554372E+02  0.10967753401E+02  0.37304894445E+02  0.50528860452E+02  0.30000001831E+02 0.  0.
        -12    1    1    2    0    0 -0.11883554372E+02 -0.10967753401E+02 -0.37304894445E+02  0.40659139548E+02  0.00000000000E+00 0.  1.
         11    1    3    3    0    0  0.81567393212E+01 -0.37030028470E+01  0.33553316272E+01  0.95657136183E+01  0.51100000000E-03 0. -1.
        -11    1    3    3    0    0 -0.45267667688E+01  0.93481305543E+01  0.76791169476E+01  0.12916965572E+02  0.51100000000E-03 0.  1.
         12    1    3    3    0    0  0.82535818201E+01  0.53226256936E+01  0.26270445870E+02  0.28046181262E+02  0.00000000000E+00 0. -1.
</event>
<event>
 7    1  0.2835316E-011  0.5052887E+02  0.7816164E-02  0.1300439E+00
        -11   -1    0    0    0    0  0.00000000000E+00  0.00000000000E+00  0.45593999997E+02  0.45594000000E+02  0.51100000000E-03 0.  1.
         11   -1    0    0    0    0 -0.00000000000E+00 -0.00000000000E+00 -0.45593999997E+02  0.45594000000E+02  0.51100000000E-03 0. -1.
    9900012    2    1    2    0    0  0.19884765216E+02  0.64273871548E+01 -0.34877635886E+02  0.50528872140E+02  0.30000037358E+02 0.  0.
        -12    1    1    2    0    0 -0.19884765216E+02 -0.64273871548E+01  0.34877635886E+02  0.40659127860E+02  0.00000000000E+00 0.  1.
         11    1    3    3    0    0  0.91723902211E+00 -0.60059847990E+01 -0.75647874107E+01  0.97025352182E+01  0.51100000000E-03 0. -1.
        -11    1    3    3    0    0  0.88503849388E+01 -0.47350912476E+01 -0.12303701050E+02  0.15878648005E+02  0.51100000000E-03 0.  1.
         12    1    3    3    0    0  0.10117141255E+02  0.17168463201E+02 -0.15009147425E+02  0.24947688917E+02  0.00000000000E+00 0. -1.
</event>
<event>
 7    1  0.2835316E-011  0.5052885E+02  0.7816164E-02  0.1300439E+00
        -11   -1    0    0    0    0  0.00000000000E+00  0.00000000000E+00  0.45593999997E+02  0.45594000000E+02  0.51100000000E-03 0.  1.
         11   -1    0    0    0    0 -0.00000000000E+00 -0.00000000000E+00 -0.45593999997E+02  0.45594000000E+02  0.51100000000E-03 0. -1.
    9900012    2    1    2    0    0  0.17105482817E+02  0.24875301178E+02 -0.27235786509E+02  0.50528853208E+02  0.29999979811E+02 0.  0.
        -12    1    1    2    0    0 -0.17105482817E+02 -0.24875301178E+02  0.27235786509E+02  0.40659146792E+02  0.00000000000E+00 0.  1.
         11    1    3    3    0    0  0.58932253925E+01  0.14749055056E+02 -0.78908471751E+01  0.17734999295E+02  0.51100000000E-03 0. -1.
        -11    1    3    3    0    0 -0.18733845422E+01  0.10032007992E+01  0.39940575649E+01  0.45242101608E+01  0.51100000000E-03 0.  1.
         12    1    3    3    0    0  0.13085641967E+02  0.91230453223E+01 -0.23338996899E+02  0.28269643752E+02  0.00000000000E+00 0. -1.
</event>
<event>
 7    1  0.2835316E-011  0.5052886E+02  0.7816164E-02  0.1300439E+00
        -11   -1    0    0    0    0  0.00000000000E+00  0.00000000000E+00  0.45593999997E+02  0.45594000000E+02  0.51100000000E-03 0.  1.
         11   -1    0    0    0    0 -0.00000000000E+00 -0.00000000000E+00 -0.45593999997E+02  0.45594000000E+02  0.51100000000E-03 0. -1.
    9900012    2    1    2    0    0 -0.37380470528E+02  0.11004965758E+02  0.11608463485E+02  0.50528864830E+02  0.30000015138E+02 0.  0.
        -12    1    1    2    0    0  0.37380470528E+02 -0.11004965758E+02 -0.11608463485E+02  0.40659135170E+02  0.00000000000E+00 0.  1.
         11    1    3    3    0    0 -0.19498430066E+02 -0.37405138268E+01  0.10810846099E+02  0.22606517033E+02  0.51100000000E-03 0. -1.
        -11    1    3    3    0    0 -0.17085002851E+02  0.48537735741E+01  0.22119630541E+01  0.17898302186E+02  0.51100000000E-03 0.  1.
        -12    1    3    3    0    0 -0.79703761152E+00  0.98917060107E+01 -0.14143456678E+01  0.10024045612E+02  0.00000000000E+00 0.  1.
</event>
<event>
 7    1  0.2835316E-011  0.5052886E+02  0.7816164E-02  0.1300439E+00
        -11   -1    0    0    0    0  0.00000000000E+00  0.00000000000E+00  0.45593999997E+02  0.45594000000E+02  0.51100000000E-03 0.  1.
         11   -1    0    0    0    0 -0.00000000000E+00 -0.00000000000E+00 -0.45593999997E+02  0.45594000000E+02  0.51100000000E-03 0. -1.
    9900012    2    1    2    0    0  0.45017345530E+01  0.31211345386E+02 -0.25666168056E+02  0.50528857394E+02  0.29999992535E+02 0.  0.
        -12    1    1    2    0    0 -0.45017345530E+01 -0.31211345386E+02  0.25666168056E+02  0.40659142606E+02  0.00000000000E+00 0.  1.
         11    1    3    3    0    0  0.24256253470E+01  0.38693838494E+01  0.64819894840E+00  0.46125862416E+01  0.51100000000E-03 0.  1.
        -11    1    3    3    0    0 -0.66434176743E+01  0.26535254329E+02 -0.13788347540E+02  0.30632878560E+02  0.51100000000E-03 0. -1.
         12    1    3    3    0    0  0.87195268802E+01  0.80670720704E+00 -0.12526019464E+02  0.15283392593E+02  0.00000000000E+00 0. -1.
</event>
<event>
 7    1  0.2835316E-011  0.5052886E+02  0.7816164E-02  0.1300439E+00
        -11   -1    0    0    0    0  0.00000000000E+00  0.00000000000E+00  0.45593999997E+02  0.45594000000E+02  0.51100000000E-03 0. -1.
         11   -1    0    0    0    0 -0.00000000000E+00 -0.00000000000E+00 -0.45593999997E+02  0.45594000000E+02  0.51100000000E-03 0.  1.
    9900012    2    1    2    0    0 -0.35665798634E+02  0.13414474276E+02  0.14183379876E+02  0.50528861089E+02  0.30000003765E+02 0.  0.
        -12    1    1    2    0    0  0.35665798634E+02 -0.13414474276E+02 -0.14183379876E+02  0.40659138911E+02  0.00000000000E+00 0.  1.
         11    1    3    3    0    0 -0.19366624331E+01 -0.36521044584E+00  0.66208794177E+01  0.69079725372E+01  0.51100000000E-03 0. -1.
        -11    1    3    3    0    0 -0.58542493445E+01  0.87675431421E+01 -0.60955035033E+01  0.12177734246E+02  0.51100000000E-03 0.  1.
         12    1    3    3    0    0 -0.27874886857E+02  0.50121415793E+01  0.13658003962E+02  0.31443154306E+02  0.00000000000E+00 0. -1.
</event>
<event>
 7    1  0.2835316E-011  0.5052886E+02  0.7816164E-02  0.1300439E+00
        -11   -1    0    0    0    0  0.00000000000E+00  0.00000000000E+00  0.45593999997E+02  0.45594000000E+02  0.51100000000E-03 0. -1.
         11   -1    0    0    0    0 -0.00000000000E+00 -0.00000000000E+00 -0.45593999997E+02  0.45594000000E+02  0.51100000000E-03 0.  1.
    9900012    2    1    2    0    0  0.35634605545E+02 -0.89680148964E+00  0.19558545021E+02  0.50528855289E+02  0.29999986136E+02 0.  0.
        -12    1    1    2    0    0 -0.35634605545E+02  0.89680148964E+00 -0.19558545021E+02  0.40659144711E+02  0.00000000000E+00 0.  1.
         11    1    3    3    0    0  0.66270763641E+01  0.79139744849E+01  0.37967349576E+01  0.10998378512E+02  0.51100000000E-03 0. -1.
        -11    1    3    3    0    0  0.64515540365E+01 -0.20552776477E+01 -0.47761339061E+01  0.82860226312E+01  0.51100000000E-03 0.  1.
        -12    1    3    3    0    0  0.22555975145E+02 -0.67554983269E+01  0.20537943970E+02  0.31244454146E+02  0.00000000000E+00 0.  1.
</event>
<event>
 7    1  0.2835316E-011  0.5052886E+02  0.7816164E-02  0.1300439E+00
        -11   -1    0    0    0    0  0.00000000000E+00  0.00000000000E+00  0.45593999997E+02  0.45594000000E+02  0.51100000000E-03 0.  1.
         11   -1    0    0    0    0 -0.00000000000E+00 -0.00000000000E+00 -0.45593999997E+02  0.45594000000E+02  0.51100000000E-03 0. -1.
    9900012    2    1    2    0    0  0.17127364224E+02 -0.20024361188E+02 -0.30965210026E+02  0.50528857385E+02  0.29999992506E+02 0.  0.
        -12    1    1    2    0    0 -0.17127364224E+02  0.20024361188E+02  0.30965210026E+02  0.40659142615E+02  0.00000000000E+00 0.  1.
         11    1    3    3    0    0  0.85817445815E+01 -0.15109326308E+02 -0.23214008957E+01  0.17530743964E+02  0.51100000000E-03 0. -1.
        -11    1    3    3    0    0 -0.16411609634E+01  0.11273268311E+01  0.11996226779E-01  0.19910849460E+01  0.51100000000E-03 0.  1.
         12    1    3    3    0    0  0.10186780606E+02 -0.60423617110E+01 -0.28655805357E+02  0.31007028475E+02  0.00000000000E+00 0. -1.
</event>
<event>
 7    1  0.2835316E-011  0.5052886E+02  0.7816164E-02  0.1300439E+00
        -11   -1    0    0    0    0  0.00000000000E+00  0.00000000000E+00  0.45593999997E+02  0.45594000000E+02  0.51100000000E-03 0. -1.
         11   -1    0    0    0    0 -0.00000000000E+00 -0.00000000000E+00 -0.45593999997E+02  0.45594000000E+02  0.51100000000E-03 0.  1.
    9900012    2    1    2    0    0  0.24979214204E+02 -0.69672358437E+01  0.31315523659E+02  0.50528861548E+02  0.30000005162E+02 0.  0.
        -12    1    1    2    0    0 -0.24979214204E+02  0.69672358437E+01 -0.31315523659E+02  0.40659138452E+02  0.00000000000E+00 0.  1.
         11    1    3    3    0    0 -0.46508641370E+01  0.21721256450E+01  0.24630729978E+00  0.51390013218E+01  0.51100000000E-03 0. -1.
        -11    1    3    3    0    0  0.31084230453E+01 -0.53362419714E+01  0.74101375905E+01  0.96461345407E+01  0.51100000000E-03 0.  1.
         12    1    3    3    0    0  0.26521655296E+02 -0.38031195173E+01  0.23659078769E+02  0.35743725686E+02  0.00000000000E+00 0. -1.
</event>
<event>
 7    1  0.2835316E-011  0.5052886E+02  0.7816164E-02  0.1300439E+00
        -11   -1    0    0    0    0  0.00000000000E+00  0.00000000000E+00  0.45593999997E+02  0.45594000000E+02  0.51100000000E-03 0.  1.
         11   -1    0    0    0    0 -0.00000000000E+00 -0.00000000000E+00 -0.45593999997E+02  0.45594000000E+02  0.51100000000E-03 0. -1.
    9900012    2    1    2    0    0  0.25511440718E+02  0.22721503069E+02  0.22046894739E+02  0.50528857401E+02  0.29999992557E+02 0.  0.
        -12    1    1    2    0    0 -0.25511440718E+02 -0.22721503069E+02 -0.22046894739E+02  0.40659142599E+02  0.00000000000E+00 0.  1.
         11    1    3    3    0    0  0.10433494554E+02  0.78131075622E+01  0.58458333258E+00  0.13047765952E+02  0.51100000000E-03 0. -1.
        -11    1    3    3    0    0  0.68546821035E+01  0.62769345499E+01 -0.34092365404E+01  0.98999731380E+01  0.51100000000E-03 0.  1.
        -12    1    3    3    0    0  0.82232640606E+01  0.86314609573E+01  0.24871547946E+02  0.27581118312E+02  0.00000000000E+00 0.  1.
</event>
<event>
 7    1  0.2835316E-011  0.5052886E+02  0.7816164E-02  0.1300439E+00
        -11   -1    0    0    0    0  0.00000000000E+00  0.00000000000E+00  0.45593999997E+02  0.45594000000E+02  0.51100000000E-03 0.  1.
         11   -1    0    0    0    0 -0.00000000000E+00 -0.00000000000E+00 -0.45593999997E+02  0.45594000000E+02  0.51100000000E-03 0. -1.
    9900012    2    1    2    0    0  0.46575431176E+01 -0.49611582099E+01 -0.40085656276E+02  0.50528860342E+02  0.30000001496E+02 0.  0.
        -12    1    1    2    0    0 -0.46575431176E+01  0.49611582099E+01  0.40085656276E+02  0.40659139658E+02  0.00000000000E+00 0.  1.
         11    1    3    3    0    0  0.29939429149E+01 -0.25721262572E+01 -0.21988201811E+02  0.22339663086E+02  0.51100000000E-03 0. -1.
        -11    1    3    3    0    0 -0.71282727386E+01 -0.77195013274E+01 -0.12994006741E+02  0.16710690723E+02  0.51100000000E-03 0.  1.
        -12    1    3    3    0    0  0.87918729414E+01  0.53304693748E+01 -0.51034477235E+01  0.11478506534E+02  0.00000000000E+00 0.  1.
</event>
<event>
 7    1  0.2835316E-011  0.5052888E+02  0.7816164E-02  0.1300439E+00
        -11   -1    0    0    0    0  0.00000000000E+00  0.00000000000E+00  0.45593999997E+02  0.45594000000E+02  0.51100000000E-03 0.  1.
         11   -1    0    0    0    0 -0.00000000000E+00 -0.00000000000E+00 -0.45593999997E+02  0.45594000000E+02  0.51100000000E-03 0. -1.
    9900012    2    1    2    0    0  0.21805395190E+02  0.11992919980E+02 -0.32153674261E+02  0.50528878544E+02  0.30000056824E+02 0.  0.
        -12    1    1    2    0    0 -0.21805395190E+02 -0.11992919980E+02  0.32153674261E+02  0.40659121456E+02  0.00000000000E+00 0.  1.
         11    1    3    3    0    0  0.93590242795E+01  0.12521656362E+02 -0.13692368876E+02  0.20781342093E+02  0.51100000000E-03 0. -1.
        -11    1    3    3    0    0  0.33250988593E+01  0.37194674217E+01 -0.19026394528E+02  0.19669631652E+02  0.51100000000E-03 0.  1.
        -12    1    3    3    0    0  0.91212720517E+01 -0.42482038037E+01  0.56508914299E+00  0.10077904799E+02  0.00000000000E+00 0.  1.
</event>
<event>
 7    1  0.2835316E-011  0.5052883E+02  0.7816164E-02  0.1300439E+00
        -11   -1    0    0    0    0  0.00000000000E+00  0.00000000000E+00  0.45593999997E+02  0.45594000000E+02  0.51100000000E-03 0. -1.
         11   -1    0    0    0    0 -0.00000000000E+00 -0.00000000000E+00 -0.45593999997E+02  0.45594000000E+02  0.51100000000E-03 0.  1.
    9900012    2    1    2    0    0  0.30680715428E+02  0.26496378072E+02 -0.31311069625E+01  0.50528829067E+02  0.29999906432E+02 0.  0.
        -12    1    1    2    0    0 -0.30680715428E+02 -0.26496378072E+02  0.31311069625E+01  0.40659170933E+02  0.00000000000E+00 0.  1.
         11    1    3    3    0    0  0.18520308040E+02  0.99737703425E+01  0.52061406228E+01  0.21669836298E+02  0.51100000000E-03 0.  1.
        -11    1    3    3    0    0  0.10058341542E+02 -0.86856325059E+00 -0.35063806419E+01  0.10687344954E+02  0.51100000000E-03 0. -1.
        -12    1    3    3    0    0  0.21020658460E+01  0.17391170980E+02 -0.48308669433E+01  0.18171647815E+02  0.00000000000E+00 0.  1.
</event>
<event>
 7    1  0.2835316E-011  0.5052887E+02  0.7816164E-02  0.1300439E+00
        -11   -1    0    0    0    0  0.00000000000E+00  0.00000000000E+00  0.45593999997E+02  0.45594000000E+02  0.51100000000E-03 0. -1.
         11   -1    0    0    0    0 -0.00000000000E+00 -0.00000000000E+00 -0.45593999997E+02  0.45594000000E+02  0.51100000000E-03 0.  1.
    9900012    2    1    2    0    0 -0.10972589972E+02  0.21949575296E+02  0.32418877567E+02  0.50528865613E+02  0.30000017518E+02 0.  0.
        -12    1    1    2    0    0  0.10972589972E+02 -0.21949575296E+02 -0.32418877567E+02  0.40659134387E+02  0.00000000000E+00 0.  1.
         11    1    3    3    0    0 -0.86724531608E+01  0.10479196155E+02  0.12698793417E+02  0.18608717054E+02  0.51100000000E-03 0. -1.
        -11    1    3    3    0    0 -0.36564348751E+01  0.21502916739E+01  0.21855088648E+02  0.22262932654E+02  0.51100000000E-03 0.  1.
        -12    1    3    3    0    0  0.13562980642E+01  0.93200874671E+01 -0.21350044977E+01  0.96572159051E+01  0.00000000000E+00 0.  1.
</event>
<event>
 7    1  0.2835316E-011  0.5052886E+02  0.7816164E-02  0.1300439E+00
        -11   -1    0    0    0    0  0.00000000000E+00  0.00000000000E+00  0.45593999997E+02  0.45594000000E+02  0.51100000000E-03 0.  1.
         11   -1    0    0    0    0 -0.00000000000E+00 -0.00000000000E+00 -0.45593999997E+02  0.45594000000E+02  0.51100000000E-03 0. -1.
    9900012    2    1    2    0    0  0.20390275064E+02  0.35009101177E+02  0.34300905974E+01  0.50528855839E+02  0.29999987807E+02 0.  0.
        -12    1    1    2    0    0 -0.20390275064E+02 -0.35009101177E+02 -0.34300905974E+01  0.40659144161E+02  0.00000000000E+00 0.  1.
         11    1    3    3    0    0  0.92136603477E+01  0.14879162084E+02  0.12481928850E+02  0.21496035667E+02  0.51100000000E-03 0. -1.
        -11    1    3    3    0    0  0.53602408209E+01 -0.27658225657E+00  0.11489695684E+01  0.54889717373E+01  0.51100000000E-03 0.  1.
        -12    1    3    3    0    0  0.58163738952E+01  0.20406521350E+02 -0.10200807821E+02  0.23543848434E+02  0.00000000000E+00 0.  1.
</event>
<event>
 7    1  0.2835316E-011  0.5052886E+02  0.7816164E-02  0.1300439E+00
        -11   -1    0    0    0    0  0.00000000000E+00  0.00000000000E+00  0.45593999997E+02  0.45594000000E+02  0.51100000000E-03 0.  1.
         11   -1    0    0    0    0 -0.00000000000E+00 -0.00000000000E+00 -0.45593999997E+02  0.45594000000E+02  0.51100000000E-03 0. -1.
    9900012    2    1    2    0    0 -0.91233849668E+01  0.24854520515E+02 -0.30857453005E+02  0.50528858971E+02  0.29999997329E+02 0.  0.
        -12    1    1    2    0    0  0.91233849668E+01 -0.24854520515E+02  0.30857453005E+02  0.40659141029E+02  0.00000000000E+00 0.  1.
         11    1    3    3    0    0 -0.45982995435E+01  0.17028672218E+02 -0.29422230389E+02  0.34304339048E+02  0.51100000000E-03 0. -1.
        -11    1    3    3    0    0  0.31434771259E+01  0.35540353923E+00 -0.41130151455E+01  0.51888971820E+01  0.51100000000E-03 0.  1.
         12    1    3    3    0    0 -0.76685625491E+01  0.74704447576E+01  0.26777925303E+01  0.11035622741E+02  0.00000000000E+00 0. -1.
</event>
<event>
 7    1  0.2835316E-011  0.5052887E+02  0.7816164E-02  0.1300439E+00
        -11   -1    0    0    0    0  0.00000000000E+00  0.00000000000E+00  0.45593999997E+02  0.45594000000E+02  0.51100000000E-03 0.  1.
         11   -1    0    0    0    0 -0.00000000000E+00 -0.00000000000E+00 -0.45593999997E+02  0.45594000000E+02  0.51100000000E-03 0. -1.
    9900012    2    1    2    0    0  0.80863722411E+00 -0.55087962500E+01 -0.40276099939E+02  0.50528868719E+02  0.30000026957E+02 0.  0.
        -12    1    1    2    0    0 -0.80863722411E+00  0.55087962500E+01  0.40276099939E+02  0.40659131281E+02  0.00000000000E+00 0.  1.
         11    1    3    3    0    0 -0.44651070996E+01  0.99430059554E+00 -0.69562050140E-01  0.45750031940E+01  0.51100000000E-03 0.  1.
        -11    1    3    3    0    0  0.36824027809E+01  0.73407886852E+01 -0.12801211330E+02  0.15209151211E+02  0.51100000000E-03 0. -1.
        -12    1    3    3    0    0  0.15913415428E+01 -0.13843885531E+02 -0.27405326558E+02  0.30744714314E+02  0.00000000000E+00 0.  1.
</event>
<event>
 7    1  0.2835316E-011  0.5052886E+02  0.7816164E-02  0.1300439E+00
        -11   -1    0    0    0    0  0.00000000000E+00  0.00000000000E+00  0.45593999997E+02  0.45594000000E+02  0.51100000000E-03 0. -1.
         11   -1    0    0    0    0 -0.00000000000E+00 -0.00000000000E+00 -0.45593999997E+02  0.45594000000E+02  0.51100000000E-03 0.  1.
    9900012    2    1    2    0    0 -0.32857195157E+01  0.94901245576E+01  0.39399328810E+02  0.50528861697E+02  0.30000005616E+02 0.  0.
        -12    1    1    2    0    0  0.32857195157E+01 -0.94901245576E+01 -0.39399328810E+02  0.40659138303E+02  0.00000000000E+00 0.  1.
         11    1    3    3    0    0  0.93499659083E+01 -0.23888723977E+01  0.61335193992E+01  0.11434536908E+02  0.51100000000E-03 0. -1.
        -11    1    3    3    0    0 -0.45403372407E+01  0.82139934748E+01  0.80713861033E+01  0.12378676220E+02  0.51100000000E-03 0.  1.
        -12    1    3    3    0    0 -0.80953481833E+01  0.36650034805E+01  0.25194423307E+02  0.26715648570E+02  0.00000000000E+00 0.  1.
</event>
<event>
 7    1  0.2835316E-011  0.5052886E+02  0.7816164E-02  0.1300439E+00
        -11   -1    0    0    0    0  0.00000000000E+00  0.00000000000E+00  0.45593999997E+02  0.45594000000E+02  0.51100000000E-03 0.  1.
         11   -1    0    0    0    0 -0.00000000000E+00 -0.00000000000E+00 -0.45593999997E+02  0.45594000000E+02  0.51100000000E-03 0. -1.
    9900012    2    1    2    0    0 -0.19855699898E+02  0.35444440252E+02  0.16150103650E+01  0.50528862998E+02  0.30000009570E+02 0.  0.
        -12    1    1    2    0    0  0.19855699898E+02 -0.35444440252E+02 -0.16150103650E+01  0.40659137002E+02  0.00000000000E+00 0.  1.
         11    1    3    3    0    0 -0.59600906817E+01  0.10855558773E+01  0.44383519553E+01  0.75099987242E+01  0.51100000000E-03 0. -1.
        -11    1    3    3    0    0 -0.15143531534E+02  0.25071887194E+02  0.62783472686E+01  0.29955695944E+02  0.51100000000E-03 0.  1.
         12    1    3    3    0    0  0.12479223174E+01  0.92869971807E+01 -0.91016888589E+01  0.13063168330E+02  0.00000000000E+00 0. -1.
</event>
<event>
 7    1  0.2835316E-011  0.5052886E+02  0.7816164E-02  0.1300439E+00
        -11   -1    0    0    0    0  0.00000000000E+00  0.00000000000E+00  0.45593999997E+02  0.45594000000E+02  0.51100000000E-03 0.  1.
         11   -1    0    0    0    0 -0.00000000000E+00 -0.00000000000E+00 -0.45593999997E+02  0.45594000000E+02  0.51100000000E-03 0. -1.
    9900012    2    1    2    0    0  0.27995505222E+02  0.29208947710E+02 -0.40317396421E+01  0.50528857565E+02  0.29999993056E+02 0.  0.
        -12    1    1    2    0    0 -0.27995505222E+02 -0.29208947710E+02  0.40317396421E+01  0.40659142435E+02  0.00000000000E+00 0.  1.
         11    1    3    3    0    0 -0.10837497803E+01  0.63203364370E+01  0.38533175850E+01  0.74812581118E+01  0.51100000000E-03 0.  1.
        -11    1    3    3    0    0  0.24919728096E+02  0.20894144690E+02  0.15375100736E+01  0.32556444342E+02  0.51100000000E-03 0. -1.
         12    1    3    3    0    0  0.41595269060E+01  0.19944665830E+01 -0.94225673008E+01  0.10491155111E+02  0.00000000000E+00 0. -1.
</event>
<event>
 7    1  0.2835316E-011  0.5052886E+02  0.7816164E-02  0.1300439E+00
        -11   -1    0    0    0    0  0.00000000000E+00  0.00000000000E+00  0.45593999997E+02  0.45594000000E+02  0.51100000000E-03 0.  1.
         11   -1    0    0    0    0 -0.00000000000E+00 -0.00000000000E+00 -0.45593999997E+02  0.45594000000E+02  0.51100000000E-03 0. -1.
    9900012    2    1    2    0    0  0.13238438570E+02  0.32860714457E+01 -0.38302881614E+02  0.50528864971E+02  0.30000015567E+02 0.  0.
        -12    1    1    2    0    0 -0.13238438570E+02 -0.32860714457E+01  0.38302881614E+02  0.40659135029E+02  0.00000000000E+00 0.  1.
         11    1    3    3    0    0 -0.60654673296E+01 -0.53853143516E+01 -0.17383244002E+02  0.19182509661E+02  0.51100000000E-03 0. -1.
        -11    1    3    3    0    0  0.58517439732E+01  0.18169777893E+01 -0.12829505245E+02  0.14217613052E+02  0.51100000000E-03 0.  1.
        -12    1    3    3    0    0  0.13452161926E+02  0.68544080079E+01 -0.80901323676E+01  0.17128742258E+02  0.00000000000E+00 0.  1.
</event>
<event>
 7    1  0.2835316E-011  0.5052886E+02  0.7816164E-02  0.1300439E+00
        -11   -1    0    0    0    0  0.00000000000E+00  0.00000000000E+00  0.45593999997E+02  0.45594000000E+02  0.51100000000E-03 0.  1.
         11   -1    0    0    0    0 -0.00000000000E+00 -0.00000000000E+00 -0.45593999997E+02  0.45594000000E+02  0.51100000000E-03 0. -1.
    9900012    2    1    2    0    0 -0.15721961617E+02  0.12472250356E+02 -0.35361401783E+02  0.50528857829E+02  0.29999993858E+02 0.  0.
        -12    1    1    2    0    0  0.15721961617E+02 -0.12472250356E+02  0.35361401783E+02  0.40659142171E+02  0.00000000000E+00 0.  1.
         11    1    3    3    0    0 -0.14198670060E+02  0.58999239186E+01 -0.26231135554E+02  0.30405325297E+02  0.51100000000E-03 0. -1.
        -11    1    3    3    0    0 -0.63580488298E+01  0.85617303719E+01 -0.10233720129E+02  0.14780292278E+02  0.51100000000E-03 0.  1.
        -12    1    3    3    0    0  0.48347572731E+01 -0.19894039345E+01  0.11034539000E+01  0.53432402542E+01  0.00000000000E+00 0.  1.
</event>
<event>
 7    1  0.2835316E-011  0.5052887E+02  0.7816164E-02  0.1300439E+00
        -11   -1    0    0    0    0  0.00000000000E+00  0.00000000000E+00  0.45593999997E+02  0.45594000000E+02  0.51100000000E-03 0.  1.
         11   -1    0    0    0    0 -0.00000000000E+00 -0.00000000000E+00 -0.45593999997E+02  0.45594000000E+02  0.51100000000E-03 0. -1.
    9900012    2    1    2    0    0  0.28570979039E+02  0.15554120181E+02 -0.24391252483E+02  0.50528871929E+02  0.30000036715E+02 0.  0.
        -12    1    1    2    0    0 -0.28570979039E+02 -0.15554120181E+02  0.24391252483E+02  0.40659128071E+02  0.00000000000E+00 0.  1.
         11    1    3    3    0    0  0.86763488220E+01  0.10124995090E+02 -0.18886046279E+02  0.23118765079E+02  0.51100000000E-03 0. -1.
        -11    1    3    3    0    0 -0.31929262260E+01  0.71390075333E+00 -0.98015651743E+00  0.34154266541E+01  0.51100000000E-03 0.  1.
        -12    1    3    3    0    0  0.23087556443E+02  0.47152243375E+01 -0.45250496867E+01  0.23994680196E+02  0.00000000000E+00 0.  1.
</event>
<event>
 7    1  0.2835316E-011  0.5052884E+02  0.7816164E-02  0.1300439E+00
        -11   -1    0    0    0    0  0.00000000000E+00  0.00000000000E+00  0.45593999997E+02  0.45594000000E+02  0.51100000000E-03 0.  1.
         11   -1    0    0    0    0 -0.00000000000E+00 -0.00000000000E+00 -0.45593999997E+02  0.45594000000E+02  0.51100000000E-03 0. -1.
    9900012    2    1    2    0    0  0.31621879389E+02  0.86429594056E+01 -0.24052516130E+02  0.50528837003E+02  0.29999930555E+02 0.  0.
        -12    1    1    2    0    0 -0.31621879389E+02 -0.86429594056E+01  0.24052516130E+02  0.40659162997E+02  0.00000000000E+00 0.  1.
         11    1    3    3    0    0  0.35395190466E+01  0.27109440624E+01 -0.30107944022E+01  0.53798044559E+01  0.51100000000E-03 0. -1.
        -11    1    3    3    0    0  0.11451869029E+02 -0.10944099221E+02 -0.11645368384E+02  0.19660448038E+02  0.51100000000E-03 0.  1.
        -12    1    3    3    0    0  0.16630491314E+02  0.16876114564E+02 -0.93963533443E+01  0.25488584509E+02  0.00000000000E+00 0.  1.
</event>
<event>
 7    1  0.2835316E-011  0.5052886E+02  0.7816164E-02  0.1300439E+00
        -11   -1    0    0    0    0  0.00000000000E+00  0.00000000000E+00  0.45593999997E+02  0.45594000000E+02  0.51100000000E-03 0. -1.
         11   -1    0    0    0    0 -0.00000000000E+00 -0.00000000000E+00 -0.45593999997E+02  0.45594000000E+02  0.51100000000E-03 0.  1.
    9900012    2    1    2    0    0 -0.38131301770E+02  0.13202856139E+02  0.49854054727E+01  0.50528857700E+02  0.29999993464E+02 0.  0.
        -12    1    1    2    0    0  0.38131301770E+02 -0.13202856139E+02 -0.49854054727E+01  0.40659142300E+02  0.00000000000E+00 0.  1.
         11    1    3    3    0    0 -0.26161114046E+02  0.86388201192E+01  0.57315857658E+01  0.28140436685E+02  0.51100000000E-03 0. -1.
        -11    1    3    3    0    0 -0.45632649035E+01 -0.56931032768E+01  0.46303599248E+01  0.86414723742E+01  0.51100000000E-03 0.  1.
        -12    1    3    3    0    0 -0.74069228203E+01  0.10257139297E+02 -0.53765402178E+01  0.13746948641E+02  0.00000000000E+00 0.  1.
</event>
<event>
 7    1  0.2835316E-011  0.5052886E+02  0.7816164E-02  0.1300439E+00
        -11   -1    0    0    0    0  0.00000000000E+00  0.00000000000E+00  0.45593999997E+02  0.45594000000E+02  0.51100000000E-03 0.  1.
         11   -1    0    0    0    0 -0.00000000000E+00 -0.00000000000E+00 -0.45593999997E+02  0.45594000000E+02  0.51100000000E-03 0. -1.
    9900012    2    1    2    0    0 -0.28794833853E+02  0.28276011912E+02  0.49487598880E+01  0.50528861659E+02  0.30000005498E+02 0.  0.
        -12    1    1    2    0    0  0.28794833853E+02 -0.28276011912E+02 -0.49487598880E+01  0.40659138341E+02  0.00000000000E+00 0.  1.
         11    1    3    3    0    0 -0.18955833732E+02  0.19350066908E+01 -0.22583593907E+01  0.19187706241E+02  0.51100000000E-03 0. -1.
        -11    1    3    3    0    0 -0.88515590032E+00 -0.27835849014E+00 -0.16497522031E+01  0.18927934408E+01  0.51100000000E-03 0.  1.
         12    1    3    3    0    0 -0.89538442201E+01  0.26619363711E+02  0.88568714817E+01  0.29448361977E+02  0.00000000000E+00 0. -1.
</event>
<event>
 7    1  0.2835316E-011  0.5052886E+02  0.7816164E-02  0.1300439E+00
        -11   -1    0    0    0    0  0.00000000000E+00  0.00000000000E+00  0.45593999997E+02  0.45594000000E+02  0.51100000000E-03 0.  1.
         11   -1    0    0    0    0 -0.00000000000E+00 -0.00000000000E+00 -0.45593999997E+02  0.45594000000E+02  0.51100000000E-03 0. -1.
    9900012    2    1    2    0    0  0.73503767099E+01 -0.15657588236E+02 -0.36796437258E+02  0.50528857092E+02  0.29999991616E+02 0.  0.
        -12    1    1    2    0    0 -0.73503767099E+01  0.15657588236E+02  0.36796437258E+02  0.40659142908E+02  0.00000000000E+00 0.  1.
         11    1    3    3    0    0 -0.12198357212E+00 -0.10828501250E+01 -0.70164578038E+01  0.71005721431E+01  0.51100000000E-03 0. -1.
        -11    1    3    3    0    0 -0.76327607619E+01  0.28805514720E+01 -0.10852636390E+02  0.13577051613E+02  0.51100000000E-03 0.  1.
        -12    1    3    3    0    0  0.15105121044E+02 -0.17455289583E+02 -0.18927343064E+02  0.29851233335E+02  0.00000000000E+00 0.  1.
</event>
<event>
 7    1  0.2835316E-011  0.5052886E+02  0.7816164E-02  0.1300439E+00
        -11   -1    0    0    0    0  0.00000000000E+00  0.00000000000E+00  0.45593999997E+02  0.45594000000E+02  0.51100000000E-03 0.  1.
         11   -1    0    0    0    0 -0.00000000000E+00 -0.00000000000E+00 -0.45593999997E+02  0.45594000000E+02  0.51100000000E-03 0. -1.
    9900012    2    1    2    0    0  0.65693382551E+01  0.19310055559E+02 -0.35172874590E+02  0.50528861326E+02  0.30000004485E+02 0.  0.
        -12    1    1    2    0    0 -0.65693382551E+01 -0.19310055559E+02  0.35172874590E+02  0.40659138674E+02  0.00000000000E+00 0.  1.
         11    1    3    3    0    0 -0.15773022949E+01  0.65542179885E+01 -0.37728767199E+01  0.77252996689E+01  0.51100000000E-03 0. -1.
        -11    1    3    3    0    0 -0.22135325483E+01  0.88190170758E+01 -0.30336356779E+02  0.31669691054E+02  0.51100000000E-03 0.  1.
        -12    1    3    3    0    0  0.10360173098E+02  0.39368204945E+01 -0.10636410910E+01  0.11133870603E+02  0.00000000000E+00 0.  1.
</event>
<event>
 7    1  0.2835316E-011  0.5052886E+02  0.7816164E-02  0.1300439E+00
        -11   -1    0    0    0    0  0.00000000000E+00  0.00000000000E+00  0.45593999997E+02  0.45594000000E+02  0.51100000000E-03 0. -1.
         11   -1    0    0    0    0 -0.00000000000E+00 -0.00000000000E+00 -0.45593999997E+02  0.45594000000E+02  0.51100000000E-03 0.  1.
    9900012    2    1    2    0    0  0.22745023835E+01  0.13590680584E+02  0.38252922392E+02  0.50528855501E+02  0.29999986782E+02 0.  0.
        -12    1    1    2    0    0 -0.22745023835E+01 -0.13590680584E+02 -0.38252922392E+02  0.40659144499E+02  0.00000000000E+00 0.  1.
         11    1    3    3    0    0 -0.13191166050E+01  0.89940555435E+01  0.87753857674E+01  0.12634892139E+02  0.51100000000E-03 0. -1.
        -11    1    3    3    0    0  0.41210159397E+01  0.26240062287E+01 -0.27469749333E+01  0.56048240480E+01  0.51100000000E-03 0.  1.
         12    1    3    3    0    0 -0.52739695131E+00  0.19726188124E+01  0.32224511558E+02  0.32289139314E+02  0.00000000000E+00 0. -1.
</event>
<event>
 7    1  0.2835316E-011  0.5052885E+02  0.7816164E-02  0.1300439E+00
        -11   -1    0    0    0    0  0.00000000000E+00  0.00000000000E+00  0.45593999997E+02  0.45594000000E+02  0.51100000000E-03 0.  1.
         11   -1    0    0    0    0 -0.00000000000E+00 -0.00000000000E+00 -0.45593999997E+02  0.45594000000E+02  0.51100000000E-03 0. -1.
    9900012    2    1    2    0    0 -0.16535477035E+02 -0.36698483548E+02 -0.57416059564E+01  0.50528846855E+02  0.29999960500E+02 0.  0.
        -12    1    1    2    0    0  0.16535477035E+02  0.36698483548E+02  0.57416059564E+01  0.40659153145E+02  0.00000000000E+00 0.  1.
         11    1    3    3    0    0 -0.10040299452E+02 -0.24467219592E+02  0.22594061328E+01  0.26543499468E+02  0.51100000000E-03 0. -1.
        -11    1    3    3    0    0 -0.66835425838E+00 -0.94433949848E+01  0.40620826994E+01  0.10301695121E+02  0.51100000000E-03 0.  1.
         12    1    3    3    0    0 -0.58268233246E+01 -0.27878689712E+01 -0.12063094789E+02  0.13683652266E+02  0.00000000000E+00 0. -1.
</event>
<event>
 7    1  0.2835316E-011  0.5052883E+02  0.7816164E-02  0.1300439E+00
        -11   -1    0    0    0    0  0.00000000000E+00  0.00000000000E+00  0.45593999997E+02  0.45594000000E+02  0.51100000000E-03 0.  1.
         11   -1    0    0    0    0 -0.00000000000E+00 -0.00000000000E+00 -0.45593999997E+02  0.45594000000E+02  0.51100000000E-03 0. -1.
    9900012    2    1    2    0    0 -0.29877782149E+02  0.13864489553E+02 -0.23838246498E+02  0.50528832119E+02  0.29999915709E+02 0.  0.
        -12    1    1    2    0    0  0.29877782149E+02 -0.13864489553E+02  0.23838246498E+02  0.40659167881E+02  0.00000000000E+00 0.  1.
         11    1    3    3    0    0 -0.17418877713E+02  0.14328139554E+02 -0.34882053606E+01  0.22822805716E+02  0.51100000000E-03 0. -1.
        -11    1    3    3    0    0  0.19356766023E+01  0.33855818901E+01 -0.40870309207E+01  0.56491442406E+01  0.51100000000E-03 0.  1.
         12    1    3    3    0    0 -0.14394581038E+02 -0.38492318911E+01 -0.16263010217E+02  0.22056882162E+02  0.00000000000E+00 0. -1.
</event>
<event>
 7    1  0.2835316E-011  0.5052886E+02  0.7816164E-02  0.1300439E+00
        -11   -1    0    0    0    0  0.00000000000E+00  0.00000000000E+00  0.45593999997E+02  0.45594000000E+02  0.51100000000E-03 0.  1.
         11   -1    0    0    0    0 -0.00000000000E+00 -0.00000000000E+00 -0.45593999997E+02  0.45594000000E+02  0.51100000000E-03 0. -1.
    9900012    2    1    2    0    0 -0.21187207994E+02 -0.32343042133E+02 -0.12577592741E+02  0.50528855934E+02  0.29999988097E+02 0.  0.
        -12    1    1    2    0    0  0.21187207994E+02  0.32343042133E+02  0.12577592741E+02  0.40659144066E+02  0.00000000000E+00 0.  1.
         11    1    3    3    0    0 -0.74474347341E+01 -0.15339072111E+02  0.60305484460E+01  0.18086429503E+02  0.51100000000E-03 0. -1.
        -11    1    3    3    0    0  0.14606684499E+01 -0.94968979463E+01 -0.62353383835E+01  0.11454434423E+02  0.51100000000E-03 0.  1.
        -12    1    3    3    0    0 -0.15200441710E+02 -0.75070720760E+01 -0.12372802803E+02  0.20987992009E+02  0.00000000000E+00 0.  1.
</event>
<event>
 7    1  0.2835316E-011  0.5052885E+02  0.7816164E-02  0.1300439E+00
        -11   -1    0    0    0    0  0.00000000000E+00  0.00000000000E+00  0.45593999997E+02  0.45594000000E+02  0.51100000000E-03 0.  1.
         11   -1    0    0    0    0 -0.00000000000E+00 -0.00000000000E+00 -0.45593999997E+02  0.45594000000E+02  0.51100000000E-03 0. -1.
    9900012    2    1    2    0    0  0.38968101290E+02  0.80553828133E+01  0.83525301283E+01  0.50528845189E+02  0.29999955437E+02 0.  0.
        -12    1    1    2    0    0 -0.38968101290E+02 -0.80553828133E+01 -0.83525301283E+01  0.40659154811E+02  0.00000000000E+00 0.  1.
         11    1    3    3    0    0  0.13340481247E+02  0.12505459757E+01  0.85672538799E+01  0.15903777678E+02  0.51100000000E-03 0. -1.
        -11    1    3    3    0    0  0.80319636973E+01  0.13376958624E+02  0.19218455879E+01  0.15720971776E+02  0.51100000000E-03 0.  1.
        -12    1    3    3    0    0  0.17595656345E+02 -0.65721217864E+01 -0.21365693395E+01  0.18904095735E+02  0.00000000000E+00 0.  1.
</event>
<event>
 7    1  0.2835316E-011  0.5052882E+02  0.7816164E-02  0.1300439E+00
        -11   -1    0    0    0    0  0.00000000000E+00  0.00000000000E+00  0.45593999997E+02  0.45594000000E+02  0.51100000000E-03 0.  1.
         11   -1    0    0    0    0 -0.00000000000E+00 -0.00000000000E+00 -0.45593999997E+02  0.45594000000E+02  0.51100000000E-03 0. -1.
    9900012    2    1    2    0    0  0.13330008072E+02  0.34598571091E+02  0.16685892234E+02  0.50528816087E+02  0.29999866979E+02 0.  0.
        -12    1    1    2    0    0 -0.13330008072E+02 -0.34598571091E+02 -0.16685892234E+02  0.40659183913E+02  0.00000000000E+00 0.  1.
         11    1    3    3    0    0  0.13089789459E+02  0.12290955694E+02  0.16835173153E+01  0.18034533838E+02  0.51100000000E-03 0. -1.
        -11    1    3    3    0    0 -0.34928422395E+01  0.10937142411E+02 -0.20485291110E+01  0.11662654192E+02  0.51100000000E-03 0.  1.
        -12    1    3    3    0    0  0.37330608532E+01  0.11370472987E+02  0.17050904030E+02  0.20831628058E+02  0.00000000000E+00 0.  1.
</event>
<event>
 7    1  0.2835316E-011  0.5052886E+02  0.7816164E-02  0.1300439E+00
        -11   -1    0    0    0    0  0.00000000000E+00  0.00000000000E+00  0.45593999997E+02  0.45594000000E+02  0.51100000000E-03 0.  1.
         11   -1    0    0    0    0 -0.00000000000E+00 -0.00000000000E+00 -0.45593999997E+02  0.45594000000E+02  0.51100000000E-03 0. -1.
    9900012    2    1    2    0    0 -0.62383187958E+01  0.11067236211E+02 -0.38623377712E+02  0.50528860257E+02  0.30000001236E+02 0.  0.
        -12    1    1    2    0    0  0.62383187958E+01 -0.11067236211E+02  0.38623377712E+02  0.40659139743E+02  0.00000000000E+00 0.  1.
         11    1    3    3    0    0  0.31140514319E+01  0.48286194522E+01 -0.23341577175E-01  0.57457312176E+01  0.51100000000E-03 0. -1.
        -11    1    3    3    0    0  0.61925654699E+00  0.38905158225E+01  0.84534782671E+00  0.40291692997E+01  0.51100000000E-03 0.  1.
         12    1    3    3    0    0 -0.99716267747E+01  0.23481009363E+01 -0.39445383962E+02  0.40753959739E+02  0.00000000000E+00 0. -1.
</event>
<event>
 7    1  0.2835316E-011  0.5052885E+02  0.7816164E-02  0.1300439E+00
        -11   -1    0    0    0    0  0.00000000000E+00  0.00000000000E+00  0.45593999997E+02  0.45594000000E+02  0.51100000000E-03 0.  1.
         11   -1    0    0    0    0 -0.00000000000E+00 -0.00000000000E+00 -0.45593999997E+02  0.45594000000E+02  0.51100000000E-03 0. -1.
    9900012    2    1    2    0    0  0.34476565411E+02  0.10172450250E+02 -0.19001424498E+02  0.50528850482E+02  0.29999971524E+02 0.  0.
        -12    1    1    2    0    0 -0.34476565411E+02 -0.10172450250E+02  0.19001424498E+02  0.40659149518E+02  0.00000000000E+00 0.  1.
         11    1    3    3    0    0 -0.96689917467E+00  0.32441853855E+01  0.20084185595E+01  0.39361628778E+01  0.51100000000E-03 0. -1.
        -11    1    3    3    0    0  0.10121886524E+02 -0.72475653990E+01 -0.47214931853E+01  0.13314364017E+02  0.51100000000E-03 0.  1.
         12    1    3    3    0    0  0.25321578062E+02  0.14175830263E+02 -0.16288349873E+02  0.33278323587E+02  0.00000000000E+00 0. -1.
</event>
<event>
 7    1  0.2835316E-011  0.5052886E+02  0.7816164E-02  0.1300439E+00
        -11   -1    0    0    0    0  0.00000000000E+00  0.00000000000E+00  0.45593999997E+02  0.45594000000E+02  0.51100000000E-03 0.  1.
         11   -1    0    0    0    0 -0.00000000000E+00 -0.00000000000E+00 -0.45593999997E+02  0.45594000000E+02  0.51100000000E-03 0. -1.
    9900012    2    1    2    0    0 -0.16691097560E+02 -0.33437675281E+02 -0.16015460385E+02  0.50528857888E+02  0.29999994038E+02 0.  0.
        -12    1    1    2    0    0  0.16691097560E+02  0.33437675281E+02  0.16015460385E+02  0.40659142112E+02  0.00000000000E+00 0.  1.
         11    1    3    3    0    0 -0.24046343571E+01 -0.47564310052E+01  0.54826384806E+01  0.76462557679E+01  0.51100000000E-03 0. -1.
        -11    1    3    3    0    0 -0.15522559254E+02 -0.11875785430E+02 -0.15675802825E+02  0.25054239558E+02  0.51100000000E-03 0.  1.
         12    1    3    3    0    0  0.12360960516E+01 -0.16805458846E+02 -0.58222960402E+01  0.17828362562E+02  0.00000000000E+00 0. -1.
</event>
<event>
 7    1  0.2835316E-011  0.5052886E+02  0.7816164E-02  0.1300439E+00
        -11   -1    0    0    0    0  0.00000000000E+00  0.00000000000E+00  0.45593999997E+02  0.45594000000E+02  0.51100000000E-03 0. -1.
         11   -1    0    0    0    0 -0.00000000000E+00 -0.00000000000E+00 -0.45593999997E+02  0.45594000000E+02  0.51100000000E-03 0.  1.
    9900012    2    1    2    0    0 -0.12274605151E+02 -0.38317754863E+02  0.58522740844E+01  0.50528863496E+02  0.30000011081E+02 0.  0.
        -12    1    1    2    0    0  0.12274605151E+02  0.38317754863E+02 -0.58522740844E+01  0.40659136504E+02  0.00000000000E+00 0.  1.
         11    1    3    3    0    0 -0.10168806901E+02 -0.15967809739E+02  0.15124632536E+01  0.18991132852E+02  0.51100000000E-03 0. -1.
        -11    1    3    3    0    0 -0.61931416792E+00  0.28519884533E+01  0.55419048159E+01  0.62633934433E+01  0.51100000000E-03 0.  1.
         12    1    3    3    0    0 -0.14864840816E+01 -0.25201933577E+02 -0.12020939851E+01  0.25274337200E+02  0.00000000000E+00 0. -1.
</event>
<event>
 7    1  0.2835316E-011  0.5052884E+02  0.7816164E-02  0.1300439E+00
        -11   -1    0    0    0    0  0.00000000000E+00  0.00000000000E+00  0.45593999997E+02  0.45594000000E+02  0.51100000000E-03 0. -1.
         11   -1    0    0    0    0 -0.00000000000E+00 -0.00000000000E+00 -0.45593999997E+02  0.45594000000E+02  0.51100000000E-03 0.  1.
    9900012    2    1    2    0    0 -0.29428179906E+02 -0.24495610587E+02 -0.13678976386E+02  0.50528842291E+02  0.29999946628E+02 0.  0.
        -12    1    1    2    0    0  0.29428179906E+02  0.24495610587E+02  0.13678976386E+02  0.40659157709E+02  0.00000000000E+00 0.  1.
         11    1    3    3    0    0 -0.15618777534E+02 -0.19834385642E+01 -0.63155285866E+01  0.16963671236E+02  0.51100000000E-03 0.  1.
        -11    1    3    3    0    0 -0.31711101987E+00  0.34071796047E+01  0.35905493726E-01  0.34220931786E+01  0.51100000000E-03 0. -1.
        -12    1    3    3    0    0 -0.13492291352E+02 -0.25919351628E+02 -0.73993532928E+01  0.30143077877E+02  0.00000000000E+00 0.  1.
</event>
<event>
 7    1  0.2835316E-011  0.5052886E+02  0.7816164E-02  0.1300439E+00
        -11   -1    0    0    0    0  0.00000000000E+00  0.00000000000E+00  0.45593999997E+02  0.45594000000E+02  0.51100000000E-03 0.  1.
         11   -1    0    0    0    0 -0.00000000000E+00 -0.00000000000E+00 -0.45593999997E+02  0.45594000000E+02  0.51100000000E-03 0. -1.
    9900012    2    1    2    0    0 -0.89091885539E+01 -0.28627311354E+02 -0.27463952379E+02  0.50528864786E+02  0.30000015004E+02 0.  0.
        -12    1    1    2    0    0  0.89091885539E+01  0.28627311354E+02  0.27463952379E+02  0.40659135214E+02  0.00000000000E+00 0.  1.
         11    1    3    3    0    0  0.33260827252E+01 -0.93046022798E+01 -0.18568275618E+02  0.21033765939E+02  0.51100000000E-03 0. -1.
        -11    1    3    3    0    0  0.17168940937E+01 -0.94868487945E+01  0.11157602720E+01  0.97053050764E+01  0.51100000000E-03 0.  1.
         12    1    3    3    0    0 -0.13952165373E+02 -0.98358602797E+01 -0.10011437033E+02  0.19789793771E+02  0.00000000000E+00 0. -1.
</event>
<event>
 7    1  0.2835316E-011  0.5052885E+02  0.7816164E-02  0.1300439E+00
        -11   -1    0    0    0    0  0.00000000000E+00  0.00000000000E+00  0.45593999997E+02  0.45594000000E+02  0.51100000000E-03 0. -1.
         11   -1    0    0    0    0 -0.00000000000E+00 -0.00000000000E+00 -0.45593999997E+02  0.45594000000E+02  0.51100000000E-03 0.  1.
    9900012    2    1    2    0    0  0.34112422705E+02  0.10511010516E+02  0.19468634809E+02  0.50528850154E+02  0.29999970527E+02 0.  0.
        -12    1    1    2    0    0 -0.34112422705E+02 -0.10511010516E+02 -0.19468634809E+02  0.40659149846E+02  0.00000000000E+00 0.  1.
         11    1    3    3    0    0  0.48367637466E+01  0.93924061734E+01  0.42532894561E+01  0.11388680728E+02  0.51100000000E-03 0. -1.
        -11    1    3    3    0    0  0.27964864662E+02  0.28364014384E+01  0.48150444935E+01  0.28517774850E+02  0.51100000000E-03 0.  1.
         12    1    3    3    0    0  0.13107942968E+01 -0.17177970954E+01  0.10400300859E+02  0.10622394575E+02  0.00000000000E+00 0. -1.
</event>
<event>
 7    1  0.2835316E-011  0.5052886E+02  0.7816164E-02  0.1300439E+00
        -11   -1    0    0    0    0  0.00000000000E+00  0.00000000000E+00  0.45593999997E+02  0.45594000000E+02  0.51100000000E-03 0. -1.
         11   -1    0    0    0    0 -0.00000000000E+00 -0.00000000000E+00 -0.45593999997E+02  0.45594000000E+02  0.51100000000E-03 0.  1.
    9900012    2    1    2    0    0 -0.37386529508E+02  0.14831893339E+02  0.59521502770E+01  0.50528859065E+02  0.29999997613E+02 0.  0.
        -12    1    1    2    0    0  0.37386529508E+02 -0.14831893339E+02 -0.59521502770E+01  0.40659140935E+02  0.00000000000E+00 0.  1.
         11    1    3    3    0    0 -0.16826905710E+02  0.12782268444E+02 -0.18634035852E+00  0.21132105086E+02  0.51100000000E-03 0.  1.
        -11    1    3    3    0    0 -0.18186919479E+02 -0.33422809013E+01 -0.27892231511E+01  0.18700659021E+02  0.51100000000E-03 0. -1.
         12    1    3    3    0    0 -0.23727043184E+01  0.53919057966E+01  0.89277137866E+01  0.10696094958E+02  0.00000000000E+00 0. -1.
</event>
<event>
 7    1  0.2835316E-011  0.5052886E+02  0.7816164E-02  0.1300439E+00
        -11   -1    0    0    0    0  0.00000000000E+00  0.00000000000E+00  0.45593999997E+02  0.45594000000E+02  0.51100000000E-03 0.  1.
         11   -1    0    0    0    0 -0.00000000000E+00 -0.00000000000E+00 -0.45593999997E+02  0.45594000000E+02  0.51100000000E-03 0. -1.
    9900012    2    1    2    0    0 -0.36934123847E+02 -0.10973721587E+02 -0.12985139949E+02  0.50528856756E+02  0.29999990595E+02 0.  0.
        -12    1    1    2    0    0  0.36934123847E+02  0.10973721587E+02  0.12985139949E+02  0.40659143244E+02  0.00000000000E+00 0.  1.
         11    1    3    3    0    0 -0.15248346554E+02 -0.30641585627E+01 -0.44946649868E+01  0.16189600179E+02  0.51100000000E-03 0. -1.
        -11    1    3    3    0    0 -0.16680416808E+02 -0.15195312461E+02 -0.11067089407E+02  0.25131937727E+02  0.51100000000E-03 0.  1.
        -12    1    3    3    0    0 -0.50053604844E+01  0.72857494361E+01  0.25766144445E+01  0.92073188507E+01  0.00000000000E+00 0.  1.
</event>
<event>
 7    1  0.2835316E-011  0.5052886E+02  0.7816164E-02  0.1300439E+00
        -11   -1    0    0    0    0  0.00000000000E+00  0.00000000000E+00  0.45593999997E+02  0.45594000000E+02  0.51100000000E-03 0.  1.
         11   -1    0    0    0    0 -0.00000000000E+00 -0.00000000000E+00 -0.45593999997E+02  0.45594000000E+02  0.51100000000E-03 0. -1.
    9900012    2    1    2    0    0  0.10731553330E+02  0.15695343335E+01 -0.39185919859E+02  0.50528856008E+02  0.29999988323E+02 0.  0.
        -12    1    1    2    0    0 -0.10731553330E+02 -0.15695343335E+01  0.39185919859E+02  0.40659143992E+02  0.00000000000E+00 0.  1.
         11    1    3    3    0    0 -0.13025750590E+00 -0.55567970324E+01 -0.41164290919E+01  0.69166429001E+01  0.51100000000E-03 0. -1.
        -11    1    3    3    0    0  0.14506464774E+02  0.20777549026E+01 -0.99029273632E+01  0.17686790446E+02  0.51100000000E-03 0.  1.
         12    1    3    3    0    0 -0.36446539376E+01  0.50485764633E+01 -0.25166563404E+02  0.25925422662E+02  0.00000000000E+00 0. -1.
</event>
<event>
 7    1  0.2835316E-011  0.5052886E+02  0.7816164E-02  0.1300439E+00
        -11   -1    0    0    0    0  0.00000000000E+00  0.00000000000E+00  0.45593999997E+02  0.45594000000E+02  0.51100000000E-03 0.  1.
         11   -1    0    0    0    0 -0.00000000000E+00 -0.00000000000E+00 -0.45593999997E+02  0.45594000000E+02  0.51100000000E-03 0. -1.
    9900012    2    1    2    0    0  0.24168177022E+01  0.88153045459E+01 -0.39618368724E+02  0.50528859055E+02  0.29999997583E+02 0.  0.
        -12    1    1    2    0    0 -0.24168177022E+01 -0.88153045459E+01  0.39618368724E+02  0.40659140945E+02  0.00000000000E+00 0.  1.
         11    1    3    3    0    0  0.89880478580E+00  0.81214363881E+01 -0.24436399042E+02  0.25766318663E+02  0.51100000000E-03 0. -1.
        -11    1    3    3    0    0  0.86010191182E+01 -0.23860020515E+01 -0.14999213458E+01  0.90509833701E+01  0.51100000000E-03 0.  1.
         12    1    3    3    0    0 -0.70830062017E+01  0.30798702094E+01 -0.13682048336E+02  0.15711557021E+02  0.00000000000E+00 0. -1.
</event>
<event>
 7    1  0.2835316E-011  0.5052886E+02  0.7816164E-02  0.1300439E+00
        -11   -1    0    0    0    0  0.00000000000E+00  0.00000000000E+00  0.45593999997E+02  0.45594000000E+02  0.51100000000E-03 0.  1.
         11   -1    0    0    0    0 -0.00000000000E+00 -0.00000000000E+00 -0.45593999997E+02  0.45594000000E+02  0.51100000000E-03 0. -1.
    9900012    2    1    2    0    0 -0.19750903423E+02 -0.33199836131E+02 -0.12682215334E+02  0.50528857228E+02  0.29999992032E+02 0.  0.
        -12    1    1    2    0    0  0.19750903423E+02  0.33199836131E+02  0.12682215334E+02  0.40659142772E+02  0.00000000000E+00 0.  1.
         11    1    3    3    0    0 -0.13380826742E+01 -0.87929805768E+01  0.41929542557E+01  0.98329974229E+01  0.51100000000E-03 0.  1.
        -11    1    3    3    0    0 -0.13815209462E+02 -0.18283493850E+01 -0.52947457901E+01  0.14907622453E+02  0.51100000000E-03 0. -1.
         12    1    3    3    0    0 -0.45976112864E+01 -0.22578506169E+02 -0.11580423800E+02  0.25788237353E+02  0.00000000000E+00 0. -1.
</event>
<event>
 7    1  0.2835316E-011  0.5052887E+02  0.7816164E-02  0.1300439E+00
        -11   -1    0    0    0    0  0.00000000000E+00  0.00000000000E+00  0.45593999997E+02  0.45594000000E+02  0.51100000000E-03 0. -1.
         11   -1    0    0    0    0 -0.00000000000E+00 -0.00000000000E+00 -0.45593999997E+02  0.45594000000E+02  0.51100000000E-03 0.  1.
    9900012    2    1    2    0    0  0.24447702120E+02  0.54079515475E+01  0.32034811808E+02  0.50528865154E+02  0.30000016121E+02 0.  0.
        -12    1    1    2    0    0 -0.24447702120E+02 -0.54079515475E+01 -0.32034811808E+02  0.40659134846E+02  0.00000000000E+00 0.  1.
         11    1    3    3    0    0  0.10813007024E+02 -0.18258435684E+01  0.10501922687E+01  0.11016248441E+02  0.51100000000E-03 0.  1.
        -11    1    3    3    0    0  0.27329738392E+01  0.61664731971E+01  0.10289455001E+00  0.67457486794E+01  0.51100000000E-03 0. -1.
         12    1    3    3    0    0  0.10901721256E+02  0.10673219188E+01  0.30881724989E+02  0.32766868034E+02  0.00000000000E+00 0. -1.
</event>
<event>
 7    1  0.2835316E-011  0.5052886E+02  0.7816164E-02  0.1300439E+00
        -11   -1    0    0    0    0  0.00000000000E+00  0.00000000000E+00  0.45593999997E+02  0.45594000000E+02  0.51100000000E-03 0.  1.
         11   -1    0    0    0    0 -0.00000000000E+00 -0.00000000000E+00 -0.45593999997E+02  0.45594000000E+02  0.51100000000E-03 0. -1.
    9900012    2    1    2    0    0  0.16539500620E+02 -0.27623842056E+02 -0.24830096158E+02  0.50528863193E+02  0.30000010160E+02 0.  0.
        -12    1    1    2    0    0 -0.16539500620E+02  0.27623842056E+02  0.24830096158E+02  0.40659136807E+02  0.00000000000E+00 0.  1.
         11    1    3    3    0    0  0.55983868342E+01 -0.46208006584E+01 -0.45598998081E+01  0.85724220843E+01  0.51100000000E-03 0. -1.
        -11    1    3    3    0    0  0.19030061140E+02 -0.19477774534E+02 -0.11641917236E+02  0.29615218469E+02  0.51100000000E-03 0.  1.
        -12    1    3    3    0    0 -0.80889473542E+01 -0.35252668641E+01 -0.86282791141E+01  0.12341222639E+02  0.00000000000E+00 0.  1.
</event>
<event>
 7    1  0.2835316E-011  0.5052886E+02  0.7816164E-02  0.1300439E+00
        -11   -1    0    0    0    0  0.00000000000E+00  0.00000000000E+00  0.45593999997E+02  0.45594000000E+02  0.51100000000E-03 0.  1.
         11   -1    0    0    0    0 -0.00000000000E+00 -0.00000000000E+00 -0.45593999997E+02  0.45594000000E+02  0.51100000000E-03 0. -1.
    9900012    2    1    2    0    0 -0.63296095637E+01  0.34478598819E+02  0.20599225934E+02  0.50528857820E+02  0.29999993829E+02 0.  0.
        -12    1    1    2    0    0  0.63296095637E+01 -0.34478598819E+02 -0.20599225934E+02  0.40659142180E+02  0.00000000000E+00 0.  1.
         11    1    3    3    0    0  0.30177871074E+01  0.83085282391E+01  0.10396039318E+02  0.13646109859E+02  0.51100000000E-03 0. -1.
        -11    1    3    3    0    0 -0.95690376437E+01  0.16012874381E+02  0.16521536845E+02  0.24918663835E+02  0.51100000000E-03 0.  1.
         12    1    3    3    0    0  0.22164097265E+00  0.10157196199E+02 -0.63183502285E+01  0.11964084125E+02  0.00000000000E+00 0. -1.
</event>
<event>
 7    1  0.2835316E-011  0.5052886E+02  0.7816164E-02  0.1300439E+00
        -11   -1    0    0    0    0  0.00000000000E+00  0.00000000000E+00  0.45593999997E+02  0.45594000000E+02  0.51100000000E-03 0. -1.
         11   -1    0    0    0    0 -0.00000000000E+00 -0.00000000000E+00 -0.45593999997E+02  0.45594000000E+02  0.51100000000E-03 0.  1.
    9900012    2    1    2    0    0 -0.91205025971E+01 -0.13655583622E+02  0.37195528104E+02  0.50528857823E+02  0.29999993837E+02 0.  0.
        -12    1    1    2    0    0  0.91205025971E+01  0.13655583622E+02 -0.37195528104E+02  0.40659142177E+02  0.00000000000E+00 0.  1.
         11    1    3    3    0    0 -0.17025805120E+02 -0.52478297382E+01  0.21044236863E+02  0.27573132981E+02  0.51100000000E-03 0. -1.
        -11    1    3    3    0    0  0.34553996713E+01 -0.90727195276E+01  0.15665962632E+02  0.18430312313E+02  0.51100000000E-03 0.  1.
        -12    1    3    3    0    0  0.44499028519E+01  0.66496564328E+00  0.48532860876E+00  0.45254125289E+01  0.00000000000E+00 0.  1.
</event>
<event>
 7    1  0.2835316E-011  0.5052883E+02  0.7816164E-02  0.1300439E+00
        -11   -1    0    0    0    0  0.00000000000E+00  0.00000000000E+00  0.45593999997E+02  0.45594000000E+02  0.51100000000E-03 0. -1.
         11   -1    0    0    0    0 -0.00000000000E+00 -0.00000000000E+00 -0.45593999997E+02  0.45594000000E+02  0.51100000000E-03 0.  1.
    9900012    2    1    2    0    0  0.24503804202E+02 -0.28072421483E+02 -0.16268706820E+02  0.50528830187E+02  0.29999909836E+02 0.  0.
        -12    1    1    2    0    0 -0.24503804202E+02  0.28072421483E+02  0.16268706820E+02  0.40659169813E+02  0.00000000000E+00 0.  1.
         11    1    3    3    0    0  0.24259923890E+02 -0.14457814324E+02 -0.70764676797E+01  0.29114407039E+02  0.51100000000E-03 0. -1.
        -11    1    3    3    0    0  0.37500101953E+01 -0.82805662844E+01 -0.11471562692E+02  0.14636499080E+02  0.51100000000E-03 0.  1.
        -12    1    3    3    0    0 -0.35061298837E+01 -0.53340408751E+01  0.22793235517E+01  0.67779240680E+01  0.00000000000E+00 0.  1.
</event>
<event>
 7    1  0.2835316E-011  0.5052886E+02  0.7816164E-02  0.1300439E+00
        -11   -1    0    0    0    0  0.00000000000E+00  0.00000000000E+00  0.45593999997E+02  0.45594000000E+02  0.51100000000E-03 0.  1.
         11   -1    0    0    0    0 -0.00000000000E+00 -0.00000000000E+00 -0.45593999997E+02  0.45594000000E+02  0.51100000000E-03 0. -1.
    9900012    2    1    2    0    0 -0.25963501234E+02  0.20864902636E+02 -0.23317760418E+02  0.50528861922E+02  0.30000006298E+02 0.  0.
        -12    1    1    2    0    0  0.25963501234E+02 -0.20864902636E+02  0.23317760418E+02  0.40659138078E+02  0.00000000000E+00 0.  1.
         11    1    3    3    0    0 -0.81838062609E+01  0.81088085416E+01 -0.23436675429E+01  0.11756710369E+02  0.51100000000E-03 0. -1.
        -11    1    3    3    0    0 -0.93271386718E+01  0.17325377431E+02 -0.21505698846E+02  0.29148915967E+02  0.51100000000E-03 0.  1.
        -12    1    3    3    0    0 -0.84525563013E+01 -0.45692833366E+01  0.53160597153E+00  0.96232355861E+01  0.00000000000E+00 0.  1.
</event>
<event>
 7    1  0.2835316E-011  0.5052886E+02  0.7816164E-02  0.1300439E+00
        -11   -1    0    0    0    0  0.00000000000E+00  0.00000000000E+00  0.45593999997E+02  0.45594000000E+02  0.51100000000E-03 0.  1.
         11   -1    0    0    0    0 -0.00000000000E+00 -0.00000000000E+00 -0.45593999997E+02  0.45594000000E+02  0.51100000000E-03 0. -1.
    9900012    2    1    2    0    0 -0.29871590274E+01 -0.33609523513E+02 -0.22685731457E+02  0.50528860787E+02  0.30000002847E+02 0.  0.
        -12    1    1    2    0    0  0.29871590274E+01  0.33609523513E+02  0.22685731457E+02  0.40659139213E+02  0.00000000000E+00 0.  1.
         11    1    3    3    0    0  0.51176024171E+01 -0.29923598509E+01  0.89325793293E+00  0.59951632148E+01  0.51100000000E-03 0. -1.
        -11    1    3    3    0    0  0.14956521740E+01  0.20036909036E+01  0.87551448311E+00  0.26492033773E+01  0.51100000000E-03 0.  1.
        -12    1    3    3    0    0 -0.96004136185E+01 -0.32620854566E+02 -0.24454503873E+02  0.41884494195E+02  0.00000000000E+00 0.  1.
</event>
<event>
 7    1  0.2835316E-011  0.5052886E+02  0.7816164E-02  0.1300439E+00
        -11   -1    0    0    0    0  0.00000000000E+00  0.00000000000E+00  0.45593999997E+02  0.45594000000E+02  0.51100000000E-03 0. -1.
         11   -1    0    0    0    0 -0.00000000000E+00 -0.00000000000E+00 -0.45593999997E+02  0.45594000000E+02  0.51100000000E-03 0.  1.
    9900012    2    1    2    0    0 -0.17159055059E+02  0.19662702374E+02 -0.31178694787E+02  0.50528855349E+02  0.29999986318E+02 0.  0.
        -12    1    1    2    0    0  0.17159055059E+02 -0.19662702374E+02  0.31178694787E+02  0.40659144651E+02  0.00000000000E+00 0.  1.
         11    1    3    3    0    0 -0.16293395423E+02 -0.75607828438E+00 -0.87208569678E+01  0.18495938345E+02  0.51100000000E-03 0. -1.
        -11    1    3    3    0    0 -0.39184442643E+01  0.87928210076E+01 -0.15199126100E+02  0.17991146189E+02  0.51100000000E-03 0.  1.
        -12    1    3    3    0    0  0.30527846282E+01  0.11625959651E+02 -0.72587117192E+01  0.14041770815E+02  0.00000000000E+00 0.  1.
</event>
<event>
 7    1  0.2835316E-011  0.5052887E+02  0.7816164E-02  0.1300439E+00
        -11   -1    0    0    0    0  0.00000000000E+00  0.00000000000E+00  0.45593999997E+02  0.45594000000E+02  0.51100000000E-03 0.  1.
         11   -1    0    0    0    0 -0.00000000000E+00 -0.00000000000E+00 -0.45593999997E+02  0.45594000000E+02  0.51100000000E-03 0. -1.
    9900012    2    1    2    0    0  0.39698642014E+02 -0.71186271757E+00 -0.87564882585E+01  0.50528868025E+02  0.30000024850E+02 0.  0.
        -12    1    1    2    0    0 -0.39698642014E+02  0.71186271757E+00  0.87564882585E+01  0.40659131975E+02  0.00000000000E+00 0.  1.
         11    1    3    3    0    0  0.27057129686E+02  0.46122558919E+01 -0.16518354805E+02  0.32034625282E+02  0.51100000000E-03 0.  1.
        -11    1    3    3    0    0  0.11235460925E+02 -0.37995943389E+00  0.33778004531E+01  0.11738376699E+02  0.51100000000E-03 0. -1.
        -12    1    3    3    0    0  0.14060514040E+01 -0.49441591756E+01  0.43840660932E+01  0.67558660447E+01  0.00000000000E+00 0.  1.
</event>
<event>
 7    1  0.2835316E-011  0.5052884E+02  0.7816164E-02  0.1300439E+00
        -11   -1    0    0    0    0  0.00000000000E+00  0.00000000000E+00  0.45593999997E+02  0.45594000000E+02  0.51100000000E-03 0.  1.
         11   -1    0    0    0    0 -0.00000000000E+00 -0.00000000000E+00 -0.45593999997E+02  0.45594000000E+02  0.51100000000E-03 0. -1.
    9900012    2    1    2    0    0 -0.54651733425E+01 -0.24444813936E+02 -0.32027334514E+02  0.50528841080E+02  0.29999942947E+02 0.  0.
        -12    1    1    2    0    0  0.54651733425E+01  0.24444813936E+02  0.32027334514E+02  0.40659158920E+02  0.00000000000E+00 0.  1.
         11    1    3    3    0    0  0.35426974414E+01  0.12460871919E+01  0.16354130771E+01  0.40960974897E+01  0.51100000000E-03 0. -1.
        -11    1    3    3    0    0  0.10089515877E+01 -0.57133033322E+01  0.26299179910E+00  0.58076659011E+01  0.51100000000E-03 0.  1.
         12    1    3    3    0    0 -0.10016822372E+02 -0.19977597796E+02 -0.33925739390E+02  0.40625077689E+02  0.00000000000E+00 0. -1.
</event>
<event>
 7    1  0.2835316E-011  0.5052884E+02  0.7816164E-02  0.1300439E+00
        -11   -1    0    0    0    0  0.00000000000E+00  0.00000000000E+00  0.45593999997E+02  0.45594000000E+02  0.51100000000E-03 0.  1.
         11   -1    0    0    0    0 -0.00000000000E+00 -0.00000000000E+00 -0.45593999997E+02  0.45594000000E+02  0.51100000000E-03 0. -1.
    9900012    2    1    2    0    0  0.10947264944E+02 -0.33464325820E+02 -0.20333801747E+02  0.50528841058E+02  0.29999942880E+02 0.  0.
        -12    1    1    2    0    0 -0.10947264944E+02  0.33464325820E+02  0.20333801747E+02  0.40659158942E+02  0.00000000000E+00 0.  1.
         11    1    3    3    0    0  0.98475854541E+01 -0.39767690574E+01 -0.19916650435E+01  0.10805385755E+02  0.51100000000E-03 0. -1.
        -11    1    3    3    0    0  0.68914252690E+01 -0.20920304130E+02 -0.45603913866E+01  0.22493288710E+02  0.51100000000E-03 0.  1.
         12    1    3    3    0    0 -0.57917457788E+01 -0.85672526329E+01 -0.13781745317E+02  0.17230166593E+02  0.00000000000E+00 0. -1.
</event>
<event>
 7    1  0.2835316E-011  0.5052887E+02  0.7816164E-02  0.1300439E+00
        -11   -1    0    0    0    0  0.00000000000E+00  0.00000000000E+00  0.45593999997E+02  0.45594000000E+02  0.51100000000E-03 0. -1.
         11   -1    0    0    0    0 -0.00000000000E+00 -0.00000000000E+00 -0.45593999997E+02  0.45594000000E+02  0.51100000000E-03 0.  1.
    9900012    2    1    2    0    0 -0.17935000693E+02 -0.54560897246E+01  0.36079522570E+02  0.50528866785E+02  0.30000021081E+02 0.  0.
        -12    1    1    2    0    0  0.17935000693E+02  0.54560897246E+01 -0.36079522570E+02  0.40659133215E+02  0.00000000000E+00 0.  1.
         11    1    3    3    0    0 -0.96387892359E+01 -0.10212094434E+02  0.22050061058E+02  0.26141888294E+02  0.51100000000E-03 0. -1.
        -11    1    3    3    0    0 -0.11837684044E+02  0.54206905657E+01  0.15715995696E+02  0.20408507312E+02  0.51100000000E-03 0.  1.
        -12    1    3    3    0    0  0.35414725869E+01 -0.66468585652E+00 -0.16865341842E+01  0.39784711795E+01  0.00000000000E+00 0.  1.
</event>
<event>
 7    1  0.2835316E-011  0.5052885E+02  0.7816164E-02  0.1300439E+00
        -11   -1    0    0    0    0  0.00000000000E+00  0.00000000000E+00  0.45593999997E+02  0.45594000000E+02  0.51100000000E-03 0.  1.
         11   -1    0    0    0    0 -0.00000000000E+00 -0.00000000000E+00 -0.45593999997E+02  0.45594000000E+02  0.51100000000E-03 0. -1.
    9900012    2    1    2    0    0  0.16029503215E+02  0.23866143766E+01 -0.37289746600E+02  0.50528854620E+02  0.29999984104E+02 0.  0.
        -12    1    1    2    0    0 -0.16029503215E+02 -0.23866143766E+01  0.37289746600E+02  0.40659145380E+02  0.00000000000E+00 0.  1.
         11    1    3    3    0    0  0.37485543855E+00 -0.81156921282E+01 -0.11781764872E+02  0.14311357695E+02  0.51100000000E-03 0. -1.
        -11    1    3    3    0    0 -0.54988847249E+00  0.78832855442E+00  0.23604000885E+01  0.25485933534E+01  0.51100000000E-03 0.  1.
         12    1    3    3    0    0  0.16204536248E+02  0.97139779504E+01 -0.27868381817E+02  0.33668903572E+02  0.00000000000E+00 0. -1.
</event>
<event>
 7    1  0.2835316E-011  0.5052886E+02  0.7816164E-02  0.1300439E+00
        -11   -1    0    0    0    0  0.00000000000E+00  0.00000000000E+00  0.45593999997E+02  0.45594000000E+02  0.51100000000E-03 0.  1.
         11   -1    0    0    0    0 -0.00000000000E+00 -0.00000000000E+00 -0.45593999997E+02  0.45594000000E+02  0.51100000000E-03 0. -1.
    9900012    2    1    2    0    0 -0.27617056624E+00 -0.23946143158E+02 -0.32858362713E+02  0.50528855365E+02  0.29999986366E+02 0.  0.
        -12    1    1    2    0    0  0.27617056624E+00  0.23946143158E+02  0.32858362713E+02  0.40659144635E+02  0.00000000000E+00 0.  1.
         11    1    3    3    0    0 -0.99354664464E+01 -0.15786851931E+02 -0.24375934193E+02  0.30694044299E+02  0.51100000000E-03 0.  1.
        -11    1    3    3    0    0  0.66610094916E+00 -0.87984533001E+01 -0.51884680206E+01  0.10236047656E+02  0.51100000000E-03 0. -1.
         12    1    3    3    0    0  0.89931949310E+01  0.63916207317E+00 -0.32939604989E+01  0.95987634094E+01  0.00000000000E+00 0. -1.
</event>
<event>
 7    1  0.2835316E-011  0.5052886E+02  0.7816164E-02  0.1300439E+00
        -11   -1    0    0    0    0  0.00000000000E+00  0.00000000000E+00  0.45593999997E+02  0.45594000000E+02  0.51100000000E-03 0.  1.
         11   -1    0    0    0    0 -0.00000000000E+00 -0.00000000000E+00 -0.45593999997E+02  0.45594000000E+02  0.51100000000E-03 0. -1.
    9900012    2    1    2    0    0 -0.50965666050E+00 -0.12219159097E+02 -0.38776256720E+02  0.50528859770E+02  0.29999999758E+02 0.  0.
        -12    1    1    2    0    0  0.50965666050E+00  0.12219159097E+02  0.38776256720E+02  0.40659140230E+02  0.00000000000E+00 0.  1.
         11    1    3    3    0    0  0.38616876886E+00 -0.76983097623E+01 -0.12124326440E+02  0.14367059247E+02  0.51100000000E-03 0. -1.
        -11    1    3    3    0    0 -0.11726338990E+02  0.10699370318E+01 -0.95496199746E+01  0.15160706886E+02  0.51100000000E-03 0.  1.
        -12    1    3    3    0    0  0.10830513561E+02 -0.55907863670E+01 -0.17102310306E+02  0.21001093638E+02  0.00000000000E+00 0.  1.
</event>
<event>
 7    1  0.2835316E-011  0.5052885E+02  0.7816164E-02  0.1300439E+00
        -11   -1    0    0    0    0  0.00000000000E+00  0.00000000000E+00  0.45593999997E+02  0.45594000000E+02  0.51100000000E-03 0. -1.
         11   -1    0    0    0    0 -0.00000000000E+00 -0.00000000000E+00 -0.45593999997E+02  0.45594000000E+02  0.51100000000E-03 0.  1.
    9900012    2    1    2    0    0  0.39289914067E+02 -0.10454183669E+02 -0.42348446369E+00  0.50528847984E+02  0.29999963931E+02 0.  0.
        -12    1    1    2    0    0 -0.39289914067E+02  0.10454183669E+02  0.42348446369E+00  0.40659152016E+02  0.00000000000E+00 0.  1.
         11    1    3    3    0    0  0.19948012816E+02 -0.70820157568E+01 -0.43426476345E+01  0.21608719334E+02  0.51100000000E-03 0. -1.
        -11    1    3    3    0    0  0.20038989561E+02  0.40466139950E+01 -0.12102400756E+00  0.20443845884E+02  0.51100000000E-03 0.  1.
         12    1    3    3    0    0 -0.69708831012E+00 -0.74187819071E+01  0.40401871783E+01  0.84762827663E+01  0.00000000000E+00 0. -1.
</event>
<event>
 7    1  0.2835316E-011  0.5052886E+02  0.7816164E-02  0.1300439E+00
        -11   -1    0    0    0    0  0.00000000000E+00  0.00000000000E+00  0.45593999997E+02  0.45594000000E+02  0.51100000000E-03 0.  1.
         11   -1    0    0    0    0 -0.00000000000E+00 -0.00000000000E+00 -0.45593999997E+02  0.45594000000E+02  0.51100000000E-03 0. -1.
    9900012    2    1    2    0    0 -0.19862423408E+02  0.15966019256E+02 -0.31681795586E+02  0.50528858272E+02  0.29999995204E+02 0.  0.
        -12    1    1    2    0    0  0.19862423408E+02 -0.15966019256E+02  0.31681795586E+02  0.40659141728E+02  0.00000000000E+00 0.  1.
         11    1    3    3    0    0 -0.74401255217E+01  0.19412866002E+02 -0.12493175911E+02  0.24254778473E+02  0.51100000000E-03 0. -1.
        -11    1    3    3    0    0  0.52857293719E+00 -0.61292649977E+00  0.14987323958E+01  0.17033106878E+01  0.51100000000E-03 0.  1.
         12    1    3    3    0    0 -0.12950870823E+02 -0.28339202461E+01 -0.20687352070E+02  0.24570769111E+02  0.00000000000E+00 0. -1.
</event>
<event>
 7    1  0.2835316E-011  0.5052885E+02  0.7816164E-02  0.1300439E+00
        -11   -1    0    0    0    0  0.00000000000E+00  0.00000000000E+00  0.45593999997E+02  0.45594000000E+02  0.51100000000E-03 0.  1.
         11   -1    0    0    0    0 -0.00000000000E+00 -0.00000000000E+00 -0.45593999997E+02  0.45594000000E+02  0.51100000000E-03 0. -1.
    9900012    2    1    2    0    0  0.23177153563E+02 -0.10971371645E+02 -0.31553365348E+02  0.50528852101E+02  0.29999976448E+02 0.  0.
        -12    1    1    2    0    0 -0.23177153563E+02  0.10971371645E+02  0.31553365348E+02  0.40659147899E+02  0.00000000000E+00 0.  1.
         11    1    3    3    0    0  0.13159749965E+01 -0.96001431943E+01 -0.38477320913E+01  0.10425909171E+02  0.51100000000E-03 0. -1.
        -11    1    3    3    0    0 -0.31465663517E+01 -0.17817762426E+01 -0.59053929792E+01  0.69245413483E+01  0.51100000000E-03 0.  1.
        -12    1    3    3    0    0  0.25007744918E+02  0.41054779146E+00 -0.21800240277E+02  0.33178401582E+02  0.00000000000E+00 0.  1.
</event>
<event>
 7    1  0.2835316E-011  0.5052885E+02  0.7816164E-02  0.1300439E+00
        -11   -1    0    0    0    0  0.00000000000E+00  0.00000000000E+00  0.45593999997E+02  0.45594000000E+02  0.51100000000E-03 0.  1.
         11   -1    0    0    0    0 -0.00000000000E+00 -0.00000000000E+00 -0.45593999997E+02  0.45594000000E+02  0.51100000000E-03 0. -1.
    9900012    2    1    2    0    0 -0.26087874309E+02  0.67737496592E+01 -0.30441836177E+02  0.50528852687E+02  0.29999978227E+02 0.  0.
        -12    1    1    2    0    0  0.26087874309E+02 -0.67737496592E+01  0.30441836177E+02  0.40659147313E+02  0.00000000000E+00 0.  1.
         11    1    3    3    0    0 -0.41397148545E+01 -0.31240983318E+01 -0.16887146862E+02  0.17665586853E+02  0.51100000000E-03 0. -1.
        -11    1    3    3    0    0 -0.14988004812E+02 -0.26670997487E+01 -0.94749860935E+01  0.17931231722E+02  0.51100000000E-03 0.  1.
        -12    1    3    3    0    0 -0.69601546419E+01  0.12564947740E+02 -0.40797032216E+01  0.14932034112E+02  0.00000000000E+00 0.  1.
</event>
<event>
 7    1  0.2835316E-011  0.5052886E+02  0.7816164E-02  0.1300439E+00
        -11   -1    0    0    0    0  0.00000000000E+00  0.00000000000E+00  0.45593999997E+02  0.45594000000E+02  0.51100000000E-03 0. -1.
         11   -1    0    0    0    0 -0.00000000000E+00 -0.00000000000E+00 -0.45593999997E+02  0.45594000000E+02  0.51100000000E-03 0.  1.
    9900012    2    1    2    0    0 -0.96906740671E+01 -0.39465405407E+02  0.13184456136E+01  0.50528859741E+02  0.29999999668E+02 0.  0.
        -12    1    1    2    0    0  0.96906740671E+01  0.39465405407E+02 -0.13184456136E+01  0.40659140259E+02  0.00000000000E+00 0.  1.
         11    1    3    3    0    0 -0.16313986050E+02 -0.36125556303E+02  0.76874677759E+01  0.40376962740E+02  0.51100000000E-03 0. -1.
        -11    1    3    3    0    0  0.40741788516E+00 -0.96274794428E+00 -0.17930364254E+01  0.20755367550E+01  0.51100000000E-03 0.  1.
         12    1    3    3    0    0  0.62158940974E+01 -0.23771011589E+01 -0.45759857369E+01  0.80763602454E+01  0.00000000000E+00 0. -1.
</event>
<event>
 7    1  0.2835316E-011  0.5052886E+02  0.7816164E-02  0.1300439E+00
        -11   -1    0    0    0    0  0.00000000000E+00  0.00000000000E+00  0.45593999997E+02  0.45594000000E+02  0.51100000000E-03 0.  1.
         11   -1    0    0    0    0 -0.00000000000E+00 -0.00000000000E+00 -0.45593999997E+02  0.45594000000E+02  0.51100000000E-03 0. -1.
    9900012    2    1    2    0    0  0.91344917827E+00  0.13563394187E-01 -0.40648878620E+02  0.50528857038E+02  0.29999991453E+02 0.  0.
        -12    1    1    2    0    0 -0.91344917827E+00 -0.13563394187E-01  0.40648878620E+02  0.40659142962E+02  0.00000000000E+00 0.  1.
         11    1    3    3    0    0 -0.84730940842E+01 -0.22812390903E+01 -0.16124350306E+02  0.18357343168E+02  0.51100000000E-03 0. -1.
        -11    1    3    3    0    0  0.25225146489E+01 -0.62175247477E+01 -0.18516474889E+02  0.19694682955E+02  0.51100000000E-03 0.  1.
        -12    1    3    3    0    0  0.68640286136E+01  0.85123272322E+01 -0.60080534251E+01  0.12476830915E+02  0.00000000000E+00 0.  1.
</event>
<event>
 7    1  0.2835316E-011  0.5052887E+02  0.7816164E-02  0.1300439E+00
        -11   -1    0    0    0    0  0.00000000000E+00  0.00000000000E+00  0.45593999997E+02  0.45594000000E+02  0.51100000000E-03 0.  1.
         11   -1    0    0    0    0 -0.00000000000E+00 -0.00000000000E+00 -0.45593999997E+02  0.45594000000E+02  0.51100000000E-03 0. -1.
    9900012    2    1    2    0    0 -0.77499617653E+00 -0.13763738365E+02 -0.38250804174E+02  0.50528866551E+02  0.30000020369E+02 0.  0.
        -12    1    1    2    0    0  0.77499617653E+00  0.13763738365E+02  0.38250804174E+02  0.40659133449E+02  0.00000000000E+00 0.  1.
         11    1    3    3    0    0 -0.37030633967E+01  0.11502590990E+01  0.20741918330E+01  0.43975045805E+01  0.51100000000E-03 0. -1.
        -11    1    3    3    0    0  0.35571337149E+01 -0.68227189224E+01 -0.35541082346E+01  0.84755164659E+01  0.51100000000E-03 0.  1.
         12    1    3    3    0    0 -0.62906649478E+00 -0.80912785412E+01 -0.36770887773E+02  0.37655845505E+02  0.00000000000E+00 0. -1.
</event>
<event>
 7    1  0.2835316E-011  0.5052886E+02  0.7816164E-02  0.1300439E+00
        -11   -1    0    0    0    0  0.00000000000E+00  0.00000000000E+00  0.45593999997E+02  0.45594000000E+02  0.51100000000E-03 0.  1.
         11   -1    0    0    0    0 -0.00000000000E+00 -0.00000000000E+00 -0.45593999997E+02  0.45594000000E+02  0.51100000000E-03 0. -1.
    9900012    2    1    2    0    0 -0.62998655172E+01 -0.11536116421E+02 -0.38475906047E+02  0.50528860391E+02  0.30000001644E+02 0.  0.
        -12    1    1    2    0    0  0.62998655172E+01  0.11536116421E+02  0.38475906047E+02  0.40659139609E+02  0.00000000000E+00 0.  1.
         11    1    3    3    0    0 -0.58613353818E+01 -0.95899636739E+01 -0.30640788237E+02  0.32637104035E+02  0.51100000000E-03 0. -1.
        -11    1    3    3    0    0  0.45307077242E+01 -0.73920062444E+01 -0.48817617328E+01  0.99499078728E+01  0.51100000000E-03 0.  1.
         12    1    3    3    0    0 -0.49692378596E+01  0.54458534968E+01 -0.29533560765E+01  0.79418484831E+01  0.00000000000E+00 0. -1.
</event>
<event>
 7    1  0.2835316E-011  0.5052883E+02  0.7816164E-02  0.1300439E+00
        -11   -1    0    0    0    0  0.00000000000E+00  0.00000000000E+00  0.45593999997E+02  0.45594000000E+02  0.51100000000E-03 0. -1.
         11   -1    0    0    0    0 -0.00000000000E+00 -0.00000000000E+00 -0.45593999997E+02  0.45594000000E+02  0.51100000000E-03 0.  1.
    9900012    2    1    2    0    0  0.38802096168E+02  0.11246513209E+02  0.45914708284E+01  0.50528827225E+02  0.29999900832E+02 0.  0.
        -12    1    1    2    0    0 -0.38802096168E+02 -0.11246513209E+02 -0.45914708284E+01  0.40659172775E+02  0.00000000000E+00 0.  1.
         11    1    3    3    0    0  0.19799638946E+01  0.29733106381E+01  0.83289062565E+01  0.90626438121E+01  0.51100000000E-03 0. -1.
        -11    1    3    3    0    0  0.32242655969E+01  0.28290308361E+01  0.47374634137E+01  0.63908421955E+01  0.51100000000E-03 0.  1.
         12    1    3    3    0    0  0.33597866677E+02  0.54441717348E+01 -0.84748988418E+01  0.35075341217E+02  0.00000000000E+00 0. -1.
</event>
<event>
 7    1  0.2835316E-011  0.5052877E+02  0.7816164E-02  0.1300439E+00
        -11   -1    0    0    0    0  0.00000000000E+00  0.00000000000E+00  0.45593999997E+02  0.45594000000E+02  0.51100000000E-03 0.  1.
         11   -1    0    0    0    0 -0.00000000000E+00 -0.00000000000E+00 -0.45593999997E+02  0.45594000000E+02  0.51100000000E-03 0. -1.
    9900012    2    1    2    0    0  0.33437298216E+02  0.13412891312E+02 -0.18847124911E+02  0.50528773706E+02  0.29999738157E+02 0.  0.
        -12    1    1    2    0    0 -0.33437298216E+02 -0.13412891312E+02  0.18847124911E+02  0.40659226294E+02  0.00000000000E+00 0.  1.
         11    1    3    3    0    0  0.23513291210E+02  0.11998788987E+02 -0.24991127495E+02  0.36351097018E+02  0.51100000000E-03 0. -1.
        -11    1    3    3    0    0  0.77974867454E+01  0.60339479374E+00  0.21153148096E+00  0.78236583930E+01  0.51100000000E-03 0.  1.
        -12    1    3    3    0    0  0.21265202612E+01  0.81070753190E+00  0.59324711023E+01  0.63540182958E+01  0.00000000000E+00 0.  1.
</event>
<event>
 7    1  0.2835316E-011  0.5052889E+02  0.7816164E-02  0.1300439E+00
        -11   -1    0    0    0    0  0.00000000000E+00  0.00000000000E+00  0.45593999997E+02  0.45594000000E+02  0.51100000000E-03 0.  1.
         11   -1    0    0    0    0 -0.00000000000E+00 -0.00000000000E+00 -0.45593999997E+02  0.45594000000E+02  0.51100000000E-03 0. -1.
    9900012    2    1    2    0    0  0.27654784542E+02 -0.25182179522E+02 -0.15944727959E+02  0.50528885115E+02  0.30000076796E+02 0.  0.
        -12    1    1    2    0    0 -0.27654784542E+02  0.25182179522E+02  0.15944727959E+02  0.40659114885E+02  0.00000000000E+00 0.  1.
         11    1    3    3    0    0 -0.48854603754E-01  0.39464127624E+00 -0.47985237959E+01  0.48149724184E+01  0.51100000000E-03 0.  1.
        -11    1    3    3    0    0  0.22940820247E+02 -0.86977232601E+01 -0.13524712011E+02  0.28015164799E+02  0.51100000000E-03 0. -1.
         12    1    3    3    0    0  0.47628188995E+01 -0.16879097538E+02  0.23785078474E+01  0.17698747897E+02  0.00000000000E+00 0. -1.
</event>
<event>
 7    1  0.2835316E-011  0.5052885E+02  0.7816164E-02  0.1300439E+00
        -11   -1    0    0    0    0  0.00000000000E+00  0.00000000000E+00  0.45593999997E+02  0.45594000000E+02  0.51100000000E-03 0. -1.
         11   -1    0    0    0    0 -0.00000000000E+00 -0.00000000000E+00 -0.45593999997E+02  0.45594000000E+02  0.51100000000E-03 0.  1.
    9900012    2    1    2    0    0 -0.19539293554E+00 -0.14344999436E+01  0.40633368469E+02  0.50528848489E+02  0.29999965466E+02 0.  0.
        -12    1    1    2    0    0  0.19539293554E+00  0.14344999436E+01 -0.40633368469E+02  0.40659151511E+02  0.00000000000E+00 0.  1.
         11    1    3    3    0    0 -0.77525036673E+01  0.19807348402E+00  0.13634223740E+02  0.15685426467E+02  0.51100000000E-03 0. -1.
        -11    1    3    3    0    0 -0.10936474685E+01  0.85752668151E+01  0.10641200794E+02  0.13710084622E+02  0.51100000000E-03 0.  1.
        -12    1    3    3    0    0  0.86507582003E+01 -0.10207840243E+02  0.16357943935E+02  0.21133337399E+02  0.00000000000E+00 0.  1.
</event>
<event>
 7    1  0.2835316E-011  0.5052883E+02  0.7816164E-02  0.1300439E+00
        -11   -1    0    0    0    0  0.00000000000E+00  0.00000000000E+00  0.45593999997E+02  0.45594000000E+02  0.51100000000E-03 0. -1.
         11   -1    0    0    0    0 -0.00000000000E+00 -0.00000000000E+00 -0.45593999997E+02  0.45594000000E+02  0.51100000000E-03 0.  1.
    9900012    2    1    2    0    0  0.35919009164E+02 -0.16682927060E+02 -0.92018052631E+01  0.50528825208E+02  0.29999894703E+02 0.  0.
        -12    1    1    2    0    0 -0.35919009164E+02  0.16682927060E+02  0.92018052631E+01  0.40659174792E+02  0.00000000000E+00 0.  1.
         11    1    3    3    0    0  0.18848561283E+02  0.19330922504E+01 -0.12648767848E+02  0.22781493288E+02  0.51100000000E-03 0.  1.
        -11    1    3    3    0    0  0.95857202477E+01 -0.84795910128E+01 -0.36204945750E+01  0.13300281111E+02  0.51100000000E-03 0. -1.
        -12    1    3    3    0    0  0.74847276333E+01 -0.10136428297E+02  0.70674571600E+01  0.14447050809E+02  0.00000000000E+00 0.  1.
</event>
<event>
 7    1  0.2835316E-011  0.5052885E+02  0.7816164E-02  0.1300439E+00
        -11   -1    0    0    0    0  0.00000000000E+00  0.00000000000E+00  0.45593999997E+02  0.45594000000E+02  0.51100000000E-03 0.  1.
         11   -1    0    0    0    0 -0.00000000000E+00 -0.00000000000E+00 -0.45593999997E+02  0.45594000000E+02  0.51100000000E-03 0. -1.
    9900012    2    1    2    0    0 -0.36261963455E+02  0.17347751029E+02  0.61067096128E+01  0.50528851440E+02  0.29999974436E+02 0.  0.
        -12    1    1    2    0    0  0.36261963455E+02 -0.17347751029E+02 -0.61067096128E+01  0.40659148560E+02  0.00000000000E+00 0.  1.
         11    1    3    3    0    0  0.67492730511E+00 -0.45900261660E+01 -0.33515411512E+01  0.57233465229E+01  0.51100000000E-03 0.  1.
        -11    1    3    3    0    0 -0.61717039865E+01  0.67406126041E+01  0.43204116021E+01  0.10108993276E+02  0.51100000000E-03 0. -1.
        -12    1    3    3    0    0 -0.30765186774E+02  0.15197164590E+02  0.51378391618E+01  0.34696511641E+02  0.00000000000E+00 0.  1.
</event>
<event>
 7    1  0.2835316E-011  0.5052888E+02  0.7816164E-02  0.1300439E+00
        -11   -1    0    0    0    0  0.00000000000E+00  0.00000000000E+00  0.45593999997E+02  0.45594000000E+02  0.51100000000E-03 0.  1.
         11   -1    0    0    0    0 -0.00000000000E+00 -0.00000000000E+00 -0.45593999997E+02  0.45594000000E+02  0.51100000000E-03 0. -1.
    9900012    2    1    2    0    0 -0.23230294406E+02  0.23541955212E+02 -0.23649392885E+02  0.50528880270E+02  0.30000062069E+02 0.  0.
        -12    1    1    2    0    0  0.23230294406E+02 -0.23541955212E+02  0.23649392885E+02  0.40659119730E+02  0.00000000000E+00 0.  1.
         11    1    3    3    0    0 -0.68179184568E+00  0.39069900399E+01  0.32114152965E+01  0.51031950541E+01  0.51100000000E-03 0.  1.
        -11    1    3    3    0    0 -0.15567263502E+02  0.21573454774E+02 -0.27361694683E+02  0.38163018487E+02  0.51100000000E-03 0. -1.
         12    1    3    3    0    0 -0.69812390588E+01 -0.19384896027E+01  0.50088650181E+00  0.72626667294E+01  0.00000000000E+00 0. -1.
</event>
<event>
 7    1  0.2835316E-011  0.5052883E+02  0.7816164E-02  0.1300439E+00
        -11   -1    0    0    0    0  0.00000000000E+00  0.00000000000E+00  0.45593999997E+02  0.45594000000E+02  0.51100000000E-03 0. -1.
         11   -1    0    0    0    0 -0.00000000000E+00 -0.00000000000E+00 -0.45593999997E+02  0.45594000000E+02  0.51100000000E-03 0.  1.
    9900012    2    1    2    0    0  0.23131528694E+02  0.26958576354E+02  0.19782208400E+02  0.50528828489E+02  0.29999904676E+02 0.  0.
        -12    1    1    2    0    0 -0.23131528694E+02 -0.26958576354E+02 -0.19782208400E+02  0.40659171511E+02  0.00000000000E+00 0.  1.
         11    1    3    3    0    0  0.10857040774E+02  0.19529180905E+01  0.77466430337E+01  0.13479603184E+02  0.51100000000E-03 0. -1.
        -11    1    3    3    0    0  0.15741136281E+02  0.22375073260E+02  0.15539001136E+02  0.31462482918E+02  0.51100000000E-03 0.  1.
        -12    1    3    3    0    0 -0.34666483610E+01  0.26305850031E+01 -0.35034357688E+01  0.55867423874E+01  0.00000000000E+00 0.  1.
</event>
<event>
 7    1  0.2835316E-011  0.5052886E+02  0.7816164E-02  0.1300439E+00
        -11   -1    0    0    0    0  0.00000000000E+00  0.00000000000E+00  0.45593999997E+02  0.45594000000E+02  0.51100000000E-03 0.  1.
         11   -1    0    0    0    0 -0.00000000000E+00 -0.00000000000E+00 -0.45593999997E+02  0.45594000000E+02  0.51100000000E-03 0. -1.
    9900012    2    1    2    0    0  0.91536043829E+01  0.17043302585E+02 -0.35761756869E+02  0.50528857233E+02  0.29999992046E+02 0.  0.
        -12    1    1    2    0    0 -0.91536043829E+01 -0.17043302585E+02  0.35761756869E+02  0.40659142767E+02  0.00000000000E+00 0.  1.
         11    1    3    3    0    0  0.74996026363E+01  0.11694509972E+02 -0.26348370714E+02  0.29786611803E+02  0.51100000000E-03 0. -1.
        -11    1    3    3    0    0  0.37290023663E+01  0.84385624600E+01 -0.12754025467E+02  0.15741027949E+02  0.51100000000E-03 0.  1.
        -12    1    3    3    0    0 -0.20750006196E+01 -0.30897698467E+01  0.33406393116E+01  0.50012174805E+01  0.00000000000E+00 0.  1.
</event>
<event>
 7    1  0.2835316E-011  0.5052885E+02  0.7816164E-02  0.1300439E+00
        -11   -1    0    0    0    0  0.00000000000E+00  0.00000000000E+00  0.45593999997E+02  0.45594000000E+02  0.51100000000E-03 0. -1.
         11   -1    0    0    0    0 -0.00000000000E+00 -0.00000000000E+00 -0.45593999997E+02  0.45594000000E+02  0.51100000000E-03 0.  1.
    9900012    2    1    2    0    0  0.17070846480E+02  0.58066651311E+01  0.36442223375E+02  0.50528846000E+02  0.29999957901E+02 0.  0.
        -12    1    1    2    0    0 -0.17070846480E+02 -0.58066651311E+01 -0.36442223375E+02  0.40659154000E+02  0.00000000000E+00 0.  1.
         11    1    3    3    0    0  0.77841676566E+01 -0.69074975712E+01  0.16327274278E+02  0.19361990456E+02  0.51100000000E-03 0. -1.
        -11    1    3    3    0    0 -0.74093150479E+00  0.32860583075E+01  0.16631342522E+02  0.16969051624E+02  0.51100000000E-03 0.  1.
        -12    1    3    3    0    0  0.10027610329E+02  0.94281043949E+01  0.34836065756E+01  0.14197803920E+02  0.00000000000E+00 0.  1.
</event>
<event>
 7    1  0.2835316E-011  0.5052887E+02  0.7816164E-02  0.1300439E+00
        -11   -1    0    0    0    0  0.00000000000E+00  0.00000000000E+00  0.45593999997E+02  0.45594000000E+02  0.51100000000E-03 0. -1.
         11   -1    0    0    0    0 -0.00000000000E+00 -0.00000000000E+00 -0.45593999997E+02  0.45594000000E+02  0.51100000000E-03 0.  1.
    9900012    2    1    2    0    0 -0.38980988015E+02 -0.62360010054E+00  0.11543758783E+02  0.50528872236E+02  0.30000037648E+02 0.  0.
        -12    1    1    2    0    0  0.38980988015E+02  0.62360010054E+00 -0.11543758783E+02  0.40659127764E+02  0.00000000000E+00 0.  1.
         11    1    3    3    0    0  0.30155484347E+00  0.53041296323E+01 -0.11507767022E+01  0.54359004553E+01  0.51100000000E-03 0.  1.
        -11    1    3    3    0    0 -0.18933651507E+02 -0.32264091374E+00  0.14584513895E+02  0.23901784502E+02  0.51100000000E-03 0. -1.
        -12    1    3    3    0    0 -0.20348891351E+02 -0.56050888191E+01 -0.18899784097E+01  0.21191187279E+02  0.00000000000E+00 0.  1.
</event>
<event>
 7    1  0.2835316E-011  0.5052886E+02  0.7816164E-02  0.1300439E+00
        -11   -1    0    0    0    0  0.00000000000E+00  0.00000000000E+00  0.45593999997E+02  0.45594000000E+02  0.51100000000E-03 0.  1.
         11   -1    0    0    0    0 -0.00000000000E+00 -0.00000000000E+00 -0.45593999997E+02  0.45594000000E+02  0.51100000000E-03 0. -1.
    9900012    2    1    2    0    0  0.62829047804E+01 -0.21965189972E+02 -0.33633630822E+02  0.50528860987E+02  0.30000003456E+02 0.  0.
        -12    1    1    2    0    0 -0.62829047804E+01  0.21965189972E+02  0.33633630822E+02  0.40659139013E+02  0.00000000000E+00 0.  1.
         11    1    3    3    0    0 -0.48342325938E+01 -0.16239272450E+02 -0.16932212655E+02  0.23953780498E+02  0.51100000000E-03 0. -1.
        -11    1    3    3    0    0 -0.67065694919E+00 -0.27605258668E+01 -0.13785480915E+02  0.14075147180E+02  0.51100000000E-03 0.  1.
        -12    1    3    3    0    0  0.11787794323E+02 -0.29653916560E+01 -0.29159372515E+01  0.12499933309E+02  0.00000000000E+00 0.  1.
</event>
