<event>
 7    1  0.6593656E-013  0.5930185E+02  0.7816164E-02  0.1266605E+00
        -11   -1    0    0    0    0  0.00000000000E+00  0.00000000000E+00  0.45593999997E+02  0.45594000000E+02  0.51100000000E-03 0.  1.
         11   -1    0    0    0    0 -0.00000000000E+00 -0.00000000000E+00 -0.45593999997E+02  0.45594000000E+02  0.51100000000E-03 0. -1.
    9900012    2    1    2    0    0 -0.29038144657E+02 -0.58682314453E+01  0.11793066441E+02  0.59301852514E+02  0.49999833101E+02 0.  0.
         12    1    1    2    0    0  0.29038144657E+02  0.58682314453E+01 -0.11793066441E+02  0.31886147486E+02  0.00000000000E+00 0. -1.
         11    1    3    3    0    0  0.35665818532E+00 -0.10674648179E+02  0.21870634280E+01  0.10902227547E+02  0.51100000000E-03 0. -1.
        -11    1    3    3    0    0  0.84125064265E+01  0.30604199063E+01 -0.12187006447E+01  0.90344709807E+01  0.51100000000E-03 0.  1.
         12    1    3    3    0    0 -0.37807309269E+02  0.17459968269E+01  0.10824703657E+02  0.39365153986E+02  0.00000000000E+00 0. -1.
</event>
<event>
 7    1  0.6593656E-013  0.5930195E+02  0.7816164E-02  0.1266605E+00
        -11   -1    0    0    0    0  0.00000000000E+00  0.00000000000E+00  0.45593999997E+02  0.45594000000E+02  0.51100000000E-03 0. -1.
         11   -1    0    0    0    0 -0.00000000000E+00 -0.00000000000E+00 -0.45593999997E+02  0.45594000000E+02  0.51100000000E-03 0.  1.
    9900012    2    1    2    0    0  0.17223735826E+02  0.26142658520E+02 -0.60518151714E+01  0.59301950744E+02  0.50000012249E+02 0.  0.
         12    1    1    2    0    0 -0.17223735826E+02 -0.26142658520E+02  0.60518151714E+01  0.31886049256E+02  0.00000000000E+00 0. -1.
         11    1    3    3    0    0  0.69246875386E+01  0.11077878856E+02 -0.15993748625E+02  0.20651166863E+02  0.51100000000E-03 0. -1.
        -11    1    3    3    0    0  0.16489186822E+02  0.27211968044E+01 -0.58190355665E+01  0.17696309482E+02  0.51100000000E-03 0.  1.
         12    1    3    3    0    0 -0.61901385351E+01  0.12343582860E+02  0.15760969020E+02  0.20954474399E+02  0.00000000000E+00 0. -1.
</event>
<event>
 7    1  0.6593656E-013  0.5930196E+02  0.7816164E-02  0.1266605E+00
        -11   -1    0    0    0    0  0.00000000000E+00  0.00000000000E+00  0.45593999997E+02  0.45594000000E+02  0.51100000000E-03 0. -1.
         11   -1    0    0    0    0 -0.00000000000E+00 -0.00000000000E+00 -0.45593999997E+02  0.45594000000E+02  0.51100000000E-03 0.  1.
    9900012    2    1    2    0    0 -0.24627768342E+02  0.11395940623E+02  0.16742916576E+02  0.59301957730E+02  0.50000024990E+02 0.  0.
         12    1    1    2    0    0  0.24627768342E+02 -0.11395940623E+02 -0.16742916576E+02  0.31886042270E+02  0.00000000000E+00 0. -1.
         11    1    3    3    0    0 -0.20134272370E+02  0.17863878648E+02  0.16026518998E+02  0.31326608429E+02  0.51100000000E-03 0. -1.
        -11    1    3    3    0    0 -0.15095548043E+02 -0.79942324815E+01 -0.10739932847E+01  0.17115396155E+02  0.51100000000E-03 0.  1.
         12    1    3    3    0    0  0.10602052071E+02  0.15262944559E+01  0.17903908629E+01  0.10859953146E+02  0.00000000000E+00 0. -1.
</event>
<event>
 7    1  0.6593656E-013  0.5930195E+02  0.7816164E-02  0.1266605E+00
        -11   -1    0    0    0    0  0.00000000000E+00  0.00000000000E+00  0.45593999997E+02  0.45594000000E+02  0.51100000000E-03 0.  1.
         11   -1    0    0    0    0 -0.00000000000E+00 -0.00000000000E+00 -0.45593999997E+02  0.45594000000E+02  0.51100000000E-03 0. -1.
    9900012    2    1    2    0    0  0.74620257073E+01  0.27847570002E+02  0.13621712137E+02  0.59301952515E+02  0.50000015479E+02 0.  0.
         12    1    1    2    0    0 -0.74620257073E+01 -0.27847570002E+02 -0.13621712137E+02  0.31886047485E+02  0.00000000000E+00 0. -1.
         11    1    3    3    0    0  0.76134052046E+01 -0.78748224561E+01  0.11258325756E+02  0.15707535345E+02  0.51100000000E-03 0. -1.
        -11    1    3    3    0    0 -0.40367033633E+01 -0.79408464023E-01 -0.54124568279E+01  0.67524787243E+01  0.51100000000E-03 0.  1.
        -12    1    3    3    0    0  0.38853238659E+01  0.35801800922E+02  0.77758432088E+01  0.36841938445E+02  0.00000000000E+00 0.  1.
</event>
<event>
 7    1  0.6593656E-013  0.5930193E+02  0.7816164E-02  0.1266605E+00
        -11   -1    0    0    0    0  0.00000000000E+00  0.00000000000E+00  0.45593999997E+02  0.45594000000E+02  0.51100000000E-03 0.  1.
         11   -1    0    0    0    0 -0.00000000000E+00 -0.00000000000E+00 -0.45593999997E+02  0.45594000000E+02  0.51100000000E-03 0. -1.
    9900012    2    1    2    0    0  0.15926952411E+02  0.15682573530E+01  0.27578872516E+02  0.59301930103E+02  0.49999974604E+02 0.  0.
         12    1    1    2    0    0 -0.15926952411E+02 -0.15682573530E+01 -0.27578872516E+02  0.31886069897E+02  0.00000000000E+00 0. -1.
         11    1    3    3    0    0 -0.27636604734E+01  0.86376320932E+00  0.88207553266E+01  0.92838370778E+01  0.51100000000E-03 0. -1.
        -11    1    3    3    0    0 -0.40097068528E+01 -0.53311073911E+01  0.24868251547E+02  0.25747395797E+02  0.51100000000E-03 0.  1.
         12    1    3    3    0    0  0.22700319738E+02  0.60356015347E+01 -0.61101343575E+01  0.24270697228E+02  0.00000000000E+00 0. -1.
</event>
<event>
 7    1  0.6593656E-013  0.5930196E+02  0.7816164E-02  0.1266605E+00
        -11   -1    0    0    0    0  0.00000000000E+00  0.00000000000E+00  0.45593999997E+02  0.45594000000E+02  0.51100000000E-03 0.  1.
         11   -1    0    0    0    0 -0.00000000000E+00 -0.00000000000E+00 -0.45593999997E+02  0.45594000000E+02  0.51100000000E-03 0. -1.
    9900012    2    1    2    0    0 -0.21264019970E+02  0.19465663537E+02  0.13625311510E+02  0.59301957349E+02  0.50000024295E+02 0.  0.
         12    1    1    2    0    0  0.21264019970E+02 -0.19465663537E+02 -0.13625311510E+02  0.31886042651E+02  0.00000000000E+00 0. -1.
         11    1    3    3    0    0 -0.41743911223E+01 -0.17221768307E+01 -0.30202212268E+01  0.54326025806E+01  0.51100000000E-03 0. -1.
        -11    1    3    3    0    0 -0.12277870496E+02 -0.12312520678E+02  0.58023888867E+01  0.18330629733E+02  0.51100000000E-03 0.  1.
         12    1    3    3    0    0 -0.48117583512E+01  0.33500361045E+02  0.10843143850E+02  0.35538725035E+02  0.00000000000E+00 0. -1.
</event>
<event>
 7    1  0.6593656E-013  0.5930200E+02  0.7816164E-02  0.1266605E+00
        -11   -1    0    0    0    0  0.00000000000E+00  0.00000000000E+00  0.45593999997E+02  0.45594000000E+02  0.51100000000E-03 0.  1.
         11   -1    0    0    0    0 -0.00000000000E+00 -0.00000000000E+00 -0.45593999997E+02  0.45594000000E+02  0.51100000000E-03 0. -1.
    9900012    2    1    2    0    0 -0.28832022535E+01 -0.31437230571E+02  0.44838314845E+01  0.59301998903E+02  0.50000100079E+02 0.  0.
         12    1    1    2    0    0  0.28832022535E+01  0.31437230571E+02 -0.44838314845E+01  0.31886001097E+02  0.00000000000E+00 0. -1.
         11    1    3    3    0    0  0.49150127086E+01 -0.17384505495E+02 -0.97446749061E+01  0.20526496791E+02  0.51100000000E-03 0. -1.
        -11    1    3    3    0    0 -0.38390925717E+01 -0.22581650088E+02  0.15057829764E+01  0.22955106950E+02  0.51100000000E-03 0.  1.
        -12    1    3    3    0    0 -0.39591223904E+01  0.85289250125E+01  0.12722723414E+02  0.15820395161E+02  0.00000000000E+00 0.  1.
</event>
<event>
 7    1  0.6593656E-013  0.5930196E+02  0.7816164E-02  0.1266605E+00
        -11   -1    0    0    0    0  0.00000000000E+00  0.00000000000E+00  0.45593999997E+02  0.45594000000E+02  0.51100000000E-03 0. -1.
         11   -1    0    0    0    0 -0.00000000000E+00 -0.00000000000E+00 -0.45593999997E+02  0.45594000000E+02  0.51100000000E-03 0.  1.
    9900012    2    1    2    0    0  0.27424570674E+02  0.16266301811E+02  0.14110714702E+00  0.59301959755E+02  0.50000028684E+02 0.  0.
         12    1    1    2    0    0 -0.27424570674E+02 -0.16266301811E+02 -0.14110714702E+00  0.31886040245E+02  0.00000000000E+00 0. -1.
         11    1    3    3    0    0  0.51777402679E+01  0.26559797090E+02  0.73742086328E+01  0.28046582126E+02  0.51100000000E-03 0.  1.
        -11    1    3    3    0    0 -0.13798159662E+01  0.16154348558E+01  0.23009325059E+01  0.31317427308E+01  0.51100000000E-03 0. -1.
        -12    1    3    3    0    0  0.23626646372E+02 -0.11908930135E+02 -0.95340339916E+01  0.28123634899E+02  0.00000000000E+00 0.  1.
</event>
<event>
 7    1  0.6593656E-013  0.5930195E+02  0.7816164E-02  0.1266605E+00
        -11   -1    0    0    0    0  0.00000000000E+00  0.00000000000E+00  0.45593999997E+02  0.45594000000E+02  0.51100000000E-03 0.  1.
         11   -1    0    0    0    0 -0.00000000000E+00 -0.00000000000E+00 -0.45593999997E+02  0.45594000000E+02  0.51100000000E-03 0. -1.
    9900012    2    1    2    0    0  0.23925791794E+02  0.14049148639E+02  0.15712986087E+02  0.59301952546E+02  0.50000015536E+02 0.  0.
         12    1    1    2    0    0 -0.23925791794E+02 -0.14049148639E+02 -0.15712986087E+02  0.31886047454E+02  0.00000000000E+00 0. -1.
         11    1    3    3    0    0 -0.29688986345E+01 -0.58237414303E+01  0.13414028180E+02  0.14922013122E+02  0.51100000000E-03 0. -1.
        -11    1    3    3    0    0  0.15818137457E+02  0.79700427634E+01  0.15421844014E+02  0.23485491848E+02  0.51100000000E-03 0.  1.
         12    1    3    3    0    0  0.11076552971E+02  0.11902847306E+02 -0.13122886108E+02  0.20894447576E+02  0.00000000000E+00 0. -1.
</event>
<event>
 7    1  0.6593656E-013  0.5930197E+02  0.7816164E-02  0.1266605E+00
        -11   -1    0    0    0    0  0.00000000000E+00  0.00000000000E+00  0.45593999997E+02  0.45594000000E+02  0.51100000000E-03 0. -1.
         11   -1    0    0    0    0 -0.00000000000E+00 -0.00000000000E+00 -0.45593999997E+02  0.45594000000E+02  0.51100000000E-03 0.  1.
    9900012    2    1    2    0    0  0.38732898519E+01 -0.34572825214E+01 -0.31460515309E+02  0.59301965436E+02  0.50000039043E+02 0.  0.
         12    1    1    2    0    0 -0.38732898519E+01  0.34572825214E+01  0.31460515309E+02  0.31886034564E+02  0.00000000000E+00 0. -1.
         11    1    3    3    0    0 -0.24876667332E+01 -0.15947973336E+02 -0.24470862690E+02  0.29314662890E+02  0.51100000000E-03 0. -1.
        -11    1    3    3    0    0 -0.19316483123E+01  0.63610149354E+01 -0.15339797736E+02  0.16718348335E+02  0.51100000000E-03 0.  1.
         12    1    3    3    0    0  0.82926048975E+01  0.61296758790E+01  0.83501451170E+01  0.13268954211E+02  0.00000000000E+00 0. -1.
</event>
<event>
 7    1  0.6593656E-013  0.5930220E+02  0.7816164E-02  0.1266604E+00
        -11   -1    0    0    0    0  0.00000000000E+00  0.00000000000E+00  0.45593999997E+02  0.45594000000E+02  0.51100000000E-03 0. -1.
         11   -1    0    0    0    0 -0.00000000000E+00 -0.00000000000E+00 -0.45593999997E+02  0.45594000000E+02  0.51100000000E-03 0.  1.
    9900012    2    1    2    0    0  0.13323933936E+02 -0.28343830340E+02  0.59836688187E+01  0.59302200239E+02  0.50000467266E+02 0.  0.
         12    1    1    2    0    0 -0.13323933936E+02  0.28343830340E+02 -0.59836688187E+01  0.31885799761E+02  0.00000000000E+00 0. -1.
         11    1    3    3    0    0  0.16632073249E+02 -0.92600299746E+01 -0.68763589365E+01  0.20240017988E+02  0.51100000000E-03 0. -1.
        -11    1    3    3    0    0  0.31633011237E+01  0.19598054537E+01 -0.79435061926E+01  0.87719212439E+01  0.51100000000E-03 0.  1.
         12    1    3    3    0    0 -0.64714404364E+01 -0.21043605819E+02  0.20803533948E+02  0.30290261007E+02  0.00000000000E+00 0. -1.
</event>
<event>
 7    1  0.6593656E-013  0.5930196E+02  0.7816164E-02  0.1266605E+00
        -11   -1    0    0    0    0  0.00000000000E+00  0.00000000000E+00  0.45593999997E+02  0.45594000000E+02  0.51100000000E-03 0.  1.
         11   -1    0    0    0    0 -0.00000000000E+00 -0.00000000000E+00 -0.45593999997E+02  0.45594000000E+02  0.51100000000E-03 0. -1.
    9900012    2    1    2    0    0  0.10485518864E+02 -0.15273812229E+02  0.25951573608E+02  0.59301958876E+02  0.50000027079E+02 0.  0.
         12    1    1    2    0    0 -0.10485518864E+02  0.15273812229E+02 -0.25951573608E+02  0.31886041124E+02  0.00000000000E+00 0. -1.
         11    1    3    3    0    0 -0.11396779442E+01 -0.10982441115E+02  0.16502536855E+02  0.19855644074E+02  0.51100000000E-03 0.  1.
        -11    1    3    3    0    0 -0.53585468890E+01 -0.92691680264E+01  0.17091867655E+02  0.20168377249E+02  0.51100000000E-03 0. -1.
         12    1    3    3    0    0  0.16983743697E+02  0.49777969131E+01 -0.76428309027E+01  0.19277937552E+02  0.00000000000E+00 0. -1.
</event>
<event>
 7    1  0.6593656E-013  0.5930194E+02  0.7816164E-02  0.1266605E+00
        -11   -1    0    0    0    0  0.00000000000E+00  0.00000000000E+00  0.45593999997E+02  0.45594000000E+02  0.51100000000E-03 0.  1.
         11   -1    0    0    0    0 -0.00000000000E+00 -0.00000000000E+00 -0.45593999997E+02  0.45594000000E+02  0.51100000000E-03 0. -1.
    9900012    2    1    2    0    0  0.44086076876E+01  0.65288190290E+01  0.30897566960E+02  0.59301938096E+02  0.49999989182E+02 0.  0.
         12    1    1    2    0    0 -0.44086076876E+01 -0.65288190290E+01 -0.30897566960E+02  0.31886061904E+02  0.00000000000E+00 0. -1.
         11    1    3    3    0    0  0.60076090977E+01  0.15635061918E+01  0.94743824878E+01  0.11326952038E+02  0.51100000000E-03 0. -1.
        -11    1    3    3    0    0  0.81496762086E+01  0.18780501021E+02  0.23237531470E+02  0.30969457696E+02  0.51100000000E-03 0.  1.
         12    1    3    3    0    0 -0.97486776187E+01 -0.13815188183E+02 -0.18143469976E+01  0.17005528362E+02  0.00000000000E+00 0. -1.
</event>
<event>
 7    1  0.6593656E-013  0.5930193E+02  0.7816164E-02  0.1266605E+00
        -11   -1    0    0    0    0  0.00000000000E+00  0.00000000000E+00  0.45593999997E+02  0.45594000000E+02  0.51100000000E-03 0.  1.
         11   -1    0    0    0    0 -0.00000000000E+00 -0.00000000000E+00 -0.45593999997E+02  0.45594000000E+02  0.51100000000E-03 0. -1.
    9900012    2    1    2    0    0  0.23994443019E+02 -0.37593933086E+01  0.20660466766E+02  0.59301933751E+02  0.49999981258E+02 0.  0.
         12    1    1    2    0    0 -0.23994443019E+02  0.37593933086E+01 -0.20660466766E+02  0.31886066249E+02  0.00000000000E+00 0. -1.
         11    1    3    3    0    0  0.27436318800E+02 -0.15754191535E+02  0.21063762667E+02  0.38008265392E+02  0.51100000000E-03 0.  1.
        -11    1    3    3    0    0 -0.22442905769E+01  0.92375156026E-01  0.69146423904E+01  0.72703268847E+01  0.51100000000E-03 0. -1.
        -12    1    3    3    0    0 -0.11975852041E+01  0.11902423070E+02 -0.73179382910E+01  0.14023341474E+02  0.00000000000E+00 0.  1.
</event>
<event>
 7    1  0.6593656E-013  0.5930193E+02  0.7816164E-02  0.1266605E+00
        -11   -1    0    0    0    0  0.00000000000E+00  0.00000000000E+00  0.45593999997E+02  0.45594000000E+02  0.51100000000E-03 0.  1.
         11   -1    0    0    0    0 -0.00000000000E+00 -0.00000000000E+00 -0.45593999997E+02  0.45594000000E+02  0.51100000000E-03 0. -1.
    9900012    2    1    2    0    0 -0.24534711472E+02  0.10648688327E+02  0.17360144421E+02  0.59301933381E+02  0.49999980583E+02 0.  0.
         12    1    1    2    0    0  0.24534711472E+02 -0.10648688327E+02 -0.17360144421E+02  0.31886066619E+02  0.00000000000E+00 0. -1.
         11    1    3    3    0    0  0.78785333020E+01  0.15414191605E+02 -0.10779470772E+01  0.17344467705E+02  0.51100000000E-03 0.  1.
        -11    1    3    3    0    0 -0.71176352402E+01  0.11206229006E+01  0.13810342255E+02  0.15576972766E+02  0.51100000000E-03 0. -1.
        -12    1    3    3    0    0 -0.25295609534E+02 -0.58861261784E+01  0.46277492432E+01  0.26380492910E+02  0.00000000000E+00 0.  1.
</event>
<event>
 7    1  0.6593656E-013  0.5930205E+02  0.7816164E-02  0.1266604E+00
        -11   -1    0    0    0    0  0.00000000000E+00  0.00000000000E+00  0.45593999997E+02  0.45594000000E+02  0.51100000000E-03 0. -1.
         11   -1    0    0    0    0 -0.00000000000E+00 -0.00000000000E+00 -0.45593999997E+02  0.45594000000E+02  0.51100000000E-03 0.  1.
    9900012    2    1    2    0    0 -0.26190522745E+02 -0.89365609662E+01 -0.15840077776E+02  0.59302052194E+02  0.50000197268E+02 0.  0.
         12    1    1    2    0    0  0.26190522745E+02  0.89365609662E+01  0.15840077776E+02  0.31885947806E+02  0.00000000000E+00 0. -1.
         11    1    3    3    0    0 -0.14644192028E+01 -0.52733400659E+01 -0.11582329029E+02  0.12810268734E+02  0.51100000000E-03 0.  1.
        -11    1    3    3    0    0  0.79536806761E+01 -0.15256118369E+01  0.81320326686E+01  0.11476867315E+02  0.51100000000E-03 0. -1.
        -12    1    3    3    0    0 -0.32679784219E+02 -0.21376090635E+01 -0.12389781416E+02  0.35014916144E+02  0.00000000000E+00 0.  1.
</event>
<event>
 7    1  0.6593656E-013  0.5930195E+02  0.7816164E-02  0.1266605E+00
        -11   -1    0    0    0    0  0.00000000000E+00  0.00000000000E+00  0.45593999997E+02  0.45594000000E+02  0.51100000000E-03 0.  1.
         11   -1    0    0    0    0 -0.00000000000E+00 -0.00000000000E+00 -0.45593999997E+02  0.45594000000E+02  0.51100000000E-03 0. -1.
    9900012    2    1    2    0    0  0.16873798989E+02  0.13587621117E+02  0.23395976028E+02  0.59301949222E+02  0.50000009473E+02 0.  0.
         12    1    1    2    0    0 -0.16873798989E+02 -0.13587621117E+02 -0.23395976028E+02  0.31886050778E+02  0.00000000000E+00 0. -1.
         11    1    3    3    0    0  0.89468019941E+01  0.85333364778E+01  0.15846579935E+02  0.20099183895E+02  0.51100000000E-03 0. -1.
        -11    1    3    3    0    0  0.16987527460E+02  0.41189792803E+01  0.18168810111E+02  0.25212055462E+02  0.51100000000E-03 0.  1.
         12    1    3    3    0    0 -0.90605304655E+01  0.93530535880E+00 -0.10619414018E+02  0.13990709864E+02  0.00000000000E+00 0. -1.
</event>
<event>
 7    1  0.6593656E-013  0.5930194E+02  0.7816164E-02  0.1266605E+00
        -11   -1    0    0    0    0  0.00000000000E+00  0.00000000000E+00  0.45593999997E+02  0.45594000000E+02  0.51100000000E-03 0.  1.
         11   -1    0    0    0    0 -0.00000000000E+00 -0.00000000000E+00 -0.45593999997E+02  0.45594000000E+02  0.51100000000E-03 0. -1.
    9900012    2    1    2    0    0  0.27692752803E+02 -0.14487847291E+02  0.63193835363E+01  0.59301939014E+02  0.49999990856E+02 0.  0.
         12    1    1    2    0    0 -0.27692752803E+02  0.14487847291E+02 -0.63193835363E+01  0.31886060986E+02  0.00000000000E+00 0. -1.
         11    1    3    3    0    0 -0.32603902160E+01 -0.32235340274E+01  0.59548602622E+00  0.46234099813E+01  0.51100000000E-03 0. -1.
        -11    1    3    3    0    0  0.15266126964E+02  0.13187563236E+02  0.13900174296E+02  0.24498597967E+02  0.51100000000E-03 0.  1.
         12    1    3    3    0    0  0.15687016054E+02 -0.24451876500E+02 -0.81762767860E+01  0.30179931066E+02  0.00000000000E+00 0. -1.
</event>
<event>
 7    1  0.6593656E-013  0.5930196E+02  0.7816164E-02  0.1266605E+00
        -11   -1    0    0    0    0  0.00000000000E+00  0.00000000000E+00  0.45593999997E+02  0.45594000000E+02  0.51100000000E-03 0. -1.
         11   -1    0    0    0    0 -0.00000000000E+00 -0.00000000000E+00 -0.45593999997E+02  0.45594000000E+02  0.51100000000E-03 0.  1.
    9900012    2    1    2    0    0 -0.73913161433E+01 -0.24543445016E+02 -0.18965959273E+02  0.59301955110E+02  0.50000020212E+02 0.  0.
         12    1    1    2    0    0  0.73913161433E+01  0.24543445016E+02  0.18965959273E+02  0.31886044890E+02  0.00000000000E+00 0. -1.
         11    1    3    3    0    0  0.40796580677E+01  0.38347228229E+00 -0.82739547762E+01  0.92330378987E+01  0.51100000000E-03 0. -1.
        -11    1    3    3    0    0  0.90753123816E+01 -0.26304840714E+02 -0.26144924942E+01  0.27948908942E+02  0.51100000000E-03 0.  1.
        -12    1    3    3    0    0 -0.20546286592E+02  0.13779234154E+01 -0.80775120025E+01  0.22120008269E+02  0.00000000000E+00 0.  1.
</event>
<event>
 7    1  0.6593656E-013  0.5930195E+02  0.7816164E-02  0.1266605E+00
        -11   -1    0    0    0    0  0.00000000000E+00  0.00000000000E+00  0.45593999997E+02  0.45594000000E+02  0.51100000000E-03 0. -1.
         11   -1    0    0    0    0 -0.00000000000E+00 -0.00000000000E+00 -0.45593999997E+02  0.45594000000E+02  0.51100000000E-03 0.  1.
    9900012    2    1    2    0    0 -0.27310052579E+02 -0.86848779620E+01  0.13980488393E+02  0.59301950812E+02  0.50000012373E+02 0.  0.
         12    1    1    2    0    0  0.27310052579E+02  0.86848779620E+01 -0.13980488393E+02  0.31886049188E+02  0.00000000000E+00 0. -1.
         11    1    3    3    0    0  0.95499524324E+00  0.92185665335E+00  0.10733673325E+02  0.10815432442E+02  0.51100000000E-03 0. -1.
        -11    1    3    3    0    0 -0.17721356192E+02  0.59053540519E+01  0.16977239744E+02  0.25241757889E+02  0.51100000000E-03 0.  1.
        -12    1    3    3    0    0 -0.10543691631E+02 -0.15512088667E+02 -0.13730424676E+02  0.23244760480E+02  0.00000000000E+00 0.  1.
</event>
<event>
 7    1  0.6593656E-013  0.5930195E+02  0.7816164E-02  0.1266605E+00
        -11   -1    0    0    0    0  0.00000000000E+00  0.00000000000E+00  0.45593999997E+02  0.45594000000E+02  0.51100000000E-03 0. -1.
         11   -1    0    0    0    0 -0.00000000000E+00 -0.00000000000E+00 -0.45593999997E+02  0.45594000000E+02  0.51100000000E-03 0.  1.
    9900012    2    1    2    0    0 -0.26127824999E+02 -0.87616561055E+01 -0.16040270545E+02  0.59301950762E+02  0.50000012281E+02 0.  0.
         12    1    1    2    0    0  0.26127824999E+02  0.87616561055E+01  0.16040270545E+02  0.31886049238E+02  0.00000000000E+00 0. -1.
         11    1    3    3    0    0 -0.27412496700E+01 -0.16776491276E+02 -0.10697441800E+02  0.20084829365E+02  0.51100000000E-03 0. -1.
        -11    1    3    3    0    0 -0.11381421020E+02 -0.20061958416E+01  0.11451447410E+02  0.16269517947E+02  0.51100000000E-03 0.  1.
        -12    1    3    3    0    0 -0.12005154309E+02  0.10021031012E+02 -0.16794276155E+02  0.22947603450E+02  0.00000000000E+00 0.  1.
</event>
<event>
 7    1  0.6593656E-013  0.5930193E+02  0.7816164E-02  0.1266605E+00
        -11   -1    0    0    0    0  0.00000000000E+00  0.00000000000E+00  0.45593999997E+02  0.45594000000E+02  0.51100000000E-03 0.  1.
         11   -1    0    0    0    0 -0.00000000000E+00 -0.00000000000E+00 -0.45593999997E+02  0.45594000000E+02  0.51100000000E-03 0. -1.
    9900012    2    1    2    0    0 -0.11035432801E+02  0.18804791145E+02  0.23266293559E+02  0.59301931521E+02  0.49999977190E+02 0.  0.
         12    1    1    2    0    0  0.11035432801E+02 -0.18804791145E+02 -0.23266293559E+02  0.31886068479E+02  0.00000000000E+00 0. -1.
         11    1    3    3    0    0 -0.54307404283E+01 -0.78018422056E+01  0.53811617686E+01  0.10923304703E+02  0.51100000000E-03 0. -1.
        -11    1    3    3    0    0  0.12477498902E+02  0.19101341607E+01  0.11574816453E+02  0.17126382208E+02  0.51100000000E-03 0.  1.
        -12    1    3    3    0    0 -0.18082191274E+02  0.24696499190E+02  0.63103153373E+01  0.31252244610E+02  0.00000000000E+00 0.  1.
</event>
<event>
 7    1  0.6593656E-013  0.5930197E+02  0.7816164E-02  0.1266605E+00
        -11   -1    0    0    0    0  0.00000000000E+00  0.00000000000E+00  0.45593999997E+02  0.45594000000E+02  0.51100000000E-03 0.  1.
         11   -1    0    0    0    0 -0.00000000000E+00 -0.00000000000E+00 -0.45593999997E+02  0.45594000000E+02  0.51100000000E-03 0. -1.
    9900012    2    1    2    0    0  0.20708219223E+02  0.24012909562E+02 -0.33568928721E+01  0.59301970163E+02  0.50000047664E+02 0.  0.
         12    1    1    2    0    0 -0.20708219223E+02 -0.24012909562E+02  0.33568928721E+01  0.31886029837E+02  0.00000000000E+00 0. -1.
         11    1    3    3    0    0 -0.57366885692E+01  0.15865889939E+02  0.53713157392E+01  0.17705566705E+02  0.51100000000E-03 0. -1.
        -11    1    3    3    0    0  0.14650514475E+02 -0.10446525035E+02 -0.23130325142E+00  0.17995026011E+02  0.51100000000E-03 0.  1.
         12    1    3    3    0    0  0.11794393317E+02  0.18593544658E+02 -0.84969053599E+01  0.23601377447E+02  0.00000000000E+00 0. -1.
</event>
<event>
 7    1  0.6593656E-013  0.5930194E+02  0.7816164E-02  0.1266605E+00
        -11   -1    0    0    0    0  0.00000000000E+00  0.00000000000E+00  0.45593999997E+02  0.45594000000E+02  0.51100000000E-03 0. -1.
         11   -1    0    0    0    0 -0.00000000000E+00 -0.00000000000E+00 -0.45593999997E+02  0.45594000000E+02  0.51100000000E-03 0.  1.
    9900012    2    1    2    0    0  0.30835558512E+02 -0.50409177279E+01  0.63622316786E+01  0.59301944863E+02  0.50000001523E+02 0.  0.
         12    1    1    2    0    0 -0.30835558512E+02  0.50409177279E+01 -0.63622316786E+01  0.31886055137E+02  0.00000000000E+00 0. -1.
         11    1    3    3    0    0 -0.35433623932E+01 -0.26283848437E+01 -0.23377599354E+01  0.49928895154E+01  0.51100000000E-03 0. -1.
        -11    1    3    3    0    0 -0.16396803516E+01 -0.48771177529E+01 -0.11742535628E+02  0.12820373335E+02  0.51100000000E-03 0.  1.
         12    1    3    3    0    0  0.36018601257E+02  0.24645848688E+01  0.20442527242E+02  0.41488682012E+02  0.00000000000E+00 0. -1.
</event>
<event>
 7    1  0.6593656E-013  0.5930196E+02  0.7816164E-02  0.1266605E+00
        -11   -1    0    0    0    0  0.00000000000E+00  0.00000000000E+00  0.45593999997E+02  0.45594000000E+02  0.51100000000E-03 0.  1.
         11   -1    0    0    0    0 -0.00000000000E+00 -0.00000000000E+00 -0.45593999997E+02  0.45594000000E+02  0.51100000000E-03 0. -1.
    9900012    2    1    2    0    0  0.31430513396E+02 -0.53155412837E+01  0.76661003125E+00  0.59301955366E+02  0.50000020678E+02 0.  0.
         12    1    1    2    0    0 -0.31430513396E+02  0.53155412837E+01 -0.76661003125E+00  0.31886044634E+02  0.00000000000E+00 0. -1.
         11    1    3    3    0    0  0.35109216235E+01 -0.63913746232E+01  0.58513219387E+00  0.73156421568E+01  0.51100000000E-03 0. -1.
        -11    1    3    3    0    0 -0.99135137738E+00  0.18213568298E+01  0.17932892931E+02  0.18052389520E+02  0.51100000000E-03 0.  1.
         12    1    3    3    0    0  0.28910943150E+02 -0.74552349030E+00 -0.17751415094E+02  0.33933923689E+02  0.00000000000E+00 0. -1.
</event>
<event>
 7    1  0.6593656E-013  0.5930184E+02  0.7816164E-02  0.1266605E+00
        -11   -1    0    0    0    0  0.00000000000E+00  0.00000000000E+00  0.45593999997E+02  0.45594000000E+02  0.51100000000E-03 0. -1.
         11   -1    0    0    0    0 -0.00000000000E+00 -0.00000000000E+00 -0.45593999997E+02  0.45594000000E+02  0.51100000000E-03 0.  1.
    9900012    2    1    2    0    0  0.26551668917E+01 -0.30477223798E+02 -0.89897649657E+01  0.59301843823E+02  0.49999817250E+02 0.  0.
         12    1    1    2    0    0 -0.26551668917E+01  0.30477223798E+02  0.89897649657E+01  0.31886156177E+02  0.00000000000E+00 0. -1.
         11    1    3    3    0    0 -0.12342773496E+02  0.63409395163E+01 -0.30506008782E+01  0.14207664745E+02  0.51100000000E-03 0. -1.
        -11    1    3    3    0    0 -0.89357564554E+00 -0.24405947976E+02 -0.16452547818E+01  0.24477655884E+02  0.51100000000E-03 0.  1.
         12    1    3    3    0    0  0.15891516034E+02 -0.12412215338E+02 -0.42939093058E+01  0.20616523193E+02  0.00000000000E+00 0. -1.
</event>
<event>
 7    1  0.6593656E-013  0.5930194E+02  0.7816164E-02  0.1266605E+00
        -11   -1    0    0    0    0  0.00000000000E+00  0.00000000000E+00  0.45593999997E+02  0.45594000000E+02  0.51100000000E-03 0. -1.
         11   -1    0    0    0    0 -0.00000000000E+00 -0.00000000000E+00 -0.45593999997E+02  0.45594000000E+02  0.51100000000E-03 0.  1.
    9900012    2    1    2    0    0  0.31018936192E+02 -0.66793541870E+00 -0.73552911834E+01  0.59301939588E+02  0.49999991903E+02 0.  0.
         12    1    1    2    0    0 -0.31018936192E+02  0.66793541870E+00  0.73552911834E+01  0.31886060412E+02  0.00000000000E+00 0. -1.
         11    1    3    3    0    0  0.33992029735E+02  0.39774391002E+01 -0.13543408098E+01  0.34250727680E+02  0.51100000000E-03 0. -1.
        -11    1    3    3    0    0  0.42404551623E+01 -0.92182437438E+01 -0.11151978002E+02  0.15077270686E+02  0.51100000000E-03 0.  1.
         12    1    3    3    0    0 -0.72135487056E+01  0.45728692249E+01  0.51510276286E+01  0.99739412224E+01  0.00000000000E+00 0. -1.
</event>
<event>
 7    1  0.6593656E-013  0.5930196E+02  0.7816164E-02  0.1266605E+00
        -11   -1    0    0    0    0  0.00000000000E+00  0.00000000000E+00  0.45593999997E+02  0.45594000000E+02  0.51100000000E-03 0.  1.
         11   -1    0    0    0    0 -0.00000000000E+00 -0.00000000000E+00 -0.45593999997E+02  0.45594000000E+02  0.51100000000E-03 0. -1.
    9900012    2    1    2    0    0  0.57853928175E+01 -0.18639907333E+02  0.25215123127E+02  0.59301963091E+02  0.50000034767E+02 0.  0.
         12    1    1    2    0    0 -0.57853928175E+01  0.18639907333E+02 -0.25215123127E+02  0.31886036909E+02  0.00000000000E+00 0. -1.
         11    1    3    3    0    0 -0.10900911915E+01  0.51460375217E+01 -0.44172671675E+01  0.68689337215E+01  0.51100000000E-03 0. -1.
        -11    1    3    3    0    0  0.12157440370E+01  0.57535335711E+01  0.20007388068E+02  0.20853698944E+02  0.51100000000E-03 0.  1.
         12    1    3    3    0    0  0.56597399720E+01 -0.29539478426E+02  0.96250022273E+01  0.31579330425E+02  0.00000000000E+00 0. -1.
</event>
<event>
 7    1  0.6593656E-013  0.5930195E+02  0.7816164E-02  0.1266605E+00
        -11   -1    0    0    0    0  0.00000000000E+00  0.00000000000E+00  0.45593999997E+02  0.45594000000E+02  0.51100000000E-03 0.  1.
         11   -1    0    0    0    0 -0.00000000000E+00 -0.00000000000E+00 -0.45593999997E+02  0.45594000000E+02  0.51100000000E-03 0. -1.
    9900012    2    1    2    0    0 -0.11456530573E+02 -0.23645296541E+02  0.18065656446E+02  0.59301951576E+02  0.50000013766E+02 0.  0.
         12    1    1    2    0    0  0.11456530573E+02  0.23645296541E+02 -0.18065656446E+02  0.31886048424E+02  0.00000000000E+00 0. -1.
         11    1    3    3    0    0 -0.10367437361E+02 -0.88019419075E+01  0.52138937629E+01  0.14565116794E+02  0.51100000000E-03 0. -1.
        -11    1    3    3    0    0 -0.14404727186E+02 -0.23003562855E+02  0.95649494230E+01  0.28777566386E+02  0.51100000000E-03 0.  1.
         12    1    3    3    0    0  0.13315633974E+02  0.81602082215E+01  0.32868132598E+01  0.15959268397E+02  0.00000000000E+00 0. -1.
</event>
<event>
 7    1  0.6593656E-013  0.5930193E+02  0.7816164E-02  0.1266605E+00
        -11   -1    0    0    0    0  0.00000000000E+00  0.00000000000E+00  0.45593999997E+02  0.45594000000E+02  0.51100000000E-03 0.  1.
         11   -1    0    0    0    0 -0.00000000000E+00 -0.00000000000E+00 -0.45593999997E+02  0.45594000000E+02  0.51100000000E-03 0. -1.
    9900012    2    1    2    0    0  0.98244524799E+01 -0.15198911962E+02  0.26252514159E+02  0.59301932650E+02  0.49999979250E+02 0.  0.
         12    1    1    2    0    0 -0.98244524799E+01  0.15198911962E+02 -0.26252514159E+02  0.31886067350E+02  0.00000000000E+00 0. -1.
         11    1    3    3    0    0  0.19274085275E+02 -0.27815923706E+01  0.96786255255E+00  0.19497804428E+02  0.51100000000E-03 0. -1.
        -11    1    3    3    0    0  0.65365176576E+01 -0.38360461506E+01 -0.12277179356E+01  0.76777994730E+01  0.51100000000E-03 0.  1.
        -12    1    3    3    0    0 -0.15986150453E+02 -0.85812734404E+01  0.26512369542E+02  0.32126328750E+02  0.00000000000E+00 0.  1.
</event>
<event>
 7    1  0.6593656E-013  0.5930194E+02  0.7816164E-02  0.1266605E+00
        -11   -1    0    0    0    0  0.00000000000E+00  0.00000000000E+00  0.45593999997E+02  0.45594000000E+02  0.51100000000E-03 0.  1.
         11   -1    0    0    0    0 -0.00000000000E+00 -0.00000000000E+00 -0.45593999997E+02  0.45594000000E+02  0.51100000000E-03 0. -1.
    9900012    2    1    2    0    0  0.53196303716E+01  0.30611163497E+02  0.71678947983E+01  0.59301944839E+02  0.50000001479E+02 0.  0.
         12    1    1    2    0    0 -0.53196303716E+01 -0.30611163497E+02 -0.71678947983E+01  0.31886055161E+02  0.00000000000E+00 0. -1.
         11    1    3    3    0    0 -0.15391245206E+02  0.62481931950E+01 -0.25332285542E+01  0.16803201908E+02  0.51100000000E-03 0.  1.
        -11    1    3    3    0    0  0.92195801643E+01  0.11324724486E+02  0.18050357056E+02  0.23217782693E+02  0.51100000000E-03 0. -1.
         12    1    3    3    0    0  0.11491295414E+02  0.13038245816E+02 -0.83492337031E+01  0.19280960237E+02  0.00000000000E+00 0. -1.
</event>
<event>
 7    1  0.6593656E-013  0.5930196E+02  0.7816164E-02  0.1266605E+00
        -11   -1    0    0    0    0  0.00000000000E+00  0.00000000000E+00  0.45593999997E+02  0.45594000000E+02  0.51100000000E-03 0. -1.
         11   -1    0    0    0    0 -0.00000000000E+00 -0.00000000000E+00 -0.45593999997E+02  0.45594000000E+02  0.51100000000E-03 0.  1.
    9900012    2    1    2    0    0  0.11541680273E+02  0.25477541170E+02  0.15310261190E+02  0.59301959398E+02  0.50000028032E+02 0.  0.
         12    1    1    2    0    0 -0.11541680273E+02 -0.25477541170E+02 -0.15310261190E+02  0.31886040602E+02  0.00000000000E+00 0. -1.
         11    1    3    3    0    0  0.25847934281E+02  0.67949745581E+01  0.13744744275E+02  0.30053375538E+02  0.51100000000E-03 0.  1.
        -11    1    3    3    0    0 -0.20239908652E+01 -0.26696466011E+01  0.31050347559E+01  0.45677995900E+01  0.51100000000E-03 0. -1.
        -12    1    3    3    0    0 -0.12282263143E+02  0.21352213213E+02 -0.15395178401E+01  0.24680784270E+02  0.00000000000E+00 0.  1.
</event>
<event>
 7    1  0.6593656E-013  0.5930216E+02  0.7816164E-02  0.1266604E+00
        -11   -1    0    0    0    0  0.00000000000E+00  0.00000000000E+00  0.45593999997E+02  0.45594000000E+02  0.51100000000E-03 0.  1.
         11   -1    0    0    0    0 -0.00000000000E+00 -0.00000000000E+00 -0.45593999997E+02  0.45594000000E+02  0.51100000000E-03 0. -1.
    9900012    2    1    2    0    0 -0.12502975357E+01 -0.11067703013E+02  0.29877240503E+02  0.59302159976E+02  0.50000393837E+02 0.  0.
         12    1    1    2    0    0  0.12502975357E+01  0.11067703013E+02 -0.29877240503E+02  0.31885840024E+02  0.00000000000E+00 0. -1.
         11    1    3    3    0    0  0.14520225221E+02  0.73440206977E+01  0.30642425963E+01  0.16557812761E+02  0.51100000000E-03 0. -1.
        -11    1    3    3    0    0 -0.15866673626E+01  0.46441456515E+01  0.92653330812E+01  0.10484846185E+02  0.51100000000E-03 0.  1.
        -12    1    3    3    0    0 -0.14183855394E+02 -0.23055869362E+02  0.17547664826E+02  0.32259501031E+02  0.00000000000E+00 0.  1.
</event>
<event>
 7    1  0.6593656E-013  0.5930194E+02  0.7816164E-02  0.1266605E+00
        -11   -1    0    0    0    0  0.00000000000E+00  0.00000000000E+00  0.45593999997E+02  0.45594000000E+02  0.51100000000E-03 0. -1.
         11   -1    0    0    0    0 -0.00000000000E+00 -0.00000000000E+00 -0.45593999997E+02  0.45594000000E+02  0.51100000000E-03 0.  1.
    9900012    2    1    2    0    0 -0.13434136971E+02  0.15015128203E+02 -0.24714182594E+02  0.59301938274E+02  0.49999989506E+02 0.  0.
         12    1    1    2    0    0  0.13434136971E+02 -0.15015128203E+02  0.24714182594E+02  0.31886061726E+02  0.00000000000E+00 0. -1.
         11    1    3    3    0    0  0.19366965668E+01  0.11369374362E+02  0.45229420820E+01  0.12388319995E+02  0.51100000000E-03 0. -1.
        -11    1    3    3    0    0 -0.33561238684E+01  0.17462318722E+02 -0.18626159630E+02  0.25751309974E+02  0.51100000000E-03 0.  1.
        -12    1    3    3    0    0 -0.12014709669E+02 -0.13816564881E+02 -0.10610965046E+02  0.21162308304E+02  0.00000000000E+00 0.  1.
</event>
<event>
 7    1  0.6593656E-013  0.5930194E+02  0.7816164E-02  0.1266605E+00
        -11   -1    0    0    0    0  0.00000000000E+00  0.00000000000E+00  0.45593999997E+02  0.45594000000E+02  0.51100000000E-03 0.  1.
         11   -1    0    0    0    0 -0.00000000000E+00 -0.00000000000E+00 -0.45593999997E+02  0.45594000000E+02  0.51100000000E-03 0. -1.
    9900012    2    1    2    0    0 -0.26820486650E+02  0.65964664488E+01  0.15933256959E+02  0.59301944254E+02  0.50000000412E+02 0.  0.
         12    1    1    2    0    0  0.26820486650E+02 -0.65964664488E+01 -0.15933256959E+02  0.31886055746E+02  0.00000000000E+00 0. -1.
         11    1    3    3    0    0 -0.19011852744E+02 -0.20377695507E+01  0.32152487718E+01  0.19389194786E+02  0.51100000000E-03 0. -1.
        -11    1    3    3    0    0 -0.13029544253E+02 -0.10746649677E+02  0.15943491376E+01  0.16964711968E+02  0.51100000000E-03 0.  1.
        -12    1    3    3    0    0  0.52209103473E+01  0.19380885676E+02  0.11123659050E+02  0.22948037500E+02  0.00000000000E+00 0.  1.
</event>
<event>
 7    1  0.6593656E-013  0.5930195E+02  0.7816164E-02  0.1266605E+00
        -11   -1    0    0    0    0  0.00000000000E+00  0.00000000000E+00  0.45593999997E+02  0.45594000000E+02  0.51100000000E-03 0.  1.
         11   -1    0    0    0    0 -0.00000000000E+00 -0.00000000000E+00 -0.45593999997E+02  0.45594000000E+02  0.51100000000E-03 0. -1.
    9900012    2    1    2    0    0  0.15757682283E+02  0.18194937875E+02  0.20913148898E+02  0.59301951138E+02  0.50000012968E+02 0.  0.
         12    1    1    2    0    0 -0.15757682283E+02 -0.18194937875E+02 -0.20913148898E+02  0.31886048862E+02  0.00000000000E+00 0. -1.
         11    1    3    3    0    0 -0.27768593657E+01  0.29366793919E+02  0.19122982767E+02  0.35154060977E+02  0.51100000000E-03 0. -1.
        -11    1    3    3    0    0  0.47080438520E+01  0.11643317301E+01  0.27827625107E+01  0.55915215051E+01  0.51100000000E-03 0.  1.
        -12    1    3    3    0    0  0.13826497797E+02 -0.12336187774E+02 -0.99259638021E+00  0.18556368656E+02  0.00000000000E+00 0.  1.
</event>
<event>
 7    1  0.6593656E-013  0.5930195E+02  0.7816164E-02  0.1266605E+00
        -11   -1    0    0    0    0  0.00000000000E+00  0.00000000000E+00  0.45593999997E+02  0.45594000000E+02  0.51100000000E-03 0.  1.
         11   -1    0    0    0    0 -0.00000000000E+00 -0.00000000000E+00 -0.45593999997E+02  0.45594000000E+02  0.51100000000E-03 0. -1.
    9900012    2    1    2    0    0 -0.79709272641E+01 -0.12519719398E+02  0.28221292895E+02  0.59301946185E+02  0.50000003934E+02 0.  0.
         12    1    1    2    0    0  0.79709272641E+01  0.12519719398E+02 -0.28221292895E+02  0.31886053815E+02  0.00000000000E+00 0. -1.
         11    1    3    3    0    0  0.79083907776E+01 -0.15369650778E+02  0.16875099021E+01  0.17367109709E+02  0.51100000000E-03 0. -1.
        -11    1    3    3    0    0 -0.17159150289E+02 -0.95963412404E+01  0.13383246743E+02  0.23783134728E+02  0.51100000000E-03 0.  1.
         12    1    3    3    0    0  0.12798322469E+01  0.12446272620E+02  0.13150536249E+02  0.18151701748E+02  0.00000000000E+00 0. -1.
</event>
<event>
 7    1  0.6593656E-013  0.5930198E+02  0.7816164E-02  0.1266605E+00
        -11   -1    0    0    0    0  0.00000000000E+00  0.00000000000E+00  0.45593999997E+02  0.45594000000E+02  0.51100000000E-03 0. -1.
         11   -1    0    0    0    0 -0.00000000000E+00 -0.00000000000E+00 -0.45593999997E+02  0.45594000000E+02  0.51100000000E-03 0.  1.
    9900012    2    1    2    0    0  0.16093543894E+02 -0.13746442136E+02 -0.23848512755E+02  0.59301978186E+02  0.50000062297E+02 0.  0.
         12    1    1    2    0    0 -0.16093543894E+02  0.13746442136E+02  0.23848512755E+02  0.31886021814E+02  0.00000000000E+00 0. -1.
         11    1    3    3    0    0  0.33851849641E+01 -0.12431705743E+02 -0.25272969527E+01  0.13129890140E+02  0.51100000000E-03 0. -1.
        -11    1    3    3    0    0  0.10026982391E+02 -0.18188132810E+02 -0.27712604947E+01  0.20953005417E+02  0.51100000000E-03 0.  1.
        -12    1    3    3    0    0  0.26813765389E+01  0.16873396417E+02 -0.18549955308E+02  0.25219082630E+02  0.00000000000E+00 0.  1.
</event>
<event>
 7    1  0.6593656E-013  0.5930201E+02  0.7816164E-02  0.1266605E+00
        -11   -1    0    0    0    0  0.00000000000E+00  0.00000000000E+00  0.45593999997E+02  0.45594000000E+02  0.51100000000E-03 0.  1.
         11   -1    0    0    0    0 -0.00000000000E+00 -0.00000000000E+00 -0.45593999997E+02  0.45594000000E+02  0.51100000000E-03 0. -1.
    9900012    2    1    2    0    0 -0.22594173980E+01 -0.21480837309E+02  0.23456016558E+02  0.59302014815E+02  0.50000129099E+02 0.  0.
         12    1    1    2    0    0  0.22594173980E+01  0.21480837309E+02 -0.23456016558E+02  0.31885985185E+02  0.00000000000E+00 0. -1.
         11    1    3    3    0    0  0.26978635880E+01 -0.25609444767E+02  0.21965911717E+02  0.33847059060E+02  0.51100000000E-03 0. -1.
        -11    1    3    3    0    0 -0.34025096676E+01  0.58716649967E+00  0.12927834679E+02  0.13380984504E+02  0.51100000000E-03 0.  1.
         12    1    3    3    0    0 -0.15547713185E+01  0.35414409577E+01 -0.11437729839E+02  0.12073971251E+02  0.00000000000E+00 0. -1.
</event>
<event>
 7    1  0.6593656E-013  0.5930194E+02  0.7816164E-02  0.1266605E+00
        -11   -1    0    0    0    0  0.00000000000E+00  0.00000000000E+00  0.45593999997E+02  0.45594000000E+02  0.51100000000E-03 0.  1.
         11   -1    0    0    0    0 -0.00000000000E+00 -0.00000000000E+00 -0.45593999997E+02  0.45594000000E+02  0.51100000000E-03 0. -1.
    9900012    2    1    2    0    0 -0.15004131448E+02 -0.12066654151E+02  0.25416386451E+02  0.59301940301E+02  0.49999993203E+02 0.  0.
         12    1    1    2    0    0  0.15004131448E+02  0.12066654151E+02 -0.25416386451E+02  0.31886059699E+02  0.00000000000E+00 0. -1.
         11    1    3    3    0    0  0.64066441971E+01 -0.95320421883E+01  0.89376124033E+01  0.14552863425E+02  0.51100000000E-03 0. -1.
        -11    1    3    3    0    0 -0.10674179144E+01 -0.13816554950E+02 -0.32654835485E+01  0.14237273432E+02  0.51100000000E-03 0.  1.
        -12    1    3    3    0    0 -0.20343357730E+02  0.11281942988E+02  0.19744257597E+02  0.30511803444E+02  0.00000000000E+00 0.  1.
</event>
<event>
 7    1  0.6593656E-013  0.5930194E+02  0.7816164E-02  0.1266605E+00
        -11   -1    0    0    0    0  0.00000000000E+00  0.00000000000E+00  0.45593999997E+02  0.45594000000E+02  0.51100000000E-03 0.  1.
         11   -1    0    0    0    0 -0.00000000000E+00 -0.00000000000E+00 -0.45593999997E+02  0.45594000000E+02  0.51100000000E-03 0. -1.
    9900012    2    1    2    0    0 -0.16855572432E+02 -0.58835621674E+01  0.26419580768E+02  0.59301939193E+02  0.49999991183E+02 0.  0.
         12    1    1    2    0    0  0.16855572432E+02  0.58835621674E+01 -0.26419580768E+02  0.31886060807E+02  0.00000000000E+00 0. -1.
         11    1    3    3    0    0  0.83596174431E+01  0.11424281666E+02 -0.88426785670E+00  0.14183770489E+02  0.51100000000E-03 0. -1.
        -11    1    3    3    0    0  0.12587372286E+01  0.62096820878E+00 -0.15209314991E+01  0.20696023321E+01  0.51100000000E-03 0.  1.
        -12    1    3    3    0    0 -0.26473927104E+02 -0.17928812042E+02  0.28824780124E+02  0.43048566373E+02  0.00000000000E+00 0.  1.
</event>
<event>
 7    1  0.6593656E-013  0.5930222E+02  0.7816164E-02  0.1266604E+00
        -11   -1    0    0    0    0  0.00000000000E+00  0.00000000000E+00  0.45593999997E+02  0.45594000000E+02  0.51100000000E-03 0.  1.
         11   -1    0    0    0    0 -0.00000000000E+00 -0.00000000000E+00 -0.45593999997E+02  0.45594000000E+02  0.51100000000E-03 0. -1.
    9900012    2    1    2    0    0  0.12189872600E+02 -0.25168090377E+02  0.15319171199E+02  0.59302223023E+02  0.50000508818E+02 0.  0.
         12    1    1    2    0    0 -0.12189872600E+02  0.25168090377E+02 -0.15319171199E+02  0.31885776977E+02  0.00000000000E+00 0. -1.
         11    1    3    3    0    0 -0.19645643294E+01 -0.16824386110E+02  0.20153932866E+02  0.26326801766E+02  0.51100000000E-03 0. -1.
        -11    1    3    3    0    0  0.60828360798E+00  0.19685468793E+01  0.10112429204E+02  0.10320194302E+02  0.51100000000E-03 0.  1.
         12    1    3    3    0    0  0.13546153321E+02 -0.10312251146E+02 -0.14947190871E+02  0.22655226956E+02  0.00000000000E+00 0. -1.
</event>
<event>
 7    1  0.6593656E-013  0.5930194E+02  0.7816164E-02  0.1266605E+00
        -11   -1    0    0    0    0  0.00000000000E+00  0.00000000000E+00  0.45593999997E+02  0.45594000000E+02  0.51100000000E-03 0.  1.
         11   -1    0    0    0    0 -0.00000000000E+00 -0.00000000000E+00 -0.45593999997E+02  0.45594000000E+02  0.51100000000E-03 0. -1.
    9900012    2    1    2    0    0  0.18541792994E+02  0.16884915805E+02  0.19693207793E+02  0.59301938745E+02  0.49999990366E+02 0.  0.
         12    1    1    2    0    0 -0.18541792994E+02 -0.16884915805E+02 -0.19693207793E+02  0.31886061255E+02  0.00000000000E+00 0. -1.
         11    1    3    3    0    0 -0.46188958736E+01  0.12877841828E+02  0.86533319508E+01  0.16188056194E+02  0.51100000000E-03 0. -1.
        -11    1    3    3    0    0 -0.72366188966E+01  0.54035142658E+01  0.87878318049E+01  0.12601293885E+02  0.51100000000E-03 0.  1.
         12    1    3    3    0    0  0.30397307764E+02 -0.13964402886E+01  0.22520440377E+01  0.30512588666E+02  0.00000000000E+00 0. -1.
</event>
<event>
 7    1  0.6593656E-013  0.5930195E+02  0.7816164E-02  0.1266605E+00
        -11   -1    0    0    0    0  0.00000000000E+00  0.00000000000E+00  0.45593999997E+02  0.45594000000E+02  0.51100000000E-03 0.  1.
         11   -1    0    0    0    0 -0.00000000000E+00 -0.00000000000E+00 -0.45593999997E+02  0.45594000000E+02  0.51100000000E-03 0. -1.
    9900012    2    1    2    0    0  0.31625742646E+02 -0.40474442780E+01  0.38841249774E+00  0.59301948702E+02  0.50000008526E+02 0.  0.
         12    1    1    2    0    0 -0.31625742646E+02  0.40474442780E+01 -0.38841249774E+00  0.31886051298E+02  0.00000000000E+00 0. -1.
         11    1    3    3    0    0  0.18708289280E+02  0.15590465137E+02  0.89606172695E+01  0.25949091565E+02  0.51100000000E-03 0. -1.
        -11    1    3    3    0    0  0.18146368743E+01  0.43289229765E+01  0.17280998760E+01  0.50018807028E+01  0.51100000000E-03 0.  1.
         12    1    3    3    0    0  0.11102816492E+02 -0.23966832392E+02 -0.10300304648E+02  0.28350976434E+02  0.00000000000E+00 0. -1.
</event>
<event>
 7    1  0.6593656E-013  0.5930199E+02  0.7816164E-02  0.1266605E+00
        -11   -1    0    0    0    0  0.00000000000E+00  0.00000000000E+00  0.45593999997E+02  0.45594000000E+02  0.51100000000E-03 0.  1.
         11   -1    0    0    0    0 -0.00000000000E+00 -0.00000000000E+00 -0.45593999997E+02  0.45594000000E+02  0.51100000000E-03 0. -1.
    9900012    2    1    2    0    0 -0.45476202478E+01  0.57490896753E+01  0.31031995402E+02  0.59301990205E+02  0.50000084217E+02 0.  0.
         12    1    1    2    0    0  0.45476202478E+01 -0.57490896753E+01 -0.31031995402E+02  0.31886009795E+02  0.00000000000E+00 0. -1.
         11    1    3    3    0    0 -0.10427964309E+01  0.14549345816E+01  0.54096635162E+00  0.18700010395E+01  0.51100000000E-03 0. -1.
        -11    1    3    3    0    0  0.11698144009E+00  0.23701844638E+02  0.29253530972E+02  0.37650500641E+02  0.51100000000E-03 0.  1.
         12    1    3    3    0    0 -0.36218052569E+01 -0.19407689544E+02  0.12374980779E+01  0.19781488525E+02  0.00000000000E+00 0. -1.
</event>
<event>
 7    1  0.6593656E-013  0.5930191E+02  0.7816164E-02  0.1266605E+00
        -11   -1    0    0    0    0  0.00000000000E+00  0.00000000000E+00  0.45593999997E+02  0.45594000000E+02  0.51100000000E-03 0.  1.
         11   -1    0    0    0    0 -0.00000000000E+00 -0.00000000000E+00 -0.45593999997E+02  0.45594000000E+02  0.51100000000E-03 0. -1.
    9900012    2    1    2    0    0 -0.14277781847E+02 -0.32473887949E+01  0.28325290759E+02  0.59301910791E+02  0.49999939385E+02 0.  0.
         12    1    1    2    0    0  0.14277781847E+02  0.32473887949E+01 -0.28325290759E+02  0.31886089209E+02  0.00000000000E+00 0. -1.
         11    1    3    3    0    0  0.21772652229E+01 -0.17695325173E+02  0.91081044186E+01  0.20020554018E+02  0.51100000000E-03 0. -1.
        -11    1    3    3    0    0 -0.17563439067E+02 -0.95819853740E+00  0.15381471947E+02  0.23366262342E+02  0.51100000000E-03 0.  1.
         12    1    3    3    0    0  0.11083919972E+01  0.15406134916E+02  0.38357143931E+01  0.15915094431E+02  0.00000000000E+00 0. -1.
</event>
<event>
 7    1  0.6593656E-013  0.5930194E+02  0.7816164E-02  0.1266605E+00
        -11   -1    0    0    0    0  0.00000000000E+00  0.00000000000E+00  0.45593999997E+02  0.45594000000E+02  0.51100000000E-03 0. -1.
         11   -1    0    0    0    0 -0.00000000000E+00 -0.00000000000E+00 -0.45593999997E+02  0.45594000000E+02  0.51100000000E-03 0.  1.
    9900012    2    1    2    0    0 -0.20398980404E+02 -0.13044144658E+02 -0.20747361746E+02  0.59301935163E+02  0.49999983833E+02 0.  0.
         12    1    1    2    0    0  0.20398980404E+02  0.13044144658E+02  0.20747361746E+02  0.31886064837E+02  0.00000000000E+00 0. -1.
         11    1    3    3    0    0 -0.10839056491E+02 -0.15464927164E+02 -0.29663965634E+02  0.35165323476E+02  0.51100000000E-03 0. -1.
        -11    1    3    3    0    0  0.19460398893E+01 -0.18069907204E+01 -0.49569318828E+01  0.56234740745E+01  0.51100000000E-03 0.  1.
         12    1    3    3    0    0 -0.11505963802E+02  0.42277732267E+01  0.13873535771E+02  0.18513137612E+02  0.00000000000E+00 0. -1.
</event>
<event>
 7    1  0.6593656E-013  0.5930197E+02  0.7816164E-02  0.1266605E+00
        -11   -1    0    0    0    0  0.00000000000E+00  0.00000000000E+00  0.45593999997E+02  0.45594000000E+02  0.51100000000E-03 0.  1.
         11   -1    0    0    0    0 -0.00000000000E+00 -0.00000000000E+00 -0.45593999997E+02  0.45594000000E+02  0.51100000000E-03 0. -1.
    9900012    2    1    2    0    0 -0.77322772813E+01 -0.30380814894E+02  0.58255134928E+01  0.59301974330E+02  0.50000055264E+02 0.  0.
         12    1    1    2    0    0  0.77322772813E+01  0.30380814894E+02 -0.58255134928E+01  0.31886025670E+02  0.00000000000E+00 0. -1.
         11    1    3    3    0    0  0.89873075059E+01 -0.17459975301E+02  0.17588500824E+02  0.26362431511E+02  0.51100000000E-03 0. -1.
        -11    1    3    3    0    0  0.20006680447E+01 -0.10544612966E+02 -0.56513868870E-01  0.10732880755E+02  0.51100000000E-03 0.  1.
        -12    1    3    3    0    0 -0.18720252832E+02 -0.23762266273E+01 -0.11706473462E+02  0.22206662063E+02  0.00000000000E+00 0.  1.
</event>
<event>
 7    1  0.6593656E-013  0.5930196E+02  0.7816164E-02  0.1266605E+00
        -11   -1    0    0    0    0  0.00000000000E+00  0.00000000000E+00  0.45593999997E+02  0.45594000000E+02  0.51100000000E-03 0.  1.
         11   -1    0    0    0    0 -0.00000000000E+00 -0.00000000000E+00 -0.45593999997E+02  0.45594000000E+02  0.51100000000E-03 0. -1.
    9900012    2    1    2    0    0 -0.51815091126E-01  0.27793382838E+02  0.15628329197E+02  0.59301960926E+02  0.50000030818E+02 0.  0.
         12    1    1    2    0    0  0.51815091126E-01 -0.27793382838E+02 -0.15628329197E+02  0.31886039074E+02  0.00000000000E+00 0. -1.
         11    1    3    3    0    0  0.26125370970E+01  0.11067797719E+00 -0.68413044399E+01  0.73240048060E+01  0.51100000000E-03 0. -1.
        -11    1    3    3    0    0 -0.17874094819E+02  0.13828507449E+02  0.15736893192E+01  0.22653639491E+02  0.51100000000E-03 0.  1.
         12    1    3    3    0    0  0.15209742631E+02  0.13854197412E+02  0.20895944317E+02  0.29324316628E+02  0.00000000000E+00 0. -1.
</event>
<event>
 7    1  0.6593656E-013  0.5930195E+02  0.7816164E-02  0.1266605E+00
        -11   -1    0    0    0    0  0.00000000000E+00  0.00000000000E+00  0.45593999997E+02  0.45594000000E+02  0.51100000000E-03 0.  1.
         11   -1    0    0    0    0 -0.00000000000E+00 -0.00000000000E+00 -0.45593999997E+02  0.45594000000E+02  0.51100000000E-03 0. -1.
    9900012    2    1    2    0    0  0.26471222333E+02 -0.92364074953E+01  0.15188258951E+02  0.59301952186E+02  0.50000014879E+02 0.  0.
         12    1    1    2    0    0 -0.26471222333E+02  0.92364074953E+01 -0.15188258951E+02  0.31886047814E+02  0.00000000000E+00 0. -1.
         11    1    3    3    0    0  0.16359469914E+02 -0.93400335465E+01 -0.53953782389E+01  0.19595371625E+02  0.51100000000E-03 0. -1.
        -11    1    3    3    0    0  0.53134314575E+01 -0.68227601107E+01 -0.68348323104E+01  0.11022592361E+02  0.51100000000E-03 0.  1.
        -12    1    3    3    0    0  0.47983209613E+01  0.69263861619E+01  0.27418469500E+02  0.28683988200E+02  0.00000000000E+00 0.  1.
</event>
<event>
 7    1  0.6593656E-013  0.5930193E+02  0.7816164E-02  0.1266605E+00
        -11   -1    0    0    0    0  0.00000000000E+00  0.00000000000E+00  0.45593999997E+02  0.45594000000E+02  0.51100000000E-03 0.  1.
         11   -1    0    0    0    0 -0.00000000000E+00 -0.00000000000E+00 -0.45593999997E+02  0.45594000000E+02  0.51100000000E-03 0. -1.
    9900012    2    1    2    0    0 -0.21051977188E+02  0.12606964869E+02  0.20361734940E+02  0.59301928487E+02  0.49999971658E+02 0.  0.
         12    1    1    2    0    0  0.21051977188E+02 -0.12606964869E+02 -0.20361734940E+02  0.31886071513E+02  0.00000000000E+00 0. -1.
         11    1    3    3    0    0 -0.15317994564E+02  0.18416430778E+02  0.26445042796E+02  0.35681173870E+02  0.51100000000E-03 0. -1.
        -11    1    3    3    0    0 -0.77761110634E+01 -0.20990909281E+01  0.64960335782E+01  0.10347586120E+02  0.51100000000E-03 0.  1.
         12    1    3    3    0    0  0.20421284384E+01 -0.37103749808E+01 -0.12579341434E+02  0.13273168497E+02  0.00000000000E+00 0. -1.
</event>
<event>
 7    1  0.6593656E-013  0.5930193E+02  0.7816164E-02  0.1266605E+00
        -11   -1    0    0    0    0  0.00000000000E+00  0.00000000000E+00  0.45593999997E+02  0.45594000000E+02  0.51100000000E-03 0. -1.
         11   -1    0    0    0    0 -0.00000000000E+00 -0.00000000000E+00 -0.45593999997E+02  0.45594000000E+02  0.51100000000E-03 0.  1.
    9900012    2    1    2    0    0 -0.89704593127E+01 -0.22220475689E+02 -0.21035752158E+02  0.59301928605E+02  0.49999971873E+02 0.  0.
         12    1    1    2    0    0  0.89704593127E+01  0.22220475689E+02  0.21035752158E+02  0.31886071395E+02  0.00000000000E+00 0. -1.
         11    1    3    3    0    0 -0.70980475670E+01  0.11031949347E+02 -0.12162104318E+02  0.17888626760E+02  0.51100000000E-03 0. -1.
        -11    1    3    3    0    0 -0.59474420566E+01 -0.12743483506E+02 -0.14042962932E+02  0.19873933859E+02  0.51100000000E-03 0.  1.
         12    1    3    3    0    0  0.40750303109E+01 -0.20508941530E+02  0.51693150914E+01  0.21539367986E+02  0.00000000000E+00 0. -1.
</event>
<event>
 7    1  0.6593656E-013  0.5930195E+02  0.7816164E-02  0.1266605E+00
        -11   -1    0    0    0    0  0.00000000000E+00  0.00000000000E+00  0.45593999997E+02  0.45594000000E+02  0.51100000000E-03 0. -1.
         11   -1    0    0    0    0 -0.00000000000E+00 -0.00000000000E+00 -0.45593999997E+02  0.45594000000E+02  0.51100000000E-03 0.  1.
    9900012    2    1    2    0    0 -0.87373498802E+01  0.30600674505E+02  0.19944621268E+01  0.59301945960E+02  0.50000003524E+02 0.  0.
         12    1    1    2    0    0  0.87373498802E+01 -0.30600674505E+02 -0.19944621268E+01  0.31886054040E+02  0.00000000000E+00 0. -1.
         11    1    3    3    0    0 -0.55472108515E+01 -0.58195739138E+01 -0.88417249553E+01  0.11950526734E+02  0.51100000000E-03 0.  1.
        -11    1    3    3    0    0 -0.79476560017E+01  0.39253614477E+01  0.11479833913E+02  0.14503802445E+02  0.51100000000E-03 0. -1.
         12    1    3    3    0    0  0.47575169730E+01  0.32494886971E+02 -0.64364683136E+00  0.32847616782E+02  0.00000000000E+00 0. -1.
</event>
<event>
 7    1  0.6593656E-013  0.5930194E+02  0.7816164E-02  0.1266605E+00
        -11   -1    0    0    0    0  0.00000000000E+00  0.00000000000E+00  0.45593999997E+02  0.45594000000E+02  0.51100000000E-03 0. -1.
         11   -1    0    0    0    0 -0.00000000000E+00 -0.00000000000E+00 -0.45593999997E+02  0.45594000000E+02  0.51100000000E-03 0.  1.
    9900012    2    1    2    0    0  0.25996278700E+02  0.27402236610E+00  0.18461823744E+02  0.59301944577E+02  0.50000001002E+02 0.  0.
         12    1    1    2    0    0 -0.25996278700E+02 -0.27402236610E+00 -0.18461823744E+02  0.31886055423E+02  0.00000000000E+00 0. -1.
         11    1    3    3    0    0 -0.67030527376E+01 -0.70083993318E+01 -0.64131413411E+01  0.11626562661E+02  0.51100000000E-03 0. -1.
        -11    1    3    3    0    0  0.89766580666E+01  0.54882234346E+00 -0.38799090551E+01  0.97946562240E+01  0.51100000000E-03 0.  1.
        -12    1    3    3    0    0  0.23722673371E+02  0.67335993544E+01  0.28754874140E+02  0.37880725692E+02  0.00000000000E+00 0.  1.
</event>
<event>
 7    1  0.6593656E-013  0.5930195E+02  0.7816164E-02  0.1266605E+00
        -11   -1    0    0    0    0  0.00000000000E+00  0.00000000000E+00  0.45593999997E+02  0.45594000000E+02  0.51100000000E-03 0.  1.
         11   -1    0    0    0    0 -0.00000000000E+00 -0.00000000000E+00 -0.45593999997E+02  0.45594000000E+02  0.51100000000E-03 0. -1.
    9900012    2    1    2    0    0  0.25960637555E+02  0.38500946056E+01  0.18109179049E+02  0.59301948245E+02  0.50000007691E+02 0.  0.
         12    1    1    2    0    0 -0.25960637555E+02 -0.38500946056E+01 -0.18109179049E+02  0.31886051755E+02  0.00000000000E+00 0. -1.
         11    1    3    3    0    0  0.46717562369E+01  0.20196019427E+01 -0.91765929788E+01  0.10493519777E+02  0.51100000000E-03 0. -1.
        -11    1    3    3    0    0  0.21114670683E+02  0.12424371373E+02  0.62942481280E+01  0.25294502996E+02  0.51100000000E-03 0.  1.
         12    1    3    3    0    0  0.17421063453E+00 -0.10593878710E+02  0.20991523900E+02  0.23513925472E+02  0.00000000000E+00 0. -1.
</event>
<event>
 7    1  0.6593656E-013  0.5930193E+02  0.7816164E-02  0.1266605E+00
        -11   -1    0    0    0    0  0.00000000000E+00  0.00000000000E+00  0.45593999997E+02  0.45594000000E+02  0.51100000000E-03 0. -1.
         11   -1    0    0    0    0 -0.00000000000E+00 -0.00000000000E+00 -0.45593999997E+02  0.45594000000E+02  0.51100000000E-03 0.  1.
    9900012    2    1    2    0    0  0.24514661759E+02 -0.31734621859E+01 -0.20141542981E+02  0.59301933183E+02  0.49999980223E+02 0.  0.
         12    1    1    2    0    0 -0.24514661759E+02  0.31734621859E+01  0.20141542981E+02  0.31886066817E+02  0.00000000000E+00 0. -1.
         11    1    3    3    0    0 -0.17120731879E+01 -0.19070420398E+01 -0.19487073015E+01  0.32195441215E+01  0.51100000000E-03 0. -1.
        -11    1    3    3    0    0  0.10991632320E+02 -0.14249907991E+02 -0.28393241133E+02  0.33616246089E+02  0.51100000000E-03 0.  1.
        -12    1    3    3    0    0  0.15235102626E+02  0.12983487845E+02  0.10200405454E+02  0.22466142973E+02  0.00000000000E+00 0.  1.
</event>
<event>
 7    1  0.6593656E-013  0.5930194E+02  0.7816164E-02  0.1266605E+00
        -11   -1    0    0    0    0  0.00000000000E+00  0.00000000000E+00  0.45593999997E+02  0.45594000000E+02  0.51100000000E-03 0.  1.
         11   -1    0    0    0    0 -0.00000000000E+00 -0.00000000000E+00 -0.45593999997E+02  0.45594000000E+02  0.51100000000E-03 0. -1.
    9900012    2    1    2    0    0 -0.21338223867E+01  0.31808631062E+02 -0.61506418128E+00  0.59301944867E+02  0.50000001531E+02 0.  0.
         12    1    1    2    0    0  0.21338223867E+01 -0.31808631062E+02  0.61506418128E+00  0.31886055133E+02  0.00000000000E+00 0. -1.
         11    1    3    3    0    0  0.16559304103E+02  0.20331826882E+02 -0.80336964452E+01  0.27425061815E+02  0.51100000000E-03 0. -1.
        -11    1    3    3    0    0 -0.91249526680E+01  0.13710714236E+02  0.12630005496E+02  0.20754890632E+02  0.51100000000E-03 0.  1.
        -12    1    3    3    0    0 -0.95681738218E+01 -0.22339100559E+01 -0.52113732324E+01  0.11121992420E+02  0.00000000000E+00 0.  1.
</event>
<event>
 7    1  0.6593656E-013  0.5930201E+02  0.7816164E-02  0.1266605E+00
        -11   -1    0    0    0    0  0.00000000000E+00  0.00000000000E+00  0.45593999997E+02  0.45594000000E+02  0.51100000000E-03 0. -1.
         11   -1    0    0    0    0 -0.00000000000E+00 -0.00000000000E+00 -0.45593999997E+02  0.45594000000E+02  0.51100000000E-03 0.  1.
    9900012    2    1    2    0    0  0.52993824716E+01 -0.38549418006E+01 -0.31205328403E+02  0.59302006968E+02  0.50000114788E+02 0.  0.
         12    1    1    2    0    0 -0.52993824716E+01  0.38549418006E+01  0.31205328403E+02  0.31885993032E+02  0.00000000000E+00 0. -1.
         11    1    3    3    0    0 -0.45890023159E+00  0.48392262751E+01 -0.86041554218E+01  0.98823170941E+01  0.51100000000E-03 0. -1.
        -11    1    3    3    0    0  0.19584777103E+02 -0.74101483823E+01 -0.27614920568E+02  0.34656278384E+02  0.51100000000E-03 0.  1.
         12    1    3    3    0    0 -0.13826494399E+02 -0.12840196935E+01  0.50137475869E+01  0.14763411490E+02  0.00000000000E+00 0. -1.
</event>
<event>
 7    1  0.6593656E-013  0.5930195E+02  0.7816164E-02  0.1266605E+00
        -11   -1    0    0    0    0  0.00000000000E+00  0.00000000000E+00  0.45593999997E+02  0.45594000000E+02  0.51100000000E-03 0.  1.
         11   -1    0    0    0    0 -0.00000000000E+00 -0.00000000000E+00 -0.45593999997E+02  0.45594000000E+02  0.51100000000E-03 0. -1.
    9900012    2    1    2    0    0  0.12376591297E+02  0.76538023780E+01  0.28371805003E+02  0.59301952548E+02  0.50000015540E+02 0.  0.
         12    1    1    2    0    0 -0.12376591297E+02 -0.76538023780E+01 -0.28371805003E+02  0.31886047452E+02  0.00000000000E+00 0. -1.
         11    1    3    3    0    0 -0.11963032659E+02  0.50473740968E+00  0.10118870496E+02  0.15676748727E+02  0.51100000000E-03 0.  1.
        -11    1    3    3    0    0 -0.60737231288E+01  0.36974973362E+01 -0.14044557113E+01  0.72480407906E+01  0.51100000000E-03 0. -1.
        -12    1    3    3    0    0  0.30413347085E+02  0.34515676322E+01  0.19657390217E+02  0.36377163031E+02  0.00000000000E+00 0.  1.
</event>
<event>
 7    1  0.6593656E-013  0.5930194E+02  0.7816164E-02  0.1266605E+00
        -11   -1    0    0    0    0  0.00000000000E+00  0.00000000000E+00  0.45593999997E+02  0.45594000000E+02  0.51100000000E-03 0.  1.
         11   -1    0    0    0    0 -0.00000000000E+00 -0.00000000000E+00 -0.45593999997E+02  0.45594000000E+02  0.51100000000E-03 0. -1.
    9900012    2    1    2    0    0 -0.52857012942E+01 -0.29608745115E+02  0.10587949325E+02  0.59301935703E+02  0.49999984818E+02 0.  0.
         12    1    1    2    0    0  0.52857012942E+01  0.29608745115E+02 -0.10587949325E+02  0.31886064297E+02  0.00000000000E+00 0. -1.
         11    1    3    3    0    0 -0.12543267205E+02  0.53545790039E+01 -0.49384257367E+01  0.14504934246E+02  0.51100000000E-03 0. -1.
        -11    1    3    3    0    0 -0.11963749388E+01 -0.15254702023E+01 -0.45103139194E+01  0.49093079192E+01  0.51100000000E-03 0.  1.
        -12    1    3    3    0    0  0.84539408492E+01 -0.33437853916E+02  0.20036688982E+02  0.39887693538E+02  0.00000000000E+00 0.  1.
</event>
<event>
 7    1  0.6593656E-013  0.5930196E+02  0.7816164E-02  0.1266605E+00
        -11   -1    0    0    0    0  0.00000000000E+00  0.00000000000E+00  0.45593999997E+02  0.45594000000E+02  0.51100000000E-03 0. -1.
         11   -1    0    0    0    0 -0.00000000000E+00 -0.00000000000E+00 -0.45593999997E+02  0.45594000000E+02  0.51100000000E-03 0.  1.
    9900012    2    1    2    0    0  0.12110212513E+02  0.29119813466E+02  0.47009607860E+01  0.59301955784E+02  0.50000021441E+02 0.  0.
         12    1    1    2    0    0 -0.12110212513E+02 -0.29119813466E+02 -0.47009607860E+01  0.31886044216E+02  0.00000000000E+00 0. -1.
         11    1    3    3    0    0  0.22753228103E+01  0.77511799511E+01  0.10193146318E+02  0.13006079987E+02  0.51100000000E-03 0.  1.
        -11    1    3    3    0    0 -0.11815726540E+02 -0.34970689205E+01 -0.50647347275E+01  0.13322628225E+02  0.51100000000E-03 0. -1.
         12    1    3    3    0    0  0.21650616242E+02  0.24865702435E+02 -0.42745080404E+00  0.32973247572E+02  0.00000000000E+00 0. -1.
</event>
<event>
 7    1  0.6593656E-013  0.5930195E+02  0.7816164E-02  0.1266605E+00
        -11   -1    0    0    0    0  0.00000000000E+00  0.00000000000E+00  0.45593999997E+02  0.45594000000E+02  0.51100000000E-03 0. -1.
         11   -1    0    0    0    0 -0.00000000000E+00 -0.00000000000E+00 -0.45593999997E+02  0.45594000000E+02  0.51100000000E-03 0.  1.
    9900012    2    1    2    0    0 -0.31392919454E+02 -0.52970071658E+01 -0.17737696373E+01  0.59301953907E+02  0.50000018017E+02 0.  0.
         12    1    1    2    0    0  0.31392919454E+02  0.52970071658E+01  0.17737696373E+01  0.31886046093E+02  0.00000000000E+00 0. -1.
         11    1    3    3    0    0 -0.51738076397E+01  0.52207604328E+01  0.94982190114E+01  0.12010028711E+02  0.51100000000E-03 0. -1.
        -11    1    3    3    0    0 -0.26235822744E+02  0.79613767443E+01 -0.76059473083E+01  0.28452633436E+02  0.51100000000E-03 0.  1.
         12    1    3    3    0    0  0.16710930352E-01 -0.18479144343E+02 -0.36660413403E+01  0.18839291760E+02  0.00000000000E+00 0. -1.
</event>
<event>
 7    1  0.6593656E-013  0.5930195E+02  0.7816164E-02  0.1266605E+00
        -11   -1    0    0    0    0  0.00000000000E+00  0.00000000000E+00  0.45593999997E+02  0.45594000000E+02  0.51100000000E-03 0.  1.
         11   -1    0    0    0    0 -0.00000000000E+00 -0.00000000000E+00 -0.45593999997E+02  0.45594000000E+02  0.51100000000E-03 0. -1.
    9900012    2    1    2    0    0  0.66760210981E+01 -0.16717387143E+01  0.31134481972E+02  0.59301953903E+02  0.50000018011E+02 0.  0.
         12    1    1    2    0    0 -0.66760210981E+01  0.16717387143E+01 -0.31134481972E+02  0.31886046097E+02  0.00000000000E+00 0. -1.
         11    1    3    3    0    0  0.13757693980E+02 -0.18111436130E+02  0.11824649156E+02  0.25634363465E+02  0.51100000000E-03 0. -1.
        -11    1    3    3    0    0  0.12406290531E+01  0.52686476357E+01  0.18976450274E+02  0.19733308735E+02  0.51100000000E-03 0.  1.
        -12    1    3    3    0    0 -0.83223019347E+01  0.11171049780E+02  0.33338254159E+00  0.13934281704E+02  0.00000000000E+00 0.  1.
</event>
<event>
 7    1  0.6593656E-013  0.5930194E+02  0.7816164E-02  0.1266605E+00
        -11   -1    0    0    0    0  0.00000000000E+00  0.00000000000E+00  0.45593999997E+02  0.45594000000E+02  0.51100000000E-03 0.  1.
         11   -1    0    0    0    0 -0.00000000000E+00 -0.00000000000E+00 -0.45593999997E+02  0.45594000000E+02  0.51100000000E-03 0. -1.
    9900012    2    1    2    0    0  0.22906283943E+01 -0.31329023418E+02 -0.54741143497E+01  0.59301943256E+02  0.49999998593E+02 0.  0.
         12    1    1    2    0    0 -0.22906283943E+01  0.31329023418E+02  0.54741143497E+01  0.31886056744E+02  0.00000000000E+00 0. -1.
         11    1    3    3    0    0  0.87505987362E+01 -0.25909348881E+02  0.10278293753E+02  0.29214904765E+02  0.51100000000E-03 0. -1.
        -11    1    3    3    0    0 -0.17969086591E+01 -0.58928098235E+01  0.55397559601E+01  0.82851061975E+01  0.51100000000E-03 0.  1.
         12    1    3    3    0    0 -0.46630616828E+01  0.47313528636E+00 -0.21292164063E+02  0.21801932294E+02  0.00000000000E+00 0. -1.
</event>
<event>
 7    1  0.6593656E-013  0.5930194E+02  0.7816164E-02  0.1266605E+00
        -11   -1    0    0    0    0  0.00000000000E+00  0.00000000000E+00  0.45593999997E+02  0.45594000000E+02  0.51100000000E-03 0.  1.
         11   -1    0    0    0    0 -0.00000000000E+00 -0.00000000000E+00 -0.45593999997E+02  0.45594000000E+02  0.51100000000E-03 0. -1.
    9900012    2    1    2    0    0 -0.12003623548E+01  0.11130184305E+01  0.31844016312E+02  0.59301936356E+02  0.49999986008E+02 0.  0.
         12    1    1    2    0    0  0.12003623548E+01 -0.11130184305E+01 -0.31844016312E+02  0.31886063644E+02  0.00000000000E+00 0. -1.
         11    1    3    3    0    0 -0.47449264669E+01  0.64802622553E+01  0.10558473779E+02  0.13266103229E+02  0.51100000000E-03 0.  1.
        -11    1    3    3    0    0 -0.15876336170E+01 -0.23580283297E+01  0.32880761628E+02  0.33003414423E+02  0.51100000000E-03 0. -1.
         12    1    3    3    0    0  0.51321977291E+01 -0.30092154950E+01 -0.11595219094E+02  0.13032418704E+02  0.00000000000E+00 0. -1.
</event>
<event>
 7    1  0.6593656E-013  0.5930196E+02  0.7816164E-02  0.1266605E+00
        -11   -1    0    0    0    0  0.00000000000E+00  0.00000000000E+00  0.45593999997E+02  0.45594000000E+02  0.51100000000E-03 0.  1.
         11   -1    0    0    0    0 -0.00000000000E+00 -0.00000000000E+00 -0.45593999997E+02  0.45594000000E+02  0.51100000000E-03 0. -1.
    9900012    2    1    2    0    0  0.19966070374E+02 -0.18585000551E+02  0.16512827931E+02  0.59301957631E+02  0.50000024809E+02 0.  0.
         12    1    1    2    0    0 -0.19966070374E+02  0.18585000551E+02 -0.16512827931E+02  0.31886042369E+02  0.00000000000E+00 0. -1.
         11    1    3    3    0    0 -0.58395536454E+01 -0.85737985762E+00 -0.56352706004E+01  0.81603775647E+01  0.51100000000E-03 0. -1.
        -11    1    3    3    0    0  0.83473177270E+01  0.65063211943E+01  0.18146215298E+02  0.21007024031E+02  0.51100000000E-03 0.  1.
        -12    1    3    3    0    0  0.17458306292E+02 -0.24233941888E+02  0.40018832336E+01  0.30134556035E+02  0.00000000000E+00 0.  1.
</event>
<event>
 7    1  0.6593656E-013  0.5930195E+02  0.7816164E-02  0.1266605E+00
        -11   -1    0    0    0    0  0.00000000000E+00  0.00000000000E+00  0.45593999997E+02  0.45594000000E+02  0.51100000000E-03 0. -1.
         11   -1    0    0    0    0 -0.00000000000E+00 -0.00000000000E+00 -0.45593999997E+02  0.45594000000E+02  0.51100000000E-03 0.  1.
    9900012    2    1    2    0    0 -0.28782342360E+02 -0.10920412122E+02 -0.83091335543E+01  0.59301947672E+02  0.50000006646E+02 0.  0.
         12    1    1    2    0    0  0.28782342360E+02  0.10920412122E+02  0.83091335543E+01  0.31886052328E+02  0.00000000000E+00 0. -1.
         11    1    3    3    0    0 -0.29079470172E+02 -0.12264549189E+02 -0.85139420490E+01  0.32688254187E+02  0.51100000000E-03 0. -1.
        -11    1    3    3    0    0 -0.51386243427E+01 -0.36148078117E+01 -0.11316367021E+02  0.12943433024E+02  0.51100000000E-03 0.  1.
        -12    1    3    3    0    0  0.54357521551E+01  0.49589448786E+01  0.11521175515E+02  0.13670260460E+02  0.00000000000E+00 0.  1.
</event>
<event>
 7    1  0.6593656E-013  0.5930193E+02  0.7816164E-02  0.1266605E+00
        -11   -1    0    0    0    0  0.00000000000E+00  0.00000000000E+00  0.45593999997E+02  0.45594000000E+02  0.51100000000E-03 0.  1.
         11   -1    0    0    0    0 -0.00000000000E+00 -0.00000000000E+00 -0.45593999997E+02  0.45594000000E+02  0.51100000000E-03 0. -1.
    9900012    2    1    2    0    0 -0.11168783101E+02  0.83975708870E+01  0.28661133885E+02  0.59301929242E+02  0.49999973035E+02 0.  0.
         12    1    1    2    0    0  0.11168783101E+02 -0.83975708870E+01 -0.28661133885E+02  0.31886070758E+02  0.00000000000E+00 0. -1.
         11    1    3    3    0    0 -0.10205874134E+02  0.11581833242E+02  0.17341702084E+02  0.23217091970E+02  0.51100000000E-03 0. -1.
        -11    1    3    3    0    0 -0.57346316607E+01  0.12452985206E+02  0.13911157119E+02  0.19531593213E+02  0.51100000000E-03 0.  1.
         12    1    3    3    0    0  0.47717226939E+01 -0.15637247561E+02 -0.25917253173E+01  0.16553244059E+02  0.00000000000E+00 0. -1.
</event>
<event>
 7    1  0.6593656E-013  0.5930181E+02  0.7816164E-02  0.1266605E+00
        -11   -1    0    0    0    0  0.00000000000E+00  0.00000000000E+00  0.45593999997E+02  0.45594000000E+02  0.51100000000E-03 0. -1.
         11   -1    0    0    0    0 -0.00000000000E+00 -0.00000000000E+00 -0.45593999997E+02  0.45594000000E+02  0.51100000000E-03 0.  1.
    9900012    2    1    2    0    0  0.16750416359E+01  0.31721105275E+02 -0.27739363873E+01  0.59301811651E+02  0.49999758575E+02 0.  0.
         12    1    1    2    0    0 -0.16750416359E+01 -0.31721105275E+02  0.27739363873E+01  0.31886188349E+02  0.00000000000E+00 0. -1.
         11    1    3    3    0    0 -0.11399806710E+02  0.27521792921E+00 -0.63360054007E+01  0.13045163956E+02  0.51100000000E-03 0. -1.
        -11    1    3    3    0    0  0.51733199023E+01  0.10971211197E+02 -0.13726883957E+02  0.18318243840E+02  0.51100000000E-03 0.  1.
         12    1    3    3    0    0  0.79015284434E+01  0.20474676150E+02  0.17288952970E+02  0.27938403855E+02  0.00000000000E+00 0. -1.
</event>
<event>
 7    1  0.6593656E-013  0.5930195E+02  0.7816164E-02  0.1266605E+00
        -11   -1    0    0    0    0  0.00000000000E+00  0.00000000000E+00  0.45593999997E+02  0.45594000000E+02  0.51100000000E-03 0.  1.
         11   -1    0    0    0    0 -0.00000000000E+00 -0.00000000000E+00 -0.45593999997E+02  0.45594000000E+02  0.51100000000E-03 0. -1.
    9900012    2    1    2    0    0 -0.11423581940E+02  0.29297503693E+02  0.52800054330E+01  0.59301946554E+02  0.50000004608E+02 0.  0.
         12    1    1    2    0    0  0.11423581940E+02 -0.29297503693E+02 -0.52800054330E+01  0.31886053446E+02  0.00000000000E+00 0. -1.
         11    1    3    3    0    0 -0.80530540754E+01 -0.98926401538E+01  0.63719631983E+01  0.14258959444E+02  0.51100000000E-03 0. -1.
        -11    1    3    3    0    0 -0.30092411577E+01  0.12781601866E+02 -0.10700047947E+02  0.16938592177E+02  0.51100000000E-03 0.  1.
        -12    1    3    3    0    0 -0.36128670643E+00  0.26408541981E+02  0.96080901821E+01  0.28104394933E+02  0.00000000000E+00 0.  1.
</event>
<event>
 7    1  0.6593656E-013  0.5930173E+02  0.7816164E-02  0.1266606E+00
        -11   -1    0    0    0    0  0.00000000000E+00  0.00000000000E+00  0.45593999997E+02  0.45594000000E+02  0.51100000000E-03 0.  1.
         11   -1    0    0    0    0 -0.00000000000E+00 -0.00000000000E+00 -0.45593999997E+02  0.45594000000E+02  0.51100000000E-03 0. -1.
    9900012    2    1    2    0    0 -0.58866072406E+01  0.28885057747E+02  0.12154651298E+02  0.59301729381E+02  0.49999608534E+02 0.  0.
         12    1    1    2    0    0  0.58866072406E+01 -0.28885057747E+02 -0.12154651298E+02  0.31886270619E+02  0.00000000000E+00 0. -1.
         11    1    3    3    0    0 -0.43358066515E+01  0.16671291834E+02  0.19246580782E+02  0.25829480498E+02  0.51100000000E-03 0.  1.
        -11    1    3    3    0    0 -0.15035831568E+02  0.76563813995E+01  0.13432133677E+01  0.16926329475E+02  0.51100000000E-03 0. -1.
         12    1    3    3    0    0  0.13485030979E+02  0.45573845133E+01 -0.84351428522E+01  0.16545919408E+02  0.00000000000E+00 0. -1.
</event>
<event>
 7    1  0.6593656E-013  0.5930197E+02  0.7816164E-02  0.1266605E+00
        -11   -1    0    0    0    0  0.00000000000E+00  0.00000000000E+00  0.45593999997E+02  0.45594000000E+02  0.51100000000E-03 0. -1.
         11   -1    0    0    0    0 -0.00000000000E+00 -0.00000000000E+00 -0.45593999997E+02  0.45594000000E+02  0.51100000000E-03 0.  1.
    9900012    2    1    2    0    0  0.20330835378E+02  0.24154951522E+02 -0.44625636569E+01  0.59301968190E+02  0.50000044066E+02 0.  0.
         12    1    1    2    0    0 -0.20330835378E+02 -0.24154951522E+02  0.44625636569E+01  0.31886031810E+02  0.00000000000E+00 0. -1.
         11    1    3    3    0    0 -0.60300530724E+00 -0.65204702495E+01  0.38536761939E+01  0.75980897694E+01  0.51100000000E-03 0. -1.
        -11    1    3    3    0    0 -0.48365336281E+01  0.18737214259E+02 -0.12439712163E+02  0.23004818945E+02  0.51100000000E-03 0.  1.
        -12    1    3    3    0    0  0.25770374314E+02  0.11938207512E+02  0.41234723123E+01  0.28699059475E+02  0.00000000000E+00 0.  1.
</event>
<event>
 7    1  0.6593656E-013  0.5930194E+02  0.7816164E-02  0.1266605E+00
        -11   -1    0    0    0    0  0.00000000000E+00  0.00000000000E+00  0.45593999997E+02  0.45594000000E+02  0.51100000000E-03 0.  1.
         11   -1    0    0    0    0 -0.00000000000E+00 -0.00000000000E+00 -0.45593999997E+02  0.45594000000E+02  0.51100000000E-03 0. -1.
    9900012    2    1    2    0    0 -0.10101906544E+02 -0.94227940046E+00  0.30228871039E+02  0.59301936420E+02  0.49999986126E+02 0.  0.
         12    1    1    2    0    0  0.10101906544E+02  0.94227940046E+00 -0.30228871039E+02  0.31886063580E+02  0.00000000000E+00 0. -1.
         11    1    3    3    0    0  0.48110584612E+01 -0.16481393217E+02  0.10318681198E+00  0.17169544364E+02  0.51100000000E-03 0. -1.
        -11    1    3    3    0    0 -0.20578967737E+01 -0.29049199032E+01 -0.10356869435E+01  0.37075795988E+01  0.51100000000E-03 0.  1.
        -12    1    3    3    0    0 -0.12855068232E+02  0.18444033720E+02  0.31161371171E+02  0.38424812457E+02  0.00000000000E+00 0.  1.
</event>
<event>
 7    1  0.6593656E-013  0.5930194E+02  0.7816164E-02  0.1266605E+00
        -11   -1    0    0    0    0  0.00000000000E+00  0.00000000000E+00  0.45593999997E+02  0.45594000000E+02  0.51100000000E-03 0. -1.
         11   -1    0    0    0    0 -0.00000000000E+00 -0.00000000000E+00 -0.45593999997E+02  0.45594000000E+02  0.51100000000E-03 0.  1.
    9900012    2    1    2    0    0  0.20743055449E+01 -0.18528327120E+02 -0.25867333106E+02  0.59301943935E+02  0.49999999831E+02 0.  0.
         12    1    1    2    0    0 -0.20743055449E+01  0.18528327120E+02  0.25867333106E+02  0.31886056065E+02  0.00000000000E+00 0. -1.
         11    1    3    3    0    0 -0.15958634636E+01  0.49737156652E+01 -0.14356171161E+01  0.54171601857E+01  0.51100000000E-03 0. -1.
        -11    1    3    3    0    0 -0.70485487839E+00  0.12021281593E+02 -0.40964780590E+01  0.12719636956E+02  0.51100000000E-03 0.  1.
        -12    1    3    3    0    0  0.43750238869E+01 -0.35523324378E+02 -0.20335237931E+02  0.41165146794E+02  0.00000000000E+00 0.  1.
</event>
<event>
 7    1  0.6593656E-013  0.5930194E+02  0.7816164E-02  0.1266605E+00
        -11   -1    0    0    0    0  0.00000000000E+00  0.00000000000E+00  0.45593999997E+02  0.45594000000E+02  0.51100000000E-03 0.  1.
         11   -1    0    0    0    0 -0.00000000000E+00 -0.00000000000E+00 -0.45593999997E+02  0.45594000000E+02  0.51100000000E-03 0. -1.
    9900012    2    1    2    0    0  0.31074287453E+02 -0.67924086245E+01  0.22298974750E+01  0.59301943512E+02  0.49999999059E+02 0.  0.
         12    1    1    2    0    0 -0.31074287453E+02  0.67924086245E+01 -0.22298974750E+01  0.31886056488E+02  0.00000000000E+00 0. -1.
         11    1    3    3    0    0 -0.78966315400E+00 -0.30839502834E+01  0.92480053202E+01  0.97805889348E+01  0.51100000000E-03 0.  1.
        -11    1    3    3    0    0 -0.40395838457E+01 -0.84724976033E+01  0.58789629513E+01  0.11075362700E+02  0.51100000000E-03 0. -1.
         12    1    3    3    0    0  0.35903534453E+02  0.47640392622E+01 -0.12897070797E+02  0.38445991877E+02  0.00000000000E+00 0. -1.
</event>
<event>
 7    1  0.6593656E-013  0.5930184E+02  0.7816164E-02  0.1266605E+00
        -11   -1    0    0    0    0  0.00000000000E+00  0.00000000000E+00  0.45593999997E+02  0.45594000000E+02  0.51100000000E-03 0.  1.
         11   -1    0    0    0    0 -0.00000000000E+00 -0.00000000000E+00 -0.45593999997E+02  0.45594000000E+02  0.51100000000E-03 0. -1.
    9900012    2    1    2    0    0 -0.22984622165E+02 -0.26054653252E+01  0.21946439491E+02  0.59301835101E+02  0.49999801344E+02 0.  0.
         12    1    1    2    0    0  0.22984622165E+02  0.26054653252E+01 -0.21946439491E+02  0.31886164899E+02  0.00000000000E+00 0. -1.
         11    1    3    3    0    0  0.18277048778E+01  0.95622845802E+01 -0.20444164301E+01  0.99477349339E+01  0.51100000000E-03 0. -1.
        -11    1    3    3    0    0  0.15474869520E+01  0.73826947462E+01 -0.16320359646E+01  0.77176705834E+01  0.51100000000E-03 0.  1.
        -12    1    3    3    0    0 -0.26359813994E+02 -0.19550444652E+02  0.25622891886E+02  0.41636429584E+02  0.00000000000E+00 0.  1.
</event>
<event>
 7    1  0.6593656E-013  0.5930197E+02  0.7816164E-02  0.1266605E+00
        -11   -1    0    0    0    0  0.00000000000E+00  0.00000000000E+00  0.45593999997E+02  0.45594000000E+02  0.51100000000E-03 0.  1.
         11   -1    0    0    0    0 -0.00000000000E+00 -0.00000000000E+00 -0.45593999997E+02  0.45594000000E+02  0.51100000000E-03 0. -1.
    9900012    2    1    2    0    0  0.62471757426E+01  0.15289270548E+02  0.27275073401E+02  0.59301974414E+02  0.50000055417E+02 0.  0.
         12    1    1    2    0    0 -0.62471757426E+01 -0.15289270548E+02 -0.27275073401E+02  0.31886025586E+02  0.00000000000E+00 0. -1.
         11    1    3    3    0    0  0.13547508837E+02 -0.22228730145E+01 -0.46057093832E+01  0.14480632559E+02  0.51100000000E-03 0. -1.
        -11    1    3    3    0    0  0.50422074673E+01  0.70368609342E+01  0.26315556592E+02  0.27702884091E+02  0.51100000000E-03 0.  1.
        -12    1    3    3    0    0 -0.12342540562E+02  0.10475282628E+02  0.55652261920E+01  0.17118457764E+02  0.00000000000E+00 0.  1.
</event>
<event>
 7    1  0.6593656E-013  0.5930197E+02  0.7816164E-02  0.1266605E+00
        -11   -1    0    0    0    0  0.00000000000E+00  0.00000000000E+00  0.45593999997E+02  0.45594000000E+02  0.51100000000E-03 0.  1.
         11   -1    0    0    0    0 -0.00000000000E+00 -0.00000000000E+00 -0.45593999997E+02  0.45594000000E+02  0.51100000000E-03 0. -1.
    9900012    2    1    2    0    0  0.10863751362E+02 -0.21855571770E+02  0.20519062218E+02  0.59301968178E+02  0.50000044044E+02 0.  0.
         12    1    1    2    0    0 -0.10863751362E+02  0.21855571770E+02 -0.20519062218E+02  0.31886031822E+02  0.00000000000E+00 0. -1.
         11    1    3    3    0    0 -0.15655641329E+01 -0.12060896728E+02 -0.78620484995E+01  0.14481989773E+02  0.51100000000E-03 0. -1.
        -11    1    3    3    0    0  0.17594435369E+01 -0.18226350464E+02  0.24670813270E+02  0.30723680126E+02  0.51100000000E-03 0.  1.
         12    1    3    3    0    0  0.10669871958E+02  0.84316754220E+01  0.37102974476E+01  0.14096298279E+02  0.00000000000E+00 0. -1.
</event>
<event>
 7    1  0.6593656E-013  0.5930195E+02  0.7816164E-02  0.1266605E+00
        -11   -1    0    0    0    0  0.00000000000E+00  0.00000000000E+00  0.45593999997E+02  0.45594000000E+02  0.51100000000E-03 0.  1.
         11   -1    0    0    0    0 -0.00000000000E+00 -0.00000000000E+00 -0.45593999997E+02  0.45594000000E+02  0.51100000000E-03 0. -1.
    9900012    2    1    2    0    0 -0.27691016469E+02 -0.14197937666E+02  0.69531764639E+01  0.59301945212E+02  0.50000002159E+02 0.  0.
         12    1    1    2    0    0  0.27691016469E+02  0.14197937666E+02 -0.69531764639E+01  0.31886054788E+02  0.00000000000E+00 0. -1.
         11    1    3    3    0    0 -0.15429686205E+01 -0.42238722300E+01  0.98734308509E+01  0.10849261994E+02  0.51100000000E-03 0. -1.
        -11    1    3    3    0    0 -0.15838707975E+02 -0.13751616980E+02  0.16133072529E+02  0.26462193208E+02  0.51100000000E-03 0.  1.
         12    1    3    3    0    0 -0.10309339874E+02  0.37775515444E+01 -0.19053326916E+02  0.21990490010E+02  0.00000000000E+00 0. -1.
</event>
<event>
 7    1  0.6593656E-013  0.5930218E+02  0.7816164E-02  0.1266604E+00
        -11   -1    0    0    0    0  0.00000000000E+00  0.00000000000E+00  0.45593999997E+02  0.45594000000E+02  0.51100000000E-03 0.  1.
         11   -1    0    0    0    0 -0.00000000000E+00 -0.00000000000E+00 -0.45593999997E+02  0.45594000000E+02  0.51100000000E-03 0. -1.
    9900012    2    1    2    0    0 -0.37635038280E+01  0.31355498134E+02  0.44015889433E+01  0.59302184823E+02  0.50000439150E+02 0.  0.
         12    1    1    2    0    0  0.37635038280E+01 -0.31355498134E+02 -0.44015889433E+01  0.31885815177E+02  0.00000000000E+00 0. -1.
         11    1    3    3    0    0 -0.14091455452E+02  0.67331244553E+01  0.14748062218E+00  0.15618125127E+02  0.51100000000E-03 0. -1.
        -11    1    3    3    0    0  0.67248583492E+01 -0.11600775388E+01  0.14248577049E+02  0.15798463466E+02  0.51100000000E-03 0.  1.
         12    1    3    3    0    0  0.36030932743E+01  0.25782451218E+02 -0.99944687280E+01  0.27885596230E+02  0.00000000000E+00 0. -1.
</event>
<event>
 7    1  0.1077434E-012  0.5930191E+02  0.7816164E-02  0.1266605E+00
        -11   -1    0    0    0    0  0.00000000000E+00  0.00000000000E+00  0.45593999997E+02  0.45594000000E+02  0.51100000000E-03 0. -1.
         11   -1    0    0    0    0 -0.00000000000E+00 -0.00000000000E+00 -0.45593999997E+02  0.45594000000E+02  0.51100000000E-03 0.  1.
    9900012    2    1    2    0    0  0.25366310462E+02 -0.10879249167E+02 -0.15966049073E+02  0.59301913820E+02  0.49999944908E+02 0.  0.
         12    1    1    2    0    0 -0.25366310462E+02  0.10879249167E+02  0.15966049073E+02  0.31886086180E+02  0.00000000000E+00 0. -1.
         11    1    3    3    0    0 -0.26976439145E+01  0.14424638289E+01  0.10675486699E+02  0.11105133998E+02  0.51100000000E-03 0. -1.
        -11    1    3    3    0    0  0.13533639059E+02  0.13574709943E+01  0.15146344561E+01  0.13685621341E+02  0.51100000000E-03 0.  1.
        -12    1    3    3    0    0  0.14530315317E+02 -0.13679183991E+02 -0.28156170227E+02  0.34511158482E+02  0.00000000000E+00 0.  1.
</event>
<event>
 7    1  0.6593656E-013  0.5930191E+02  0.7816164E-02  0.1266605E+00
        -11   -1    0    0    0    0  0.00000000000E+00  0.00000000000E+00  0.45593999997E+02  0.45594000000E+02  0.51100000000E-03 0. -1.
         11   -1    0    0    0    0 -0.00000000000E+00 -0.00000000000E+00 -0.45593999997E+02  0.45594000000E+02  0.51100000000E-03 0.  1.
    9900012    2    1    2    0    0 -0.12015279945E+02 -0.25330397515E+02  0.15189697801E+02  0.59301907268E+02  0.49999932958E+02 0.  0.
         12    1    1    2    0    0  0.12015279945E+02  0.25330397515E+02 -0.15189697801E+02  0.31886092732E+02  0.00000000000E+00 0. -1.
         11    1    3    3    0    0  0.55736324865E+01 -0.35389659329E+01 -0.50381999217E+01  0.83050055798E+01  0.51100000000E-03 0.  1.
        -11    1    3    3    0    0 -0.22860444176E+02  0.16548005226E+00  0.40454702000E+01  0.23216225382E+02  0.51100000000E-03 0. -1.
        -12    1    3    3    0    0  0.52715317445E+01 -0.21956911635E+02  0.16182427523E+02  0.27780676306E+02  0.00000000000E+00 0.  1.
</event>
<event>
 7    1  0.6593656E-013  0.5930194E+02  0.7816164E-02  0.1266605E+00
        -11   -1    0    0    0    0  0.00000000000E+00  0.00000000000E+00  0.45593999997E+02  0.45594000000E+02  0.51100000000E-03 0.  1.
         11   -1    0    0    0    0 -0.00000000000E+00 -0.00000000000E+00 -0.45593999997E+02  0.45594000000E+02  0.51100000000E-03 0. -1.
    9900012    2    1    2    0    0  0.13788306503E+02 -0.11827571805E+02  0.26205186066E+02  0.59301943051E+02  0.49999998219E+02 0.  0.
         12    1    1    2    0    0 -0.13788306503E+02  0.11827571805E+02 -0.26205186066E+02  0.31886056949E+02  0.00000000000E+00 0. -1.
         11    1    3    3    0    0  0.10548149884E+02 -0.38590801654E+00  0.70406100040E+01  0.12687891096E+02  0.51100000000E-03 0. -1.
        -11    1    3    3    0    0  0.14969251945E+02  0.94540990159E+01  0.36782037495E+01  0.18082800532E+02  0.51100000000E-03 0.  1.
         12    1    3    3    0    0 -0.11729095326E+02 -0.20895762804E+02  0.15486372312E+02  0.28531251423E+02  0.00000000000E+00 0. -1.
</event>
<event>
 7    1  0.6593656E-013  0.5930193E+02  0.7816164E-02  0.1266605E+00
        -11   -1    0    0    0    0  0.00000000000E+00  0.00000000000E+00  0.45593999997E+02  0.45594000000E+02  0.51100000000E-03 0. -1.
         11   -1    0    0    0    0 -0.00000000000E+00 -0.00000000000E+00 -0.45593999997E+02  0.45594000000E+02  0.51100000000E-03 0.  1.
    9900012    2    1    2    0    0  0.13964880264E+02 -0.21944055857E+01 -0.28581252336E+02  0.59301932796E+02  0.49999979516E+02 0.  0.
         12    1    1    2    0    0 -0.13964880264E+02  0.21944055857E+01  0.28581252336E+02  0.31886067204E+02  0.00000000000E+00 0. -1.
         11    1    3    3    0    0  0.53591631370E+01  0.13282832301E+02  0.85591397227E+00  0.14348757871E+02  0.51100000000E-03 0. -1.
        -11    1    3    3    0    0 -0.17065438995E+01  0.40007781536E+01 -0.20851778412E+02  0.21300591098E+02  0.51100000000E-03 0.  1.
         12    1    3    3    0    0  0.10312261026E+02 -0.19478016040E+02 -0.85853878958E+01  0.23652583826E+02  0.00000000000E+00 0. -1.
</event>
<event>
 7    1  0.6593656E-013  0.5930195E+02  0.7816164E-02  0.1266605E+00
        -11   -1    0    0    0    0  0.00000000000E+00  0.00000000000E+00  0.45593999997E+02  0.45594000000E+02  0.51100000000E-03 0.  1.
         11   -1    0    0    0    0 -0.00000000000E+00 -0.00000000000E+00 -0.45593999997E+02  0.45594000000E+02  0.51100000000E-03 0. -1.
    9900012    2    1    2    0    0 -0.24630538921E+02 -0.12109791609E+02 -0.16229897428E+02  0.59301951784E+02  0.50000014145E+02 0.  0.
         12    1    1    2    0    0  0.24630538921E+02  0.12109791609E+02  0.16229897428E+02  0.31886048216E+02  0.00000000000E+00 0. -1.
         11    1    3    3    0    0 -0.11865538233E+01  0.10930662129E+02 -0.86604710074E+01  0.13996108134E+02  0.51100000000E-03 0. -1.
        -11    1    3    3    0    0 -0.21569985722E+02 -0.85984860041E+00  0.59727726066E+00  0.21595378303E+02  0.51100000000E-03 0.  1.
         12    1    3    3    0    0 -0.18739993754E+01 -0.22180605138E+02 -0.81667036817E+01  0.23710465347E+02  0.00000000000E+00 0. -1.
</event>
<event>
 7    1  0.6593656E-013  0.5930194E+02  0.7816164E-02  0.1266605E+00
        -11   -1    0    0    0    0  0.00000000000E+00  0.00000000000E+00  0.45593999997E+02  0.45594000000E+02  0.51100000000E-03 0.  1.
         11   -1    0    0    0    0 -0.00000000000E+00 -0.00000000000E+00 -0.45593999997E+02  0.45594000000E+02  0.51100000000E-03 0. -1.
    9900012    2    1    2    0    0  0.23179028275E+02  0.15468663665E+01  0.21841713533E+02  0.59301943527E+02  0.49999999087E+02 0.  0.
         12    1    1    2    0    0 -0.23179028275E+02 -0.15468663665E+01 -0.21841713533E+02  0.31886056473E+02  0.00000000000E+00 0. -1.
         11    1    3    3    0    0 -0.14880959936E+01 -0.56189333973E+01 -0.27532808118E+00  0.58191621410E+01  0.51100000000E-03 0. -1.
        -11    1    3    3    0    0  0.65090964848E+01  0.17916458209E+02  0.25783328835E+02  0.32064744781E+02  0.51100000000E-03 0.  1.
         12    1    3    3    0    0  0.18158027784E+02 -0.10750658445E+02 -0.36662872211E+01  0.21418036605E+02  0.00000000000E+00 0. -1.
</event>
<event>
 7    1  0.6593656E-013  0.5930196E+02  0.7816164E-02  0.1266605E+00
        -11   -1    0    0    0    0  0.00000000000E+00  0.00000000000E+00  0.45593999997E+02  0.45594000000E+02  0.51100000000E-03 0.  1.
         11   -1    0    0    0    0 -0.00000000000E+00 -0.00000000000E+00 -0.45593999997E+02  0.45594000000E+02  0.51100000000E-03 0. -1.
    9900012    2    1    2    0    0 -0.30899439947E+00 -0.19856774676E+02  0.24946596643E+02  0.59301958193E+02  0.50000025834E+02 0.  0.
         12    1    1    2    0    0  0.30899439947E+00  0.19856774676E+02 -0.24946596643E+02  0.31886041807E+02  0.00000000000E+00 0. -1.
         11    1    3    3    0    0 -0.11976597409E+02  0.11004330612E+01  0.12871248843E+02  0.17615870273E+02  0.51100000000E-03 0. -1.
        -11    1    3    3    0    0 -0.81873820335E+01 -0.12440358577E+01  0.10891037470E+02  0.13681942377E+02  0.51100000000E-03 0.  1.
         12    1    3    3    0    0  0.19854985043E+02 -0.19713171880E+02  0.11843103298E+01  0.28004145543E+02  0.00000000000E+00 0. -1.
</event>
<event>
 7    1  0.6593656E-013  0.5930192E+02  0.7816164E-02  0.1266605E+00
        -11   -1    0    0    0    0  0.00000000000E+00  0.00000000000E+00  0.45593999997E+02  0.45594000000E+02  0.51100000000E-03 0.  1.
         11   -1    0    0    0    0 -0.00000000000E+00 -0.00000000000E+00 -0.45593999997E+02  0.45594000000E+02  0.51100000000E-03 0. -1.
    9900012    2    1    2    0    0 -0.29697405628E+02 -0.19518644083E+01  0.11444488331E+02  0.59301921708E+02  0.49999959293E+02 0.  0.
         12    1    1    2    0    0  0.29697405628E+02  0.19518644083E+01 -0.11444488331E+02  0.31886078292E+02  0.00000000000E+00 0. -1.
         11    1    3    3    0    0 -0.13929017623E+02 -0.21033509736E+01  0.18613288213E+02  0.23343009995E+02  0.51100000000E-03 0. -1.
        -11    1    3    3    0    0 -0.16411062834E+02  0.20171794550E+01  0.95698880908E+01  0.19104312461E+02  0.51100000000E-03 0.  1.
         12    1    3    3    0    0  0.64267482836E+00 -0.18656928897E+01 -0.16738687973E+02  0.16854599252E+02  0.00000000000E+00 0. -1.
</event>
<event>
 7    1  0.6593656E-013  0.5930212E+02  0.7816164E-02  0.1266604E+00
        -11   -1    0    0    0    0  0.00000000000E+00  0.00000000000E+00  0.45593999997E+02  0.45594000000E+02  0.51100000000E-03 0.  1.
         11   -1    0    0    0    0 -0.00000000000E+00 -0.00000000000E+00 -0.45593999997E+02  0.45594000000E+02  0.51100000000E-03 0. -1.
    9900012    2    1    2    0    0 -0.29354480123E+02 -0.53048188465E+01  0.11264226445E+02  0.59302119054E+02  0.50000319205E+02 0.  0.
         12    1    1    2    0    0  0.29354480123E+02  0.53048188465E+01 -0.11264226445E+02  0.31885880946E+02  0.00000000000E+00 0. -1.
         11    1    3    3    0    0 -0.20843118136E+01 -0.63939196630E+01 -0.55009104269E+01  0.86883013402E+01  0.51100000000E-03 0. -1.
        -11    1    3    3    0    0 -0.31165338896E+02 -0.76996768305E+01  0.96247289358E+00  0.32116813761E+02  0.51100000000E-03 0.  1.
         12    1    3    3    0    0  0.38951705866E+01  0.87887776471E+01  0.15802663978E+02  0.18497003953E+02  0.00000000000E+00 0. -1.
</event>
<event>
 7    1  0.6593656E-013  0.5930190E+02  0.7816164E-02  0.1266605E+00
        -11   -1    0    0    0    0  0.00000000000E+00  0.00000000000E+00  0.45593999997E+02  0.45594000000E+02  0.51100000000E-03 0.  1.
         11   -1    0    0    0    0 -0.00000000000E+00 -0.00000000000E+00 -0.45593999997E+02  0.45594000000E+02  0.51100000000E-03 0. -1.
    9900012    2    1    2    0    0 -0.65960965749E+01 -0.15817428415E+02  0.26889100712E+02  0.59301901637E+02  0.49999922690E+02 0.  0.
         12    1    1    2    0    0  0.65960965749E+01  0.15817428415E+02 -0.26889100712E+02  0.31886098363E+02  0.00000000000E+00 0. -1.
         11    1    3    3    0    0  0.63650962978E+01 -0.73884599919E+01 -0.19514113305E+01  0.99454410849E+01  0.51100000000E-03 0. -1.
        -11    1    3    3    0    0  0.96207849803E+01  0.76836694533E+01  0.88788877574E+01  0.15180017390E+02  0.51100000000E-03 0.  1.
        -12    1    3    3    0    0 -0.22581977853E+02 -0.16112637877E+02  0.19961624285E+02  0.34176443162E+02  0.00000000000E+00 0.  1.
</event>
<event>
 7    1  0.6593656E-013  0.5930192E+02  0.7816164E-02  0.1266605E+00
        -11   -1    0    0    0    0  0.00000000000E+00  0.00000000000E+00  0.45593999997E+02  0.45594000000E+02  0.51100000000E-03 0. -1.
         11   -1    0    0    0    0 -0.00000000000E+00 -0.00000000000E+00 -0.45593999997E+02  0.45594000000E+02  0.51100000000E-03 0.  1.
    9900012    2    1    2    0    0 -0.27952083546E+02  0.10497454604E+02  0.11189585064E+02  0.59301916176E+02  0.49999949205E+02 0.  0.
         12    1    1    2    0    0  0.27952083546E+02 -0.10497454604E+02 -0.11189585064E+02  0.31886083824E+02  0.00000000000E+00 0. -1.
         11    1    3    3    0    0  0.93780722343E+01  0.44021550091E+01  0.18717365656E+01  0.10527611580E+02  0.51100000000E-03 0. -1.
        -11    1    3    3    0    0 -0.11374547441E+00 -0.80582713730E+01  0.15494349480E+01  0.82066695116E+01  0.51100000000E-03 0.  1.
         12    1    3    3    0    0 -0.37216410306E+02  0.14153570968E+02  0.77684135499E+01  0.40567635084E+02  0.00000000000E+00 0. -1.
</event>
<event>
 7    1  0.6593656E-013  0.5930206E+02  0.7816164E-02  0.1266604E+00
        -11   -1    0    0    0    0  0.00000000000E+00  0.00000000000E+00  0.45593999997E+02  0.45594000000E+02  0.51100000000E-03 0.  1.
         11   -1    0    0    0    0 -0.00000000000E+00 -0.00000000000E+00 -0.45593999997E+02  0.45594000000E+02  0.51100000000E-03 0. -1.
    9900012    2    1    2    0    0 -0.62858277847E+00 -0.31864370356E+02  0.98978455319E+00  0.59302064418E+02  0.50000219562E+02 0.  0.
         12    1    1    2    0    0  0.62858277847E+00  0.31864370356E+02 -0.98978455319E+00  0.31885935582E+02  0.00000000000E+00 0. -1.
         11    1    3    3    0    0  0.14603247167E+02 -0.15828892748E+01  0.30752432418E+01  0.15007247834E+02  0.51100000000E-03 0. -1.
        -11    1    3    3    0    0  0.78504717757E+01 -0.28664259904E+01 -0.12213469450E+01  0.84461821955E+01  0.51100000000E-03 0.  1.
         12    1    3    3    0    0 -0.23082301722E+02 -0.27415055091E+02 -0.86411174358E+00  0.35848634388E+02  0.00000000000E+00 0. -1.
</event>
<event>
 7    1  0.6593656E-013  0.5930194E+02  0.7816164E-02  0.1266605E+00
        -11   -1    0    0    0    0  0.00000000000E+00  0.00000000000E+00  0.45593999997E+02  0.45594000000E+02  0.51100000000E-03 0. -1.
         11   -1    0    0    0    0 -0.00000000000E+00 -0.00000000000E+00 -0.45593999997E+02  0.45594000000E+02  0.51100000000E-03 0.  1.
    9900012    2    1    2    0    0  0.60999891419E+01 -0.19073492191E+02 -0.24813560236E+02  0.59301941236E+02  0.49999994909E+02 0.  0.
         12    1    1    2    0    0 -0.60999891419E+01  0.19073492191E+02  0.24813560236E+02  0.31886058764E+02  0.00000000000E+00 0. -1.
         11    1    3    3    0    0 -0.11533964017E+01  0.30525399524E+01 -0.14721076148E+01  0.35798637559E+01  0.51100000000E-03 0. -1.
        -11    1    3    3    0    0 -0.12600516787E+02 -0.23688175264E+02 -0.23706244172E+02  0.35803473067E+02  0.51100000000E-03 0.  1.
         12    1    3    3    0    0  0.19853902331E+02  0.15621431203E+01  0.36479155104E+00  0.19918604413E+02  0.00000000000E+00 0. -1.
</event>
<event>
 7    1  0.6593656E-013  0.5930194E+02  0.7816164E-02  0.1266605E+00
        -11   -1    0    0    0    0  0.00000000000E+00  0.00000000000E+00  0.45593999997E+02  0.45594000000E+02  0.51100000000E-03 0. -1.
         11   -1    0    0    0    0 -0.00000000000E+00 -0.00000000000E+00 -0.45593999997E+02  0.45594000000E+02  0.51100000000E-03 0.  1.
    9900012    2    1    2    0    0  0.67392530455E+01 -0.13018883983E+02 -0.28316288244E+02  0.59301936404E+02  0.49999986095E+02 0.  0.
         12    1    1    2    0    0 -0.67392530455E+01  0.13018883983E+02  0.28316288244E+02  0.31886063596E+02  0.00000000000E+00 0. -1.
         11    1    3    3    0    0  0.78889275522E+01  0.57926533884E+01  0.21417701076E+01  0.10018841782E+02  0.51100000000E-03 0. -1.
        -11    1    3    3    0    0 -0.11088579843E+02 -0.16124371373E+02 -0.27969582772E+01  0.19768028000E+02  0.51100000000E-03 0.  1.
         12    1    3    3    0    0  0.99389053365E+01 -0.26871659985E+01 -0.27661100074E+02  0.29515066622E+02  0.00000000000E+00 0. -1.
</event>
<event>
 7    1  0.6593656E-013  0.5930195E+02  0.7816164E-02  0.1266605E+00
        -11   -1    0    0    0    0  0.00000000000E+00  0.00000000000E+00  0.45593999997E+02  0.45594000000E+02  0.51100000000E-03 0. -1.
         11   -1    0    0    0    0 -0.00000000000E+00 -0.00000000000E+00 -0.45593999997E+02  0.45594000000E+02  0.51100000000E-03 0.  1.
    9900012    2    1    2    0    0  0.28693635788E+02  0.13789507589E+02  0.18014200041E+01  0.59301947119E+02  0.50000005638E+02 0.  0.
         12    1    1    2    0    0 -0.28693635788E+02 -0.13789507589E+02 -0.18014200041E+01  0.31886052881E+02  0.00000000000E+00 0. -1.
         11    1    3    3    0    0  0.51486491301E+01  0.10469080468E+02  0.11048620427E+02  0.16068050513E+02  0.51100000000E-03 0. -1.
        -11    1    3    3    0    0 -0.82049626487E+01  0.53943378340E+01 -0.53394617417E+01  0.11177215426E+02  0.51100000000E-03 0.  1.
        -12    1    3    3    0    0  0.31749949307E+02 -0.20739107123E+01 -0.39077386810E+01  0.32056681179E+02  0.00000000000E+00 0.  1.
</event>
<event>
 7    1  0.6593656E-013  0.5930194E+02  0.7816164E-02  0.1266605E+00
        -11   -1    0    0    0    0  0.00000000000E+00  0.00000000000E+00  0.45593999997E+02  0.45594000000E+02  0.51100000000E-03 0. -1.
         11   -1    0    0    0    0 -0.00000000000E+00 -0.00000000000E+00 -0.45593999997E+02  0.45594000000E+02  0.51100000000E-03 0.  1.
    9900012    2    1    2    0    0 -0.31850674976E+02  0.13247697152E+00  0.14958353235E+01  0.59301943958E+02  0.49999999874E+02 0.  0.
         12    1    1    2    0    0  0.31850674976E+02 -0.13247697152E+00 -0.14958353235E+01  0.31886056042E+02  0.00000000000E+00 0. -1.
         11    1    3    3    0    0 -0.22375775095E+02 -0.17825545037E+01 -0.90082855916E+00  0.22464734675E+02  0.51100000000E-03 0. -1.
        -11    1    3    3    0    0 -0.78834502994E+01  0.10789751546E+01 -0.16255581772E+02  0.18098533505E+02  0.51100000000E-03 0.  1.
         12    1    3    3    0    0 -0.15914495811E+01  0.83605632060E+00  0.18652245655E+02  0.18738675778E+02  0.00000000000E+00 0. -1.
</event>
<event>
 7    1  0.6593656E-013  0.5930194E+02  0.7816164E-02  0.1266605E+00
        -11   -1    0    0    0    0  0.00000000000E+00  0.00000000000E+00  0.45593999997E+02  0.45594000000E+02  0.51100000000E-03 0. -1.
         11   -1    0    0    0    0 -0.00000000000E+00 -0.00000000000E+00 -0.45593999997E+02  0.45594000000E+02  0.51100000000E-03 0.  1.
    9900012    2    1    2    0    0 -0.18950612238E+02  0.28460856775E+01 -0.25485194728E+02  0.59301936301E+02  0.49999985908E+02 0.  0.
         12    1    1    2    0    0  0.18950612238E+02 -0.28460856775E+01  0.25485194728E+02  0.31886063699E+02  0.00000000000E+00 0. -1.
         11    1    3    3    0    0 -0.13908060474E+02  0.67332760154E+01 -0.13442497805E+02  0.20481013148E+02  0.51100000000E-03 0. -1.
        -11    1    3    3    0    0 -0.18682918912E+02  0.64062266894E+01 -0.52919681266E+01  0.20447399013E+02  0.51100000000E-03 0.  1.
         12    1    3    3    0    0  0.13640367149E+02 -0.10293417027E+02 -0.67507287964E+01  0.18373524140E+02  0.00000000000E+00 0. -1.
</event>
<event>
 7    1  0.6593656E-013  0.5930194E+02  0.7816164E-02  0.1266605E+00
        -11   -1    0    0    0    0  0.00000000000E+00  0.00000000000E+00  0.45593999997E+02  0.45594000000E+02  0.51100000000E-03 0.  1.
         11   -1    0    0    0    0 -0.00000000000E+00 -0.00000000000E+00 -0.45593999997E+02  0.45594000000E+02  0.51100000000E-03 0. -1.
    9900012    2    1    2    0    0 -0.16936107792E+02  0.11251420079E+02  0.24562056608E+02  0.59301939947E+02  0.49999992557E+02 0.  0.
         12    1    1    2    0    0  0.16936107792E+02 -0.11251420079E+02 -0.24562056608E+02  0.31886060053E+02  0.00000000000E+00 0. -1.
         11    1    3    3    0    0 -0.60654464508E+01  0.75069116887E+01 -0.75028446155E+01  0.12224403517E+02  0.51100000000E-03 0. -1.
        -11    1    3    3    0    0 -0.63144560627E+01 -0.11462280404E+02  0.22201589600E+01  0.13273482343E+02  0.51100000000E-03 0.  1.
        -12    1    3    3    0    0 -0.45562052780E+01  0.15206788795E+02  0.29844742263E+02  0.33804054087E+02  0.00000000000E+00 0.  1.
</event>
<event>
 7    1  0.6593656E-013  0.5930196E+02  0.7816164E-02  0.1266605E+00
        -11   -1    0    0    0    0  0.00000000000E+00  0.00000000000E+00  0.45593999997E+02  0.45594000000E+02  0.51100000000E-03 0. -1.
         11   -1    0    0    0    0 -0.00000000000E+00 -0.00000000000E+00 -0.45593999997E+02  0.45594000000E+02  0.51100000000E-03 0.  1.
    9900012    2    1    2    0    0 -0.29172538637E+02  0.68989041766E+01 -0.10866810385E+02  0.59301961404E+02  0.50000031690E+02 0.  0.
         12    1    1    2    0    0  0.29172538637E+02 -0.68989041766E+01  0.10866810385E+02  0.31886038596E+02  0.00000000000E+00 0. -1.
         11    1    3    3    0    0 -0.10739773830E+02  0.12497766109E+02 -0.10441822231E+02  0.19508166274E+02  0.51100000000E-03 0. -1.
        -11    1    3    3    0    0 -0.22136017012E+02  0.14159179071E+01 -0.12413548222E+02  0.25418580850E+02  0.51100000000E-03 0.  1.
         12    1    3    3    0    0  0.37032522046E+01 -0.70147798392E+01  0.11988560068E+02  0.14375214280E+02  0.00000000000E+00 0. -1.
</event>
<event>
 7    1  0.6593656E-013  0.5930195E+02  0.7816164E-02  0.1266605E+00
        -11   -1    0    0    0    0  0.00000000000E+00  0.00000000000E+00  0.45593999997E+02  0.45594000000E+02  0.51100000000E-03 0.  1.
         11   -1    0    0    0    0 -0.00000000000E+00 -0.00000000000E+00 -0.45593999997E+02  0.45594000000E+02  0.51100000000E-03 0. -1.
    9900012    2    1    2    0    0 -0.17710330216E+02  0.21609758912E+02  0.15364975457E+02  0.59301953720E+02  0.50000017677E+02 0.  0.
         12    1    1    2    0    0  0.17710330216E+02 -0.21609758912E+02 -0.15364975457E+02  0.31886046280E+02  0.00000000000E+00 0. -1.
         11    1    3    3    0    0 -0.23656983827E+01  0.21540544219E+02  0.68975362102E+00  0.21681036285E+02  0.51100000000E-03 0. -1.
        -11    1    3    3    0    0 -0.13215580151E+01  0.12439548903E+02 -0.18750149395E+01  0.12649291434E+02  0.51100000000E-03 0.  1.
         12    1    3    3    0    0 -0.14023073818E+02 -0.12370334211E+02  0.16550236775E+02  0.24971626001E+02  0.00000000000E+00 0. -1.
</event>
<event>
 7    1  0.6593656E-013  0.5930193E+02  0.7816164E-02  0.1266605E+00
        -11   -1    0    0    0    0  0.00000000000E+00  0.00000000000E+00  0.45593999997E+02  0.45594000000E+02  0.51100000000E-03 0. -1.
         11   -1    0    0    0    0 -0.00000000000E+00 -0.00000000000E+00 -0.45593999997E+02  0.45594000000E+02  0.51100000000E-03 0.  1.
    9900012    2    1    2    0    0 -0.49592320816E+01 -0.31485363516E+02 -0.89404165627E+00  0.59301930800E+02  0.49999975875E+02 0.  0.
         12    1    1    2    0    0  0.49592320816E+01  0.31485363516E+02  0.89404165627E+00  0.31886069200E+02  0.00000000000E+00 0. -1.
         11    1    3    3    0    0  0.56565599346E+00 -0.12648189430E+01 -0.17032063466E+02  0.17088327005E+02  0.51100000000E-03 0. -1.
        -11    1    3    3    0    0  0.61918549723E+01 -0.39802904173E+01  0.10666914213E+02  0.12960124957E+02  0.51100000000E-03 0.  1.
        -12    1    3    3    0    0 -0.11716743047E+02 -0.26240254155E+02  0.54711075972E+01  0.29253478838E+02  0.00000000000E+00 0.  1.
</event>
<event>
 7    1  0.6593656E-013  0.5930196E+02  0.7816164E-02  0.1266605E+00
        -11   -1    0    0    0    0  0.00000000000E+00  0.00000000000E+00  0.45593999997E+02  0.45594000000E+02  0.51100000000E-03 0.  1.
         11   -1    0    0    0    0 -0.00000000000E+00 -0.00000000000E+00 -0.45593999997E+02  0.45594000000E+02  0.51100000000E-03 0. -1.
    9900012    2    1    2    0    0  0.18625272278E+02  0.89576383401E+01  0.24281254730E+02  0.59301962565E+02  0.50000033807E+02 0.  0.
         12    1    1    2    0    0 -0.18625272278E+02 -0.89576383401E+01 -0.24281254730E+02  0.31886037435E+02  0.00000000000E+00 0. -1.
         11    1    3    3    0    0  0.77338008182E+01  0.11083185116E+02 -0.18621310925E+01  0.13642441126E+02  0.51100000000E-03 0. -1.
        -11    1    3    3    0    0 -0.86809671806E+01  0.10345804129E+02  0.54429686409E+01  0.14560932737E+02  0.51100000000E-03 0.  1.
        -12    1    3    3    0    0  0.19572438641E+02 -0.12471350905E+02  0.20700417182E+02  0.31098588702E+02  0.00000000000E+00 0.  1.
</event>
<event>
 7    1  0.6593656E-013  0.5930196E+02  0.7816164E-02  0.1266605E+00
        -11   -1    0    0    0    0  0.00000000000E+00  0.00000000000E+00  0.45593999997E+02  0.45594000000E+02  0.51100000000E-03 0.  1.
         11   -1    0    0    0    0 -0.00000000000E+00 -0.00000000000E+00 -0.45593999997E+02  0.45594000000E+02  0.51100000000E-03 0. -1.
    9900012    2    1    2    0    0  0.31080266146E+02 -0.29964616021E+01  0.64620097215E+01  0.59301963942E+02  0.50000036319E+02 0.  0.
         12    1    1    2    0    0 -0.31080266146E+02  0.29964616021E+01 -0.64620097215E+01  0.31886036058E+02  0.00000000000E+00 0. -1.
         11    1    3    3    0    0  0.11874288040E+01  0.63205239007E+01  0.79849009104E+01  0.10252690006E+02  0.51100000000E-03 0. -1.
        -11    1    3    3    0    0 -0.36452959874E+01 -0.11570620419E+02  0.74784783806E+01  0.14251143072E+02  0.51100000000E-03 0.  1.
         12    1    3    3    0    0  0.33538133329E+02  0.22536349157E+01 -0.90013695695E+01  0.34798130865E+02  0.00000000000E+00 0. -1.
</event>
<event>
 7    1  0.6593656E-013  0.5930195E+02  0.7816164E-02  0.1266605E+00
        -11   -1    0    0    0    0  0.00000000000E+00  0.00000000000E+00  0.45593999997E+02  0.45594000000E+02  0.51100000000E-03 0.  1.
         11   -1    0    0    0    0 -0.00000000000E+00 -0.00000000000E+00 -0.45593999997E+02  0.45594000000E+02  0.51100000000E-03 0. -1.
    9900012    2    1    2    0    0 -0.23367171961E+01  0.78318453907E+01  0.30820802418E+02  0.59301954288E+02  0.50000018712E+02 0.  0.
         12    1    1    2    0    0  0.23367171961E+01 -0.78318453907E+01 -0.30820802418E+02  0.31886045712E+02  0.00000000000E+00 0. -1.
         11    1    3    3    0    0 -0.38173136999E+01  0.50582180936E+01 -0.63670046113E+01  0.89831064865E+01  0.51100000000E-03 0. -1.
        -11    1    3    3    0    0 -0.90369932443E+00  0.82163309353E+01 -0.36608484576E+01  0.90402753386E+01  0.51100000000E-03 0.  1.
        -12    1    3    3    0    0  0.23842958283E+01 -0.54427036383E+01  0.40848655487E+02  0.41278572463E+02  0.00000000000E+00 0.  1.
</event>
<event>
 7    1  0.6593656E-013  0.5930193E+02  0.7816164E-02  0.1266605E+00
        -11   -1    0    0    0    0  0.00000000000E+00  0.00000000000E+00  0.45593999997E+02  0.45594000000E+02  0.51100000000E-03 0. -1.
         11   -1    0    0    0    0 -0.00000000000E+00 -0.00000000000E+00 -0.45593999997E+02  0.45594000000E+02  0.51100000000E-03 0.  1.
    9900012    2    1    2    0    0 -0.22886914682E+02 -0.20083273923E+02  0.94642852434E+01  0.59301930153E+02  0.49999974696E+02 0.  0.
         12    1    1    2    0    0  0.22886914682E+02  0.20083273923E+02 -0.94642852434E+01  0.31886069847E+02  0.00000000000E+00 0. -1.
         11    1    3    3    0    0 -0.19909224158E+02  0.70296882487E+01  0.93792363787E+01  0.23103328737E+02  0.51100000000E-03 0. -1.
        -11    1    3    3    0    0  0.73718457985E+01 -0.21055550483E+01 -0.42861839618E+01  0.87834415666E+01  0.51100000000E-03 0.  1.
        -12    1    3    3    0    0 -0.10349536323E+02 -0.25007407123E+02  0.43712328265E+01  0.27415159849E+02  0.00000000000E+00 0.  1.
</event>
<event>
 7    1  0.6593656E-013  0.5930197E+02  0.7816164E-02  0.1266605E+00
        -11   -1    0    0    0    0  0.00000000000E+00  0.00000000000E+00  0.45593999997E+02  0.45594000000E+02  0.51100000000E-03 0. -1.
         11   -1    0    0    0    0 -0.00000000000E+00 -0.00000000000E+00 -0.45593999997E+02  0.45594000000E+02  0.51100000000E-03 0.  1.
    9900012    2    1    2    0    0  0.16917243430E+02 -0.25611928986E+02 -0.86345040311E+01  0.59301973413E+02  0.50000053591E+02 0.  0.
         12    1    1    2    0    0 -0.16917243430E+02  0.25611928986E+02  0.86345040311E+01  0.31886026587E+02  0.00000000000E+00 0. -1.
         11    1    3    3    0    0  0.84120839675E+01  0.47183152696E+01 -0.40211926818E+01  0.10449672076E+02  0.51100000000E-03 0. -1.
        -11    1    3    3    0    0 -0.57030005143E+01  0.36404566054E+01 -0.95465626594E+01  0.11701025512E+02  0.51100000000E-03 0.  1.
         12    1    3    3    0    0  0.14208159977E+02 -0.33970700861E+02  0.49332513101E+01  0.37151275824E+02  0.00000000000E+00 0. -1.
</event>
<event>
 7    1  0.6593656E-013  0.5930202E+02  0.7816164E-02  0.1266605E+00
        -11   -1    0    0    0    0  0.00000000000E+00  0.00000000000E+00  0.45593999997E+02  0.45594000000E+02  0.51100000000E-03 0. -1.
         11   -1    0    0    0    0 -0.00000000000E+00 -0.00000000000E+00 -0.45593999997E+02  0.45594000000E+02  0.51100000000E-03 0.  1.
    9900012    2    1    2    0    0 -0.28455981783E+02 -0.13713889561E+02 -0.43476822340E+01  0.59302015509E+02  0.50000130365E+02 0.  0.
         12    1    1    2    0    0  0.28455981783E+02  0.13713889561E+02  0.43476822340E+01  0.31885984491E+02  0.00000000000E+00 0. -1.
         11    1    3    3    0    0 -0.17737112724E+02 -0.40400234725E+01 -0.45608275823E+01  0.18754415639E+02  0.51100000000E-03 0. -1.
        -11    1    3    3    0    0 -0.15145658457E+01  0.59607957015E+01 -0.15418293677E+02  0.16599661902E+02  0.51100000000E-03 0.  1.
        -12    1    3    3    0    0 -0.92043032130E+01 -0.15634661790E+02  0.15631439026E+02  0.23947937968E+02  0.00000000000E+00 0.  1.
</event>
<event>
 7    1  0.6593656E-013  0.5930203E+02  0.7816164E-02  0.1266604E+00
        -11   -1    0    0    0    0  0.00000000000E+00  0.00000000000E+00  0.45593999997E+02  0.45594000000E+02  0.51100000000E-03 0.  1.
         11   -1    0    0    0    0 -0.00000000000E+00 -0.00000000000E+00 -0.45593999997E+02  0.45594000000E+02  0.51100000000E-03 0. -1.
    9900012    2    1    2    0    0  0.18483976791E+02  0.22259060498E+02  0.13401181808E+02  0.59302033712E+02  0.50000163562E+02 0.  0.
         12    1    1    2    0    0 -0.18483976791E+02 -0.22259060498E+02 -0.13401181808E+02  0.31885966288E+02  0.00000000000E+00 0. -1.
         11    1    3    3    0    0  0.68220306004E+01  0.12892062779E+02 -0.29855714165E+01  0.14888217528E+02  0.51100000000E-03 0.  1.
        -11    1    3    3    0    0  0.54349886946E+00 -0.93147342125E+01  0.20284137801E+02  0.22327245935E+02  0.51100000000E-03 0. -1.
         12    1    3    3    0    0  0.11118447321E+02  0.18681731932E+02 -0.38973845768E+01  0.22086570249E+02  0.00000000000E+00 0. -1.
</event>
<event>
 7    1  0.6593656E-013  0.5930195E+02  0.7816164E-02  0.1266605E+00
        -11   -1    0    0    0    0  0.00000000000E+00  0.00000000000E+00  0.45593999997E+02  0.45594000000E+02  0.51100000000E-03 0. -1.
         11   -1    0    0    0    0 -0.00000000000E+00 -0.00000000000E+00 -0.45593999997E+02  0.45594000000E+02  0.51100000000E-03 0.  1.
    9900012    2    1    2    0    0 -0.18456616571E+02  0.18810151333E+02 -0.17951377493E+02  0.59301945959E+02  0.50000003522E+02 0.  0.
         12    1    1    2    0    0  0.18456616571E+02 -0.18810151333E+02  0.17951377493E+02  0.31886054041E+02  0.00000000000E+00 0. -1.
         11    1    3    3    0    0  0.14268882964E+01 -0.29532049664E+00  0.29474539449E+01  0.32879643284E+01  0.51100000000E-03 0. -1.
        -11    1    3    3    0    0 -0.10641143529E+02 -0.93021347128E+01  0.64284466739E+01  0.15527027169E+02  0.51100000000E-03 0.  1.
        -12    1    3    3    0    0 -0.92423613388E+01  0.28407606542E+02 -0.27327278111E+02  0.40486954461E+02  0.00000000000E+00 0.  1.
</event>
<event>
 7    1  0.6593656E-013  0.5930170E+02  0.7816164E-02  0.1266606E+00
        -11   -1    0    0    0    0  0.00000000000E+00  0.00000000000E+00  0.45593999997E+02  0.45594000000E+02  0.51100000000E-03 0. -1.
         11   -1    0    0    0    0 -0.00000000000E+00 -0.00000000000E+00 -0.45593999997E+02  0.45594000000E+02  0.51100000000E-03 0.  1.
    9900012    2    1    2    0    0  0.14801913731E+02 -0.91142267045E+01 -0.26731448811E+02  0.59301699900E+02  0.49999554767E+02 0.  0.
         12    1    1    2    0    0 -0.14801913731E+02  0.91142267045E+01  0.26731448811E+02  0.31886300100E+02  0.00000000000E+00 0. -1.
         11    1    3    3    0    0  0.83257915405E+01  0.15513656853E+02 -0.82964923333E+01  0.19463405124E+02  0.51100000000E-03 0. -1.
        -11    1    3    3    0    0  0.78486377194E+01  0.19211443728E+01 -0.77208062453E+01  0.11175990296E+02  0.51100000000E-03 0.  1.
        -12    1    3    3    0    0 -0.13725155285E+01 -0.26549027930E+02 -0.10714150233E+02  0.28662304480E+02  0.00000000000E+00 0.  1.
</event>
<event>
 7    1  0.6593656E-013  0.5930194E+02  0.7816164E-02  0.1266605E+00
        -11   -1    0    0    0    0  0.00000000000E+00  0.00000000000E+00  0.45593999997E+02  0.45594000000E+02  0.51100000000E-03 0.  1.
         11   -1    0    0    0    0 -0.00000000000E+00 -0.00000000000E+00 -0.45593999997E+02  0.45594000000E+02  0.51100000000E-03 0. -1.
    9900012    2    1    2    0    0  0.31872070269E-01  0.31875250573E+02  0.82977261748E+00  0.59301935058E+02  0.49999983641E+02 0.  0.
         12    1    1    2    0    0 -0.31872070269E-01 -0.31875250573E+02 -0.82977261748E+00  0.31886064942E+02  0.00000000000E+00 0. -1.
         11    1    3    3    0    0 -0.52008665375E+01 -0.69769118516E+00 -0.27492556926E+01  0.59240351835E+01  0.51100000000E-03 0. -1.
        -11    1    3    3    0    0 -0.98309020751E+01  0.34661563649E+02 -0.42407637231E+01  0.36277468316E+02  0.51100000000E-03 0.  1.
         12    1    3    3    0    0  0.15063640683E+02 -0.20886218914E+01  0.78197920332E+01  0.17100431558E+02  0.00000000000E+00 0. -1.
</event>
<event>
 7    1  0.6593656E-013  0.5930194E+02  0.7816164E-02  0.1266605E+00
        -11   -1    0    0    0    0  0.00000000000E+00  0.00000000000E+00  0.45593999997E+02  0.45594000000E+02  0.51100000000E-03 0.  1.
         11   -1    0    0    0    0 -0.00000000000E+00 -0.00000000000E+00 -0.45593999997E+02  0.45594000000E+02  0.51100000000E-03 0. -1.
    9900012    2    1    2    0    0 -0.15418598332E+02 -0.19097881097E+02 -0.20353337463E+02  0.59301943756E+02  0.49999999504E+02 0.  0.
         12    1    1    2    0    0  0.15418598332E+02  0.19097881097E+02  0.20353337463E+02  0.31886056244E+02  0.00000000000E+00 0. -1.
         11    1    3    3    0    0 -0.12522615117E+02 -0.72872764054E+01  0.28084299572E+01  0.14758304979E+02  0.51100000000E-03 0. -1.
        -11    1    3    3    0    0 -0.16046063807E+02 -0.47699532154E+00 -0.58465093669E+00  0.16063794858E+02  0.51100000000E-03 0.  1.
        -12    1    3    3    0    0  0.13150080593E+02 -0.11333609370E+02 -0.22577116483E+02  0.28479843919E+02  0.00000000000E+00 0.  1.
</event>
<event>
 7    1  0.6593656E-013  0.5930192E+02  0.7816164E-02  0.1266605E+00
        -11   -1    0    0    0    0  0.00000000000E+00  0.00000000000E+00  0.45593999997E+02  0.45594000000E+02  0.51100000000E-03 0.  1.
         11   -1    0    0    0    0 -0.00000000000E+00 -0.00000000000E+00 -0.45593999997E+02  0.45594000000E+02  0.51100000000E-03 0. -1.
    9900012    2    1    2    0    0 -0.26382379604E+01  0.28163906545E+01  0.31651690472E+02  0.59301923640E+02  0.49999962819E+02 0.  0.
         12    1    1    2    0    0  0.26382379604E+01 -0.28163906545E+01 -0.31651690472E+02  0.31886076360E+02  0.00000000000E+00 0. -1.
         11    1    3    3    0    0 -0.45960611327E+01  0.10271271459E+02  0.14619327542E+02  0.18448510329E+02  0.51100000000E-03 0. -1.
        -11    1    3    3    0    0 -0.70081135474E+01 -0.58404816576E+01  0.26312426664E+02  0.27849033712E+02  0.51100000000E-03 0.  1.
         12    1    3    3    0    0  0.89659367197E+01 -0.16143991471E+01 -0.92800637335E+01  0.13004379599E+02  0.00000000000E+00 0. -1.
</event>
<event>
 7    1  0.6593656E-013  0.5930192E+02  0.7816164E-02  0.1266605E+00
        -11   -1    0    0    0    0  0.00000000000E+00  0.00000000000E+00  0.45593999997E+02  0.45594000000E+02  0.51100000000E-03 0. -1.
         11   -1    0    0    0    0 -0.00000000000E+00 -0.00000000000E+00 -0.45593999997E+02  0.45594000000E+02  0.51100000000E-03 0.  1.
    9900012    2    1    2    0    0  0.90154810560E+01  0.19471129114E+02 -0.23586404993E+02  0.59301917329E+02  0.49999951307E+02 0.  0.
         12    1    1    2    0    0 -0.90154810560E+01 -0.19471129114E+02  0.23586404993E+02  0.31886082671E+02  0.00000000000E+00 0. -1.
         11    1    3    3    0    0  0.21292677141E+02  0.82098087468E+01 -0.85300541318E+01  0.24362694498E+02  0.51100000000E-03 0. -1.
        -11    1    3    3    0    0 -0.34296405270E+01  0.16962610852E+02 -0.94070836786E+00  0.17331403104E+02  0.51100000000E-03 0.  1.
         12    1    3    3    0    0 -0.88475555575E+01 -0.57012904844E+01 -0.14115642493E+02  0.17607819726E+02  0.00000000000E+00 0. -1.
</event>
<event>
 7    1  0.6593656E-013  0.5930192E+02  0.7816164E-02  0.1266605E+00
        -11   -1    0    0    0    0  0.00000000000E+00  0.00000000000E+00  0.45593999997E+02  0.45594000000E+02  0.51100000000E-03 0.  1.
         11   -1    0    0    0    0 -0.00000000000E+00 -0.00000000000E+00 -0.45593999997E+02  0.45594000000E+02  0.51100000000E-03 0. -1.
    9900012    2    1    2    0    0  0.30972614237E+02  0.41814964286E+01  0.63193881847E+01  0.59301915071E+02  0.49999947190E+02 0.  0.
         12    1    1    2    0    0 -0.30972614237E+02 -0.41814964286E+01 -0.63193881847E+01  0.31886084929E+02  0.00000000000E+00 0. -1.
         11    1    3    3    0    0  0.12743228507E+02  0.90045953195E+01 -0.13743882296E+02  0.20793434312E+02  0.51100000000E-03 0. -1.
        -11    1    3    3    0    0  0.11695012013E+02  0.47665801534E+01 -0.27395237723E+01  0.12922793162E+02  0.51100000000E-03 0.  1.
        -12    1    3    3    0    0  0.65343737175E+01 -0.95896790442E+01  0.22802794253E+02  0.25585687597E+02  0.00000000000E+00 0.  1.
</event>
<event>
 7    1  0.6593656E-013  0.5930193E+02  0.7816164E-02  0.1266605E+00
        -11   -1    0    0    0    0  0.00000000000E+00  0.00000000000E+00  0.45593999997E+02  0.45594000000E+02  0.51100000000E-03 0. -1.
         11   -1    0    0    0    0 -0.00000000000E+00 -0.00000000000E+00 -0.45593999997E+02  0.45594000000E+02  0.51100000000E-03 0.  1.
    9900012    2    1    2    0    0  0.25942806351E+02 -0.91960163514E+01 -0.16097377892E+02  0.59301929481E+02  0.49999973471E+02 0.  0.
         12    1    1    2    0    0 -0.25942806351E+02  0.91960163514E+01  0.16097377892E+02  0.31886070519E+02  0.00000000000E+00 0. -1.
         11    1    3    3    0    0 -0.91777104361E+00 -0.29768578509E+01 -0.10353644965E+02  0.10812120545E+02  0.51100000000E-03 0. -1.
        -11    1    3    3    0    0  0.24042840177E+02 -0.20118097787E+02  0.35261052969E+01  0.31547257268E+02  0.51100000000E-03 0.  1.
         12    1    3    3    0    0  0.28177372183E+01  0.13898939287E+02 -0.92698382246E+01  0.16942551668E+02  0.00000000000E+00 0. -1.
</event>
<event>
 7    1  0.6593656E-013  0.5930192E+02  0.7816164E-02  0.1266605E+00
        -11   -1    0    0    0    0  0.00000000000E+00  0.00000000000E+00  0.45593999997E+02  0.45594000000E+02  0.51100000000E-03 0.  1.
         11   -1    0    0    0    0 -0.00000000000E+00 -0.00000000000E+00 -0.45593999997E+02  0.45594000000E+02  0.51100000000E-03 0. -1.
    9900012    2    1    2    0    0 -0.81361688690E+01  0.20795927056E+02  0.22760801886E+02  0.59301922654E+02  0.49999961020E+02 0.  0.
         12    1    1    2    0    0  0.81361688690E+01 -0.20795927056E+02 -0.22760801886E+02  0.31886077346E+02  0.00000000000E+00 0. -1.
         11    1    3    3    0    0  0.54775413514E+01 -0.19872211187E+01  0.11683148532E+02  0.13055591404E+02  0.51100000000E-03 0. -1.
        -11    1    3    3    0    0 -0.34571112173E+01  0.25174213007E+02  0.20141658373E+02  0.32424975263E+02  0.51100000000E-03 0.  1.
         12    1    3    3    0    0 -0.10156599003E+02 -0.23910648320E+01 -0.90640050195E+01  0.13821355987E+02  0.00000000000E+00 0. -1.
</event>
<event>
 7    1  0.6593656E-013  0.5930197E+02  0.7816164E-02  0.1266605E+00
        -11   -1    0    0    0    0  0.00000000000E+00  0.00000000000E+00  0.45593999997E+02  0.45594000000E+02  0.51100000000E-03 0.  1.
         11   -1    0    0    0    0 -0.00000000000E+00 -0.00000000000E+00 -0.45593999997E+02  0.45594000000E+02  0.51100000000E-03 0. -1.
    9900012    2    1    2    0    0 -0.29416760787E+02  0.86726463725E+00  0.12272772919E+02  0.59301969857E+02  0.50000047106E+02 0.  0.
         12    1    1    2    0    0  0.29416760787E+02 -0.86726463725E+00 -0.12272772919E+02  0.31886030143E+02  0.00000000000E+00 0. -1.
         11    1    3    3    0    0 -0.22585833864E+01  0.41409250731E+01  0.64451432870E-01  0.47172676013E+01  0.51100000000E-03 0. -1.
        -11    1    3    3    0    0 -0.28179019974E+02  0.16565741280E+02  0.11681007287E+02  0.34712056728E+02  0.51100000000E-03 0.  1.
        -12    1    3    3    0    0  0.10208425725E+01 -0.19839401715E+02  0.52731419880E+00  0.19872645527E+02  0.00000000000E+00 0.  1.
</event>
<event>
 7    1  0.6593656E-013  0.5930193E+02  0.7816164E-02  0.1266605E+00
        -11   -1    0    0    0    0  0.00000000000E+00  0.00000000000E+00  0.45593999997E+02  0.45594000000E+02  0.51100000000E-03 0.  1.
         11   -1    0    0    0    0 -0.00000000000E+00 -0.00000000000E+00 -0.45593999997E+02  0.45594000000E+02  0.51100000000E-03 0. -1.
    9900012    2    1    2    0    0 -0.44697442541E+01 -0.27886024683E+02  0.14802441718E+02  0.59301933025E+02  0.49999979934E+02 0.  0.
         12    1    1    2    0    0  0.44697442541E+01  0.27886024683E+02 -0.14802441718E+02  0.31886066975E+02  0.00000000000E+00 0. -1.
         11    1    3    3    0    0  0.22739261345E+01 -0.22746229115E+01  0.71938530703E-02  0.32163179985E+01  0.51100000000E-03 0. -1.
        -11    1    3    3    0    0  0.33204484168E+01 -0.34131594293E+02  0.22307177107E+02  0.40909671930E+02  0.51100000000E-03 0.  1.
        -12    1    3    3    0    0 -0.10064118805E+02  0.85201925218E+01 -0.75119292419E+01  0.15175943097E+02  0.00000000000E+00 0.  1.
</event>
<event>
 7    1  0.6593656E-013  0.5930201E+02  0.7816164E-02  0.1266605E+00
        -11   -1    0    0    0    0  0.00000000000E+00  0.00000000000E+00  0.45593999997E+02  0.45594000000E+02  0.51100000000E-03 0.  1.
         11   -1    0    0    0    0 -0.00000000000E+00 -0.00000000000E+00 -0.45593999997E+02  0.45594000000E+02  0.51100000000E-03 0. -1.
    9900012    2    1    2    0    0 -0.23719578807E+02 -0.89376589741E+01  0.19344676061E+02  0.59302005291E+02  0.50000111729E+02 0.  0.
         12    1    1    2    0    0  0.23719578807E+02  0.89376589741E+01 -0.19344676061E+02  0.31885994709E+02  0.00000000000E+00 0. -1.
         11    1    3    3    0    0 -0.23655728797E+02 -0.15145646504E+02  0.41525634018E+00  0.28091930354E+02  0.51100000000E-03 0. -1.
        -11    1    3    3    0    0 -0.11817326140E+02  0.53604272468E+01  0.88910244361E+01  0.15730025212E+02  0.51100000000E-03 0.  1.
        -12    1    3    3    0    0  0.11753476131E+02  0.84756028330E+00  0.10038395284E+02  0.15480049725E+02  0.00000000000E+00 0.  1.
</event>
<event>
 7    1  0.6593656E-013  0.5930196E+02  0.7816164E-02  0.1266605E+00
        -11   -1    0    0    0    0  0.00000000000E+00  0.00000000000E+00  0.45593999997E+02  0.45594000000E+02  0.51100000000E-03 0.  1.
         11   -1    0    0    0    0 -0.00000000000E+00 -0.00000000000E+00 -0.45593999997E+02  0.45594000000E+02  0.51100000000E-03 0. -1.
    9900012    2    1    2    0    0  0.92838142970E+01 -0.23884651062E+01  0.30410947508E+02  0.59301957571E+02  0.50000024700E+02 0.  0.
         12    1    1    2    0    0 -0.92838142970E+01  0.23884651062E+01 -0.30410947508E+02  0.31886042429E+02  0.00000000000E+00 0. -1.
         11    1    3    3    0    0  0.85907233614E+01 -0.88869058809E+01 -0.73399638979E+00  0.12382098973E+02  0.51100000000E-03 0. -1.
        -11    1    3    3    0    0  0.92410194844E+01 -0.86182975170E+01  0.17202323841E+01  0.12752673952E+02  0.51100000000E-03 0.  1.
        -12    1    3    3    0    0 -0.85479285488E+01  0.15116738292E+02  0.29424711513E+02  0.34167184647E+02  0.00000000000E+00 0.  1.
</event>
<event>
 7    1  0.6593656E-013  0.5930194E+02  0.7816164E-02  0.1266605E+00
        -11   -1    0    0    0    0  0.00000000000E+00  0.00000000000E+00  0.45593999997E+02  0.45594000000E+02  0.51100000000E-03 0. -1.
         11   -1    0    0    0    0 -0.00000000000E+00 -0.00000000000E+00 -0.45593999997E+02  0.45594000000E+02  0.51100000000E-03 0.  1.
    9900012    2    1    2    0    0 -0.28632128028E+01  0.20565475107E+02 -0.24198839551E+02  0.59301943650E+02  0.49999999311E+02 0.  0.
         12    1    1    2    0    0  0.28632128028E+01 -0.20565475107E+02  0.24198839551E+02  0.31886056350E+02  0.00000000000E+00 0. -1.
         11    1    3    3    0    0  0.91502863759E+01  0.83759553639E+01 -0.19868345506E+02  0.23422969975E+02  0.51100000000E-03 0. -1.
        -11    1    3    3    0    0  0.59981592251E+01  0.49736668387E+00 -0.11715179582E+02  0.13170828395E+02  0.51100000000E-03 0.  1.
         12    1    3    3    0    0 -0.18011658404E+02  0.11692153059E+02  0.73846855369E+01  0.22708145281E+02  0.00000000000E+00 0. -1.
</event>
<event>
 7    1  0.6593656E-013  0.5930195E+02  0.7816164E-02  0.1266605E+00
        -11   -1    0    0    0    0  0.00000000000E+00  0.00000000000E+00  0.45593999997E+02  0.45594000000E+02  0.51100000000E-03 0.  1.
         11   -1    0    0    0    0 -0.00000000000E+00 -0.00000000000E+00 -0.45593999997E+02  0.45594000000E+02  0.51100000000E-03 0. -1.
    9900012    2    1    2    0    0 -0.68053433819E+01 -0.29744556592E+02  0.92557433902E+01  0.59301950839E+02  0.50000012422E+02 0.  0.
         12    1    1    2    0    0  0.68053433819E+01  0.29744556592E+02 -0.92557433902E+01  0.31886049161E+02  0.00000000000E+00 0. -1.
         11    1    3    3    0    0  0.14492080471E+02 -0.10966888786E+02 -0.50584092919E+01  0.18864796602E+02  0.51100000000E-03 0. -1.
        -11    1    3    3    0    0  0.53080288316E+01 -0.21588787784E+00  0.28634925180E+01  0.60350117907E+01  0.51100000000E-03 0.  1.
         12    1    3    3    0    0 -0.26605452684E+02 -0.18561779928E+02  0.11450660164E+02  0.34402142446E+02  0.00000000000E+00 0. -1.
</event>
<event>
 7    1  0.6593656E-013  0.5930195E+02  0.7816164E-02  0.1266605E+00
        -11   -1    0    0    0    0  0.00000000000E+00  0.00000000000E+00  0.45593999997E+02  0.45594000000E+02  0.51100000000E-03 0. -1.
         11   -1    0    0    0    0 -0.00000000000E+00 -0.00000000000E+00 -0.45593999997E+02  0.45594000000E+02  0.51100000000E-03 0.  1.
    9900012    2    1    2    0    0 -0.10640121582E+02  0.27621527224E+02 -0.11855758432E+02  0.59301953499E+02  0.50000017273E+02 0.  0.
         12    1    1    2    0    0  0.10640121582E+02 -0.27621527224E+02  0.11855758432E+02  0.31886046501E+02  0.00000000000E+00 0. -1.
         11    1    3    3    0    0  0.78017638744E+01 -0.99015792733E+00 -0.40834595110E+01  0.88612964126E+01  0.51100000000E-03 0. -1.
        -11    1    3    3    0    0 -0.10074865406E+02  0.36774098742E+02 -0.53404531189E+01  0.38501398559E+02  0.51100000000E-03 0.  1.
         12    1    3    3    0    0 -0.83670200510E+01 -0.81624135909E+01 -0.24318458025E+01  0.11939258527E+02  0.00000000000E+00 0. -1.
</event>
<event>
 7    1  0.6593656E-013  0.5930194E+02  0.7816164E-02  0.1266605E+00
        -11   -1    0    0    0    0  0.00000000000E+00  0.00000000000E+00  0.45593999997E+02  0.45594000000E+02  0.51100000000E-03 0.  1.
         11   -1    0    0    0    0 -0.00000000000E+00 -0.00000000000E+00 -0.45593999997E+02  0.45594000000E+02  0.51100000000E-03 0. -1.
    9900012    2    1    2    0    0 -0.57453178606E+01  0.21039667809E+02  0.23260364080E+02  0.59301939786E+02  0.49999992265E+02 0.  0.
         12    1    1    2    0    0  0.57453178606E+01 -0.21039667809E+02 -0.23260364080E+02  0.31886060214E+02  0.00000000000E+00 0. -1.
         11    1    3    3    0    0  0.96892181503E+01 -0.56364557402E+01  0.32450230859E+01  0.11669651099E+02  0.51100000000E-03 0. -1.
        -11    1    3    3    0    0  0.87894828404E+01  0.11508302622E+02  0.48127988461E+01  0.15259720536E+02  0.51100000000E-03 0.  1.
        -12    1    3    3    0    0 -0.24224018851E+02  0.15167820927E+02  0.15202542148E+02  0.32372568152E+02  0.00000000000E+00 0.  1.
</event>
<event>
 7    1  0.6593656E-013  0.5930194E+02  0.7816164E-02  0.1266605E+00
        -11   -1    0    0    0    0  0.00000000000E+00  0.00000000000E+00  0.45593999997E+02  0.45594000000E+02  0.51100000000E-03 0.  1.
         11   -1    0    0    0    0 -0.00000000000E+00 -0.00000000000E+00 -0.45593999997E+02  0.45594000000E+02  0.51100000000E-03 0. -1.
    9900012    2    1    2    0    0 -0.41365919797E+01 -0.12830794723E+01  0.31590552367E+02  0.59301942154E+02  0.49999996583E+02 0.  0.
         12    1    1    2    0    0  0.41365919797E+01  0.12830794723E+01 -0.31590552367E+02  0.31886057846E+02  0.00000000000E+00 0. -1.
         11    1    3    3    0    0  0.10513659273E+02 -0.11622721918E+02  0.17770981643E+01  0.15772849275E+02  0.51100000000E-03 0. -1.
        -11    1    3    3    0    0  0.42330289304E+01  0.75548708125E+01  0.66283501658E+00  0.86852724448E+01  0.51100000000E-03 0.  1.
        -12    1    3    3    0    0 -0.18883280184E+02  0.27847716334E+01  0.29150619186E+02  0.34843820434E+02  0.00000000000E+00 0.  1.
</event>
<event>
 7    1  0.6593656E-013  0.5930194E+02  0.7816164E-02  0.1266605E+00
        -11   -1    0    0    0    0  0.00000000000E+00  0.00000000000E+00  0.45593999997E+02  0.45594000000E+02  0.51100000000E-03 0. -1.
         11   -1    0    0    0    0 -0.00000000000E+00 -0.00000000000E+00 -0.45593999997E+02  0.45594000000E+02  0.51100000000E-03 0.  1.
    9900012    2    1    2    0    0 -0.17456590393E+02 -0.98779541812E+01  0.24787383033E+02  0.59301939024E+02  0.49999990874E+02 0.  0.
         12    1    1    2    0    0  0.17456590393E+02  0.98779541812E+01 -0.24787383033E+02  0.31886060976E+02  0.00000000000E+00 0. -1.
         11    1    3    3    0    0 -0.76357015025E+00 -0.55331804639E+01  0.20993537463E+02  0.21723897921E+02  0.51100000000E-03 0. -1.
        -11    1    3    3    0    0 -0.31424268847E+01 -0.15880472479E+02 -0.60008334255E+01  0.17264827105E+02  0.51100000000E-03 0.  1.
        -12    1    3    3    0    0 -0.13550593359E+02  0.11535698762E+02  0.97946789957E+01  0.20313213998E+02  0.00000000000E+00 0.  1.
</event>
<event>
 7    1  0.6593656E-013  0.5930194E+02  0.7816164E-02  0.1266605E+00
        -11   -1    0    0    0    0  0.00000000000E+00  0.00000000000E+00  0.45593999997E+02  0.45594000000E+02  0.51100000000E-03 0. -1.
         11   -1    0    0    0    0 -0.00000000000E+00 -0.00000000000E+00 -0.45593999997E+02  0.45594000000E+02  0.51100000000E-03 0.  1.
    9900012    2    1    2    0    0 -0.31599978731E+02  0.35013614705E+01 -0.24295163597E+01  0.59301941327E+02  0.49999995075E+02 0.  0.
         12    1    1    2    0    0  0.31599978731E+02 -0.35013614705E+01  0.24295163597E+01  0.31886058673E+02  0.00000000000E+00 0. -1.
         11    1    3    3    0    0  0.34909626477E+01 -0.53312668067E+01  0.21233199155E+01  0.67169720632E+01  0.51100000000E-03 0. -1.
        -11    1    3    3    0    0 -0.22279788493E+01 -0.12617182431E+02  0.14142408823E+01  0.12890200145E+02  0.51100000000E-03 0.  1.
         12    1    3    3    0    0 -0.32862962529E+02  0.21449810708E+02 -0.59670771576E+01  0.39694769119E+02  0.00000000000E+00 0. -1.
</event>
<event>
 7    1  0.6593656E-013  0.5930194E+02  0.7816164E-02  0.1266605E+00
        -11   -1    0    0    0    0  0.00000000000E+00  0.00000000000E+00  0.45593999997E+02  0.45594000000E+02  0.51100000000E-03 0. -1.
         11   -1    0    0    0    0 -0.00000000000E+00 -0.00000000000E+00 -0.45593999997E+02  0.45594000000E+02  0.51100000000E-03 0.  1.
    9900012    2    1    2    0    0 -0.32955519253E+01 -0.26617648682E+02 -0.17244150292E+02  0.59301943437E+02  0.49999998922E+02 0.  0.
         12    1    1    2    0    0  0.32955519253E+01  0.26617648682E+02  0.17244150292E+02  0.31886056563E+02  0.00000000000E+00 0. -1.
         11    1    3    3    0    0  0.46723780520E+01 -0.10643483874E+02  0.14593112327E+02  0.18656735869E+02  0.51100000000E-03 0. -1.
        -11    1    3    3    0    0  0.51649490589E+01 -0.72188479261E+01 -0.74124484494E+01  0.11564292302E+02  0.51100000000E-03 0.  1.
        -12    1    3    3    0    0 -0.13132879036E+02 -0.87553168820E+01 -0.24424814170E+02  0.29080915266E+02  0.00000000000E+00 0.  1.
</event>
<event>
 7    1  0.6593656E-013  0.5930193E+02  0.7816164E-02  0.1266605E+00
        -11   -1    0    0    0    0  0.00000000000E+00  0.00000000000E+00  0.45593999997E+02  0.45594000000E+02  0.51100000000E-03 0.  1.
         11   -1    0    0    0    0 -0.00000000000E+00 -0.00000000000E+00 -0.45593999997E+02  0.45594000000E+02  0.51100000000E-03 0. -1.
    9900012    2    1    2    0    0 -0.15526691938E+02 -0.23955982603E+02  0.14204021928E+02  0.59301929312E+02  0.49999973161E+02 0.  0.
         12    1    1    2    0    0  0.15526691938E+02  0.23955982603E+02 -0.14204021928E+02  0.31886070688E+02  0.00000000000E+00 0. -1.
         11    1    3    3    0    0 -0.16986315412E+02  0.68830109583E+00  0.15747880212E+02  0.23173355413E+02  0.51100000000E-03 0. -1.
        -11    1    3    3    0    0  0.36937596255E+01  0.10698126765E+01  0.77853758654E+01  0.86833424993E+01  0.51100000000E-03 0.  1.
         12    1    3    3    0    0 -0.22341361521E+01 -0.25714096375E+02 -0.93292341494E+01  0.27445231399E+02  0.00000000000E+00 0. -1.
</event>
<event>
 7    1  0.6593656E-013  0.5930200E+02  0.7816164E-02  0.1266605E+00
        -11   -1    0    0    0    0  0.00000000000E+00  0.00000000000E+00  0.45593999997E+02  0.45594000000E+02  0.51100000000E-03 0.  1.
         11   -1    0    0    0    0 -0.00000000000E+00 -0.00000000000E+00 -0.45593999997E+02  0.45594000000E+02  0.51100000000E-03 0. -1.
    9900012    2    1    2    0    0  0.24133830895E+02  0.24450091263E+01  0.20695338273E+02  0.59302001670E+02  0.50000105125E+02 0.  0.
         12    1    1    2    0    0 -0.24133830895E+02 -0.24450091263E+01 -0.20695338273E+02  0.31885998330E+02  0.00000000000E+00 0. -1.
         11    1    3    3    0    0  0.15655401933E+02 -0.74849305020E+01  0.87562487059E+01  0.19436761200E+02  0.51100000000E-03 0. -1.
        -11    1    3    3    0    0  0.18371171694E+02 -0.37871756820E+01  0.13152944418E+02  0.22909443384E+02  0.51100000000E-03 0.  1.
         12    1    3    3    0    0 -0.98927427322E+01  0.13717115310E+02 -0.12138548508E+01  0.16955797085E+02  0.00000000000E+00 0. -1.
</event>
<event>
 7    1  0.6593656E-013  0.5930196E+02  0.7816164E-02  0.1266605E+00
        -11   -1    0    0    0    0  0.00000000000E+00  0.00000000000E+00  0.45593999997E+02  0.45594000000E+02  0.51100000000E-03 0.  1.
         11   -1    0    0    0    0 -0.00000000000E+00 -0.00000000000E+00 -0.45593999997E+02  0.45594000000E+02  0.51100000000E-03 0. -1.
    9900012    2    1    2    0    0 -0.23900552497E+02 -0.17820759788E+02  0.11309445869E+02  0.59301961441E+02  0.50000031758E+02 0.  0.
         12    1    1    2    0    0  0.23900552497E+02  0.17820759788E+02 -0.11309445869E+02  0.31886038559E+02  0.00000000000E+00 0. -1.
         11    1    3    3    0    0 -0.20647953058E+01  0.16693478086E+01 -0.55563890131E+01  0.61582108511E+01  0.51100000000E-03 0. -1.
        -11    1    3    3    0    0  0.87047572233E+01 -0.17467850448E+02  0.38955991028E+01  0.19901615267E+02  0.51100000000E-03 0.  1.
        -12    1    3    3    0    0 -0.30540514415E+02 -0.20222571482E+01  0.12970235780E+02  0.33242135323E+02  0.00000000000E+00 0.  1.
</event>
<event>
 7    1  0.6593656E-013  0.5930201E+02  0.7816164E-02  0.1266605E+00
        -11   -1    0    0    0    0  0.00000000000E+00  0.00000000000E+00  0.45593999997E+02  0.45594000000E+02  0.51100000000E-03 0.  1.
         11   -1    0    0    0    0 -0.00000000000E+00 -0.00000000000E+00 -0.45593999997E+02  0.45594000000E+02  0.51100000000E-03 0. -1.
    9900012    2    1    2    0    0  0.17667516848E+02 -0.18989807984E+02  0.18546225406E+02  0.59302008786E+02  0.50000118104E+02 0.  0.
         12    1    1    2    0    0 -0.17667516848E+02  0.18989807984E+02 -0.18546225406E+02  0.31885991214E+02  0.00000000000E+00 0. -1.
         11    1    3    3    0    0  0.11892529463E+02 -0.71338596585E+01 -0.74132798532E+01  0.15725168651E+02  0.51100000000E-03 0. -1.
        -11    1    3    3    0    0  0.88453503435E+01 -0.20871214771E+02  0.95372354892E+01  0.24592817849E+02  0.51100000000E-03 0.  1.
        -12    1    3    3    0    0 -0.30703629581E+01  0.90152664455E+01  0.16422269770E+02  0.18984022286E+02  0.00000000000E+00 0.  1.
</event>
<event>
 7    1  0.6593656E-013  0.5930234E+02  0.7816164E-02  0.1266603E+00
        -11   -1    0    0    0    0  0.00000000000E+00  0.00000000000E+00  0.45593999997E+02  0.45594000000E+02  0.51100000000E-03 0. -1.
         11   -1    0    0    0    0 -0.00000000000E+00 -0.00000000000E+00 -0.45593999997E+02  0.45594000000E+02  0.51100000000E-03 0.  1.
    9900012    2    1    2    0    0  0.11279931040E+02  0.53857233903E+01 -0.29333465391E+02  0.59302344094E+02  0.50000729619E+02 0.  0.
         12    1    1    2    0    0 -0.11279931040E+02 -0.53857233903E+01  0.29333465391E+02  0.31885655906E+02  0.00000000000E+00 0. -1.
         11    1    3    3    0    0 -0.68659780632E+01 -0.11478165664E+02 -0.23784058868E+01  0.13584798732E+02  0.51100000000E-03 0. -1.
        -11    1    3    3    0    0 -0.10424340822E+01 -0.10352008334E+01 -0.17897499061E+02  0.17957694241E+02  0.51100000000E-03 0.  1.
        -12    1    3    3    0    0  0.19188343185E+02  0.17899089888E+02 -0.90575604441E+01  0.27759851120E+02  0.00000000000E+00 0.  1.
</event>
<event>
 7    1  0.6593656E-013  0.5930194E+02  0.7816164E-02  0.1266605E+00
        -11   -1    0    0    0    0  0.00000000000E+00  0.00000000000E+00  0.45593999997E+02  0.45594000000E+02  0.51100000000E-03 0.  1.
         11   -1    0    0    0    0 -0.00000000000E+00 -0.00000000000E+00 -0.45593999997E+02  0.45594000000E+02  0.51100000000E-03 0. -1.
    9900012    2    1    2    0    0 -0.16741928406E+02 -0.11895180965E+02  0.24391259332E+02  0.59301936763E+02  0.49999986750E+02 0.  0.
         12    1    1    2    0    0  0.16741928406E+02  0.11895180965E+02 -0.24391259332E+02  0.31886063237E+02  0.00000000000E+00 0. -1.
         11    1    3    3    0    0  0.46078591370E+01 -0.11223685471E+02  0.53483714526E+01  0.13259281988E+02  0.51100000000E-03 0. -1.
        -11    1    3    3    0    0 -0.13842998703E+02 -0.17842523940E+02  0.14237034162E+02  0.26696018723E+02  0.51100000000E-03 0.  1.
         12    1    3    3    0    0 -0.75067888404E+01  0.17171028446E+02  0.48058537172E+01  0.19346636052E+02  0.00000000000E+00 0. -1.
</event>
<event>
 7    1  0.6593656E-013  0.5930196E+02  0.7816164E-02  0.1266605E+00
        -11   -1    0    0    0    0  0.00000000000E+00  0.00000000000E+00  0.45593999997E+02  0.45594000000E+02  0.51100000000E-03 0. -1.
         11   -1    0    0    0    0 -0.00000000000E+00 -0.00000000000E+00 -0.45593999997E+02  0.45594000000E+02  0.51100000000E-03 0.  1.
    9900012    2    1    2    0    0 -0.15538310126E+02  0.17022598292E+02 -0.22034320833E+02  0.59301964988E+02  0.50000038227E+02 0.  0.
         12    1    1    2    0    0  0.15538310126E+02 -0.17022598292E+02  0.22034320833E+02  0.31886035012E+02  0.00000000000E+00 0. -1.
         11    1    3    3    0    0 -0.79185592403E+01  0.11957340430E+02 -0.34065187732E+01  0.14740622138E+02  0.51100000000E-03 0. -1.
        -11    1    3    3    0    0 -0.12648366934E+02  0.19567552424E+02 -0.45622436318E+01  0.23742037848E+02  0.51100000000E-03 0.  1.
        -12    1    3    3    0    0  0.50286160481E+01 -0.14502294561E+02 -0.14065558428E+02  0.20819305003E+02  0.00000000000E+00 0.  1.
</event>
<event>
 7    1  0.6593656E-013  0.5930194E+02  0.7816164E-02  0.1266605E+00
        -11   -1    0    0    0    0  0.00000000000E+00  0.00000000000E+00  0.45593999997E+02  0.45594000000E+02  0.51100000000E-03 0. -1.
         11   -1    0    0    0    0 -0.00000000000E+00 -0.00000000000E+00 -0.45593999997E+02  0.45594000000E+02  0.51100000000E-03 0.  1.
    9900012    2    1    2    0    0  0.22216650327E+02 -0.25092621368E+01 -0.22734224263E+02  0.59301938765E+02  0.49999990402E+02 0.  0.
         12    1    1    2    0    0 -0.22216650327E+02  0.25092621368E+01  0.22734224263E+02  0.31886061235E+02  0.00000000000E+00 0. -1.
         11    1    3    3    0    0  0.34030733780E+01 -0.22861981638E+01 -0.10917059545E+01  0.42425738194E+01  0.51100000000E-03 0. -1.
        -11    1    3    3    0    0  0.14795416227E+02 -0.21016775121E+02 -0.22068557242E+02  0.33876694007E+02  0.51100000000E-03 0.  1.
         12    1    3    3    0    0  0.40181607223E+01  0.20793711148E+02  0.42603893334E+00  0.21182670938E+02  0.00000000000E+00 0. -1.
</event>
<event>
 7    1  0.6593656E-013  0.5930188E+02  0.7816164E-02  0.1266605E+00
        -11   -1    0    0    0    0  0.00000000000E+00  0.00000000000E+00  0.45593999997E+02  0.45594000000E+02  0.51100000000E-03 0.  1.
         11   -1    0    0    0    0 -0.00000000000E+00 -0.00000000000E+00 -0.45593999997E+02  0.45594000000E+02  0.51100000000E-03 0. -1.
    9900012    2    1    2    0    0  0.14359678539E+02 -0.82196174158E+00  0.28457836280E+02  0.59301883356E+02  0.49999889350E+02 0.  0.
         12    1    1    2    0    0 -0.14359678539E+02  0.82196174158E+00 -0.28457836280E+02  0.31886116644E+02  0.00000000000E+00 0. -1.
         11    1    3    3    0    0 -0.13092639530E+02  0.52044369947E+01  0.95150196327E+01  0.17001146231E+02  0.51100000000E-03 0. -1.
        -11    1    3    3    0    0  0.10916473963E+02 -0.13965509286E+02  0.29596221506E+01  0.17971205216E+02  0.51100000000E-03 0.  1.
        -12    1    3    3    0    0  0.16535844105E+02  0.79391105494E+01  0.15983194497E+02  0.24329531909E+02  0.00000000000E+00 0.  1.
</event>
<event>
 7    1  0.6593656E-013  0.5930194E+02  0.7816164E-02  0.1266605E+00
        -11   -1    0    0    0    0  0.00000000000E+00  0.00000000000E+00  0.45593999997E+02  0.45594000000E+02  0.51100000000E-03 0. -1.
         11   -1    0    0    0    0 -0.00000000000E+00 -0.00000000000E+00 -0.45593999997E+02  0.45594000000E+02  0.51100000000E-03 0.  1.
    9900012    2    1    2    0    0 -0.19885607114E+02 -0.23462255659E+02  0.84146496393E+01  0.59301935027E+02  0.49999983585E+02 0.  0.
         12    1    1    2    0    0  0.19885607114E+02  0.23462255659E+02 -0.84146496393E+01  0.31886064973E+02  0.00000000000E+00 0. -1.
         11    1    3    3    0    0 -0.29809907424E+02 -0.31644171879E+02  0.83534568694E+01  0.44269226743E+02  0.51100000000E-03 0. -1.
        -11    1    3    3    0    0 -0.53104921101E+00 -0.33472629032E+00  0.13473695877E+01  0.14864252490E+01  0.51100000000E-03 0.  1.
        -12    1    3    3    0    0  0.10455349521E+02  0.85166425103E+01 -0.12861768177E+01  0.13546283035E+02  0.00000000000E+00 0.  1.
</event>
<event>
 7    1  0.6593656E-013  0.5930219E+02  0.7816164E-02  0.1266604E+00
        -11   -1    0    0    0    0  0.00000000000E+00  0.00000000000E+00  0.45593999997E+02  0.45594000000E+02  0.51100000000E-03 0. -1.
         11   -1    0    0    0    0 -0.00000000000E+00 -0.00000000000E+00 -0.45593999997E+02  0.45594000000E+02  0.51100000000E-03 0.  1.
    9900012    2    1    2    0    0 -0.94511840976E+01 -0.24119244157E+01 -0.30357246182E+02  0.59302193503E+02  0.50000454981E+02 0.  0.
         12    1    1    2    0    0  0.94511840976E+01  0.24119244157E+01  0.30357246182E+02  0.31885806497E+02  0.00000000000E+00 0. -1.
         11    1    3    3    0    0  0.18060454787E+01  0.19455214312E+01  0.41707939292E+01  0.49439231559E+01  0.51100000000E-03 0. -1.
        -11    1    3    3    0    0  0.13294180815E+02 -0.94785313150E+01 -0.93234542830E+01  0.18801717992E+02  0.51100000000E-03 0.  1.
        -12    1    3    3    0    0 -0.24551410391E+02  0.51210854681E+01 -0.25204585828E+02  0.35556552355E+02  0.00000000000E+00 0.  1.
</event>
<event>
 7    1  0.6593656E-013  0.5930194E+02  0.7816164E-02  0.1266605E+00
        -11   -1    0    0    0    0  0.00000000000E+00  0.00000000000E+00  0.45593999997E+02  0.45594000000E+02  0.51100000000E-03 0. -1.
         11   -1    0    0    0    0 -0.00000000000E+00 -0.00000000000E+00 -0.45593999997E+02  0.45594000000E+02  0.51100000000E-03 0.  1.
    9900012    2    1    2    0    0  0.16333507904E+02  0.16104662397E+02 -0.22148983809E+02  0.59301935409E+02  0.49999984281E+02 0.  0.
         12    1    1    2    0    0 -0.16333507904E+02 -0.16104662397E+02  0.22148983809E+02  0.31886064591E+02  0.00000000000E+00 0. -1.
         11    1    3    3    0    0  0.64353544765E+01 -0.10703442869E+02 -0.34054711391E+01  0.12945065100E+02  0.51100000000E-03 0. -1.
        -11    1    3    3    0    0  0.64795395755E+01 -0.24345923862E+01 -0.15200888754E+02  0.16702655249E+02  0.51100000000E-03 0.  1.
         12    1    3    3    0    0  0.34186138517E+01  0.29242697652E+02 -0.35426239157E+01  0.29654215060E+02  0.00000000000E+00 0. -1.
</event>
<event>
 7    1  0.6593656E-013  0.5930196E+02  0.7816164E-02  0.1266605E+00
        -11   -1    0    0    0    0  0.00000000000E+00  0.00000000000E+00  0.45593999997E+02  0.45594000000E+02  0.51100000000E-03 0. -1.
         11   -1    0    0    0    0 -0.00000000000E+00 -0.00000000000E+00 -0.45593999997E+02  0.45594000000E+02  0.51100000000E-03 0.  1.
    9900012    2    1    2    0    0  0.22361725935E+02  0.12626609808E+02 -0.18900827294E+02  0.59301963331E+02  0.50000035205E+02 0.  0.
         12    1    1    2    0    0 -0.22361725935E+02 -0.12626609808E+02  0.18900827294E+02  0.31886036669E+02  0.00000000000E+00 0. -1.
         11    1    3    3    0    0  0.15934699746E+02  0.12443551501E+01 -0.47604595552E+01  0.16677081615E+02  0.51100000000E-03 0. -1.
        -11    1    3    3    0    0  0.18203847708E+02 -0.47211377113E+01 -0.12554683461E+02  0.22611706918E+02  0.51100000000E-03 0.  1.
         12    1    3    3    0    0 -0.11776821520E+02  0.16103392369E+02 -0.15856842782E+01  0.20013174799E+02  0.00000000000E+00 0. -1.
</event>
<event>
 7    1  0.6593656E-013  0.5930194E+02  0.7816164E-02  0.1266605E+00
        -11   -1    0    0    0    0  0.00000000000E+00  0.00000000000E+00  0.45593999997E+02  0.45594000000E+02  0.51100000000E-03 0.  1.
         11   -1    0    0    0    0 -0.00000000000E+00 -0.00000000000E+00 -0.45593999997E+02  0.45594000000E+02  0.51100000000E-03 0. -1.
    9900012    2    1    2    0    0  0.27626291861E+02 -0.11867226673E+02  0.10614992153E+02  0.59301935186E+02  0.49999983875E+02 0.  0.
         12    1    1    2    0    0 -0.27626291861E+02  0.11867226673E+02 -0.10614992153E+02  0.31886064814E+02  0.00000000000E+00 0. -1.
         11    1    3    3    0    0  0.56543691008E+00 -0.88583465757E+01  0.15968080569E+01  0.90188590845E+01  0.51100000000E-03 0.  1.
        -11    1    3    3    0    0  0.32978634303E+01 -0.43519332530E+01 -0.15306404140E+02  0.16251191778E+02  0.51100000000E-03 0. -1.
        -12    1    3    3    0    0  0.23762991521E+02  0.13430531554E+01  0.24324588236E+02  0.34031884324E+02  0.00000000000E+00 0.  1.
</event>
<event>
 7    1  0.6593656E-013  0.5930195E+02  0.7816164E-02  0.1266605E+00
        -11   -1    0    0    0    0  0.00000000000E+00  0.00000000000E+00  0.45593999997E+02  0.45594000000E+02  0.51100000000E-03 0.  1.
         11   -1    0    0    0    0 -0.00000000000E+00 -0.00000000000E+00 -0.45593999997E+02  0.45594000000E+02  0.51100000000E-03 0. -1.
    9900012    2    1    2    0    0  0.26337274789E+02 -0.50765587724E+01  0.17242286779E+02  0.59301953747E+02  0.50000017725E+02 0.  0.
         12    1    1    2    0    0 -0.26337274789E+02  0.50765587724E+01 -0.17242286779E+02  0.31886046253E+02  0.00000000000E+00 0. -1.
         11    1    3    3    0    0 -0.31896905053E+01 -0.27984326820E+00 -0.23758551415E+01  0.39871199742E+01  0.51100000000E-03 0.  1.
        -11    1    3    3    0    0  0.70319431513E+01 -0.30435205669E+01 -0.13333594674E+02  0.15378426093E+02  0.51100000000E-03 0. -1.
         12    1    3    3    0    0  0.22495022143E+02 -0.17531949373E+01  0.32951736595E+02  0.39936407679E+02  0.00000000000E+00 0. -1.
</event>
<event>
 7    1  0.6593656E-013  0.5930196E+02  0.7816164E-02  0.1266605E+00
        -11   -1    0    0    0    0  0.00000000000E+00  0.00000000000E+00  0.45593999997E+02  0.45594000000E+02  0.51100000000E-03 0. -1.
         11   -1    0    0    0    0 -0.00000000000E+00 -0.00000000000E+00 -0.45593999997E+02  0.45594000000E+02  0.51100000000E-03 0.  1.
    9900012    2    1    2    0    0  0.25917322701E+02  0.13937034679E+02 -0.12278881878E+02  0.59301960864E+02  0.50000030705E+02 0.  0.
         12    1    1    2    0    0 -0.25917322701E+02 -0.13937034679E+02  0.12278881878E+02  0.31886039136E+02  0.00000000000E+00 0. -1.
         11    1    3    3    0    0  0.15538824350E+02  0.29969720293E+01  0.11690861487E+02  0.19675191132E+02  0.51100000000E-03 0. -1.
        -11    1    3    3    0    0  0.18673035815E+02  0.16884058020E+01 -0.17363232688E+02  0.25554154855E+02  0.51100000000E-03 0.  1.
        -12    1    3    3    0    0 -0.82945374636E+01  0.92516568475E+01 -0.66065106764E+01  0.14072614877E+02  0.00000000000E+00 0.  1.
</event>
<event>
 7    1  0.6593656E-013  0.5930202E+02  0.7816164E-02  0.1266605E+00
        -11   -1    0    0    0    0  0.00000000000E+00  0.00000000000E+00  0.45593999997E+02  0.45594000000E+02  0.51100000000E-03 0. -1.
         11   -1    0    0    0    0 -0.00000000000E+00 -0.00000000000E+00 -0.45593999997E+02  0.45594000000E+02  0.51100000000E-03 0.  1.
    9900012    2    1    2    0    0 -0.26597198165E+02 -0.60681667902E+01 -0.16507034319E+02  0.59302019062E+02  0.50000136843E+02 0.  0.
         12    1    1    2    0    0  0.26597198165E+02  0.60681667902E+01  0.16507034319E+02  0.31885980938E+02  0.00000000000E+00 0. -1.
         11    1    3    3    0    0  0.60290553113E+01  0.22299918417E+01 -0.92900757200E+01  0.11297250936E+02  0.51100000000E-03 0. -1.
        -11    1    3    3    0    0 -0.26611697910E+02 -0.60089662532E+01 -0.19909520703E+02  0.33773941967E+02  0.51100000000E-03 0.  1.
        -12    1    3    3    0    0 -0.60145555659E+01 -0.22891923787E+01  0.12692562104E+02  0.14230826159E+02  0.00000000000E+00 0.  1.
</event>
<event>
 7    1  0.6593656E-013  0.5930194E+02  0.7816164E-02  0.1266605E+00
        -11   -1    0    0    0    0  0.00000000000E+00  0.00000000000E+00  0.45593999997E+02  0.45594000000E+02  0.51100000000E-03 0.  1.
         11   -1    0    0    0    0 -0.00000000000E+00 -0.00000000000E+00 -0.45593999997E+02  0.45594000000E+02  0.51100000000E-03 0. -1.
    9900012    2    1    2    0    0 -0.94714108970E+01  0.23210617387E+02  0.19704836663E+02  0.59301937656E+02  0.49999988380E+02 0.  0.
         12    1    1    2    0    0  0.94714108970E+01 -0.23210617387E+02 -0.19704836663E+02  0.31886062344E+02  0.00000000000E+00 0. -1.
         11    1    3    3    0    0  0.20415296841E+01 -0.91367052954E+01 -0.97650120740E+00  0.94127988386E+01  0.51100000000E-03 0. -1.
        -11    1    3    3    0    0 -0.14444327075E+02  0.35428762927E+01  0.13436613489E+02  0.20043281652E+02  0.51100000000E-03 0.  1.
        -12    1    3    3    0    0  0.29313864939E+01  0.28804446390E+02  0.72447243815E+01  0.29845857166E+02  0.00000000000E+00 0.  1.
</event>
<event>
 7    1  0.6593656E-013  0.5930191E+02  0.7816164E-02  0.1266605E+00
        -11   -1    0    0    0    0  0.00000000000E+00  0.00000000000E+00  0.45593999997E+02  0.45594000000E+02  0.51100000000E-03 0. -1.
         11   -1    0    0    0    0 -0.00000000000E+00 -0.00000000000E+00 -0.45593999997E+02  0.45594000000E+02  0.51100000000E-03 0.  1.
    9900012    2    1    2    0    0  0.26707270836E+02  0.50622192346E+01 -0.16667876621E+02  0.59301913847E+02  0.49999944958E+02 0.  0.
         12    1    1    2    0    0 -0.26707270836E+02 -0.50622192346E+01  0.16667876621E+02  0.31886086153E+02  0.00000000000E+00 0. -1.
         11    1    3    3    0    0  0.12440175100E+01 -0.59806729533E+01  0.50651807781E+01  0.79354952659E+01  0.51100000000E-03 0. -1.
        -11    1    3    3    0    0 -0.88113293169E+01  0.83435064936E+01 -0.49109289475E+01  0.13090868891E+02  0.51100000000E-03 0.  1.
        -12    1    3    3    0    0  0.34274582642E+02  0.26993856944E+01 -0.16822128452E+02  0.38275549690E+02  0.00000000000E+00 0.  1.
</event>
<event>
 7    1  0.6593656E-013  0.5930196E+02  0.7816164E-02  0.1266605E+00
        -11   -1    0    0    0    0  0.00000000000E+00  0.00000000000E+00  0.45593999997E+02  0.45594000000E+02  0.51100000000E-03 0.  1.
         11   -1    0    0    0    0 -0.00000000000E+00 -0.00000000000E+00 -0.45593999997E+02  0.45594000000E+02  0.51100000000E-03 0. -1.
    9900012    2    1    2    0    0 -0.28247760324E+02  0.14648301943E+02 -0.20521019018E+01  0.59301955476E+02  0.50000020879E+02 0.  0.
         12    1    1    2    0    0  0.28247760324E+02 -0.14648301943E+02  0.20521019018E+01  0.31886044524E+02  0.00000000000E+00 0. -1.
         11    1    3    3    0    0 -0.21867806753E+02 -0.24329194417E+01  0.73616898113E+01  0.23201606546E+02  0.51100000000E-03 0. -1.
        -11    1    3    3    0    0 -0.57158333642E+01 -0.85326706031E+00  0.88014626581E+01  0.10529224136E+02  0.51100000000E-03 0.  1.
         12    1    3    3    0    0 -0.66412020770E+00  0.17934488445E+02 -0.18215254371E+02  0.25571124794E+02  0.00000000000E+00 0. -1.
</event>
<event>
 7    1  0.6593656E-013  0.5930194E+02  0.7816164E-02  0.1266605E+00
        -11   -1    0    0    0    0  0.00000000000E+00  0.00000000000E+00  0.45593999997E+02  0.45594000000E+02  0.51100000000E-03 0. -1.
         11   -1    0    0    0    0 -0.00000000000E+00 -0.00000000000E+00 -0.45593999997E+02  0.45594000000E+02  0.51100000000E-03 0.  1.
    9900012    2    1    2    0    0 -0.26967381896E+02 -0.16784000965E+02 -0.27889813552E+01  0.59301940480E+02  0.49999993529E+02 0.  0.
         12    1    1    2    0    0  0.26967381896E+02  0.16784000965E+02  0.27889813552E+01  0.31886059520E+02  0.00000000000E+00 0. -1.
         11    1    3    3    0    0 -0.21897228551E+02 -0.17044750527E+02 -0.25963189565E+01  0.27870289039E+02  0.51100000000E-03 0. -1.
        -11    1    3    3    0    0 -0.76045515951E+01 -0.45629289091E+01 -0.14008708960E+02  0.16579911103E+02  0.51100000000E-03 0.  1.
         12    1    3    3    0    0  0.25343982500E+01  0.48236784707E+01  0.13816046561E+02  0.14851740338E+02  0.00000000000E+00 0. -1.
</event>
<event>
 7    1  0.6593656E-013  0.5930197E+02  0.7816164E-02  0.1266605E+00
        -11   -1    0    0    0    0  0.00000000000E+00  0.00000000000E+00  0.45593999997E+02  0.45594000000E+02  0.51100000000E-03 0. -1.
         11   -1    0    0    0    0 -0.00000000000E+00 -0.00000000000E+00 -0.45593999997E+02  0.45594000000E+02  0.51100000000E-03 0.  1.
    9900012    2    1    2    0    0  0.29915797001E+02 -0.10290967177E+02 -0.39824298920E+01  0.59301973852E+02  0.50000054392E+02 0.  0.
         12    1    1    2    0    0 -0.29915797001E+02  0.10290967177E+02  0.39824298920E+01  0.31886026148E+02  0.00000000000E+00 0. -1.
         11    1    3    3    0    0  0.82725701198E+01  0.18442331327E+01  0.71571283241E+01  0.11093290690E+02  0.51100000000E-03 0. -1.
        -11    1    3    3    0    0  0.27259162982E+02  0.28897752339E+01 -0.15625951930E+02  0.31552862650E+02  0.51100000000E-03 0.  1.
        -12    1    3    3    0    0 -0.56159361004E+01 -0.15024975544E+02  0.44863937143E+01  0.16655820512E+02  0.00000000000E+00 0.  1.
</event>
<event>
 7    1  0.6593656E-013  0.5930195E+02  0.7816164E-02  0.1266605E+00
        -11   -1    0    0    0    0  0.00000000000E+00  0.00000000000E+00  0.45593999997E+02  0.45594000000E+02  0.51100000000E-03 0.  1.
         11   -1    0    0    0    0 -0.00000000000E+00 -0.00000000000E+00 -0.45593999997E+02  0.45594000000E+02  0.51100000000E-03 0. -1.
    9900012    2    1    2    0    0 -0.13215585829E+02  0.76132552724E+00  0.29008423025E+02  0.59301953965E+02  0.50000018123E+02 0.  0.
         12    1    1    2    0    0  0.13215585829E+02 -0.76132552724E+00 -0.29008423025E+02  0.31886046035E+02  0.00000000000E+00 0. -1.
         11    1    3    3    0    0 -0.59597814650E+01  0.54569931146E+01  0.56388103561E+01  0.98536263100E+01  0.51100000000E-03 0.  1.
        -11    1    3    3    0    0 -0.15690320358E+02  0.79941742177E+01  0.28387833521E+02  0.33406018419E+02  0.51100000000E-03 0. -1.
         12    1    3    3    0    0  0.84345159938E+01 -0.12689841805E+02 -0.50182208522E+01  0.16042309236E+02  0.00000000000E+00 0. -1.
</event>
<event>
 7    1  0.6593656E-013  0.5930193E+02  0.7816164E-02  0.1266605E+00
        -11   -1    0    0    0    0  0.00000000000E+00  0.00000000000E+00  0.45593999997E+02  0.45594000000E+02  0.51100000000E-03 0.  1.
         11   -1    0    0    0    0 -0.00000000000E+00 -0.00000000000E+00 -0.45593999997E+02  0.45594000000E+02  0.51100000000E-03 0. -1.
    9900012    2    1    2    0    0 -0.30164842437E+02  0.85234105112E+01  0.58442439828E+01  0.59301930412E+02  0.49999975169E+02 0.  0.
         12    1    1    2    0    0  0.30164842437E+02 -0.85234105112E+01 -0.58442439828E+01  0.31886069588E+02  0.00000000000E+00 0. -1.
         11    1    3    3    0    0  0.65307505935E+01 -0.42823833807E+01 -0.32110154670E+00  0.78161766356E+01  0.51100000000E-03 0. -1.
        -11    1    3    3    0    0 -0.17821909231E+02 -0.10805297453E+02  0.35921966537E+01  0.21148966375E+02  0.51100000000E-03 0.  1.
        -12    1    3    3    0    0 -0.18873683800E+02  0.23611091345E+02  0.25731488758E+01  0.30336787401E+02  0.00000000000E+00 0.  1.
</event>
<event>
 7    1  0.6593656E-013  0.5930195E+02  0.7816164E-02  0.1266605E+00
        -11   -1    0    0    0    0  0.00000000000E+00  0.00000000000E+00  0.45593999997E+02  0.45594000000E+02  0.51100000000E-03 0.  1.
         11   -1    0    0    0    0 -0.00000000000E+00 -0.00000000000E+00 -0.45593999997E+02  0.45594000000E+02  0.51100000000E-03 0. -1.
    9900012    2    1    2    0    0 -0.29820899035E+02 -0.44192627557E+01  0.10387701371E+02  0.59301949095E+02  0.50000009242E+02 0.  0.
         12    1    1    2    0    0  0.29820899035E+02  0.44192627557E+01 -0.10387701371E+02  0.31886050905E+02  0.00000000000E+00 0. -1.
         11    1    3    3    0    0 -0.92848316553E+01  0.10076479537E+02 -0.28573647288E+01  0.13996716478E+02  0.51100000000E-03 0.  1.
        -11    1    3    3    0    0 -0.13913230308E+01  0.12603713627E+01 -0.10683536352E+02  0.10847223838E+02  0.51100000000E-03 0. -1.
        -12    1    3    3    0    0 -0.19144744348E+02 -0.15756113655E+02  0.23928602452E+02  0.34458008779E+02  0.00000000000E+00 0.  1.
</event>
<event>
 7    1  0.6593656E-013  0.5930193E+02  0.7816164E-02  0.1266605E+00
        -11   -1    0    0    0    0  0.00000000000E+00  0.00000000000E+00  0.45593999997E+02  0.45594000000E+02  0.51100000000E-03 0. -1.
         11   -1    0    0    0    0 -0.00000000000E+00 -0.00000000000E+00 -0.45593999997E+02  0.45594000000E+02  0.51100000000E-03 0.  1.
    9900012    2    1    2    0    0  0.12789628453E+02 -0.27750154829E+02  0.91145877184E+01  0.59301930969E+02  0.49999976183E+02 0.  0.
         12    1    1    2    0    0 -0.12789628453E+02  0.27750154829E+02 -0.91145877184E+01  0.31886069031E+02  0.00000000000E+00 0. -1.
         11    1    3    3    0    0  0.84146432442E+01  0.54416113088E+01  0.56893174664E+01  0.11523267248E+02  0.51100000000E-03 0. -1.
        -11    1    3    3    0    0  0.11346958175E+02 -0.18185133257E+02  0.16204968996E+02  0.26871054163E+02  0.51100000000E-03 0.  1.
        -12    1    3    3    0    0 -0.69719729663E+01 -0.15006632880E+02 -0.12779698744E+02  0.20907609558E+02  0.00000000000E+00 0.  1.
</event>
<event>
 7    1  0.6593656E-013  0.5930192E+02  0.7816164E-02  0.1266605E+00
        -11   -1    0    0    0    0  0.00000000000E+00  0.00000000000E+00  0.45593999997E+02  0.45594000000E+02  0.51100000000E-03 0.  1.
         11   -1    0    0    0    0 -0.00000000000E+00 -0.00000000000E+00 -0.45593999997E+02  0.45594000000E+02  0.51100000000E-03 0. -1.
    9900012    2    1    2    0    0  0.22991195639E+01 -0.30821495064E+02  0.78403913631E+01  0.59301917684E+02  0.49999951954E+02 0.  0.
         12    1    1    2    0    0 -0.22991195639E+01  0.30821495064E+02 -0.78403913631E+01  0.31886082316E+02  0.00000000000E+00 0. -1.
         11    1    3    3    0    0  0.38416807478E+01 -0.11500747205E+02 -0.76164940171E+01  0.14319101879E+02  0.51100000000E-03 0. -1.
        -11    1    3    3    0    0  0.17587957592E+02 -0.76632054382E+01  0.11086683100E+02  0.22157967242E+02  0.51100000000E-03 0.  1.
        -12    1    3    3    0    0 -0.19130518776E+02 -0.11657542421E+02  0.43702022800E+01  0.22824848563E+02  0.00000000000E+00 0.  1.
</event>
<event>
 7    1  0.6593656E-013  0.5930196E+02  0.7816164E-02  0.1266605E+00
        -11   -1    0    0    0    0  0.00000000000E+00  0.00000000000E+00  0.45593999997E+02  0.45594000000E+02  0.51100000000E-03 0.  1.
         11   -1    0    0    0    0 -0.00000000000E+00 -0.00000000000E+00 -0.45593999997E+02  0.45594000000E+02  0.51100000000E-03 0. -1.
    9900012    2    1    2    0    0 -0.31014283597E+02  0.72970052343E+01 -0.12600327730E+01  0.59301956736E+02  0.50000023177E+02 0.  0.
         12    1    1    2    0    0  0.31014283597E+02 -0.72970052343E+01  0.12600327730E+01  0.31886043264E+02  0.00000000000E+00 0. -1.
         11    1    3    3    0    0  0.77686427448E+01 -0.28841771433E+01 -0.10177882716E+02  0.13124769892E+02  0.51100000000E-03 0. -1.
        -11    1    3    3    0    0 -0.78299065157E+01  0.57415629809E+01  0.11201825307E+02  0.14824097678E+02  0.51100000000E-03 0.  1.
        -12    1    3    3    0    0 -0.30953019826E+02  0.44396193967E+01 -0.22839753646E+01  0.31353089166E+02  0.00000000000E+00 0.  1.
</event>
<event>
 7    1  0.6593656E-013  0.5930195E+02  0.7816164E-02  0.1266605E+00
        -11   -1    0    0    0    0  0.00000000000E+00  0.00000000000E+00  0.45593999997E+02  0.45594000000E+02  0.51100000000E-03 0.  1.
         11   -1    0    0    0    0 -0.00000000000E+00 -0.00000000000E+00 -0.45593999997E+02  0.45594000000E+02  0.51100000000E-03 0. -1.
    9900012    2    1    2    0    0 -0.81876086118E+00 -0.31872507754E+02  0.43961271721E+00  0.59301946948E+02  0.50000005326E+02 0.  0.
         12    1    1    2    0    0  0.81876086118E+00  0.31872507754E+02 -0.43961271721E+00  0.31886053052E+02  0.00000000000E+00 0. -1.
         11    1    3    3    0    0 -0.55717808695E+01 -0.11450311697E+01 -0.59322157792E+01  0.82186995777E+01  0.51100000000E-03 0. -1.
        -11    1    3    3    0    0 -0.13403642736E+01 -0.32898255524E+02  0.18186027273E+02  0.37614138048E+02  0.51100000000E-03 0.  1.
         12    1    3    3    0    0  0.60933842819E+01  0.21707789389E+01 -0.11814198776E+02  0.13469109322E+02  0.00000000000E+00 0. -1.
</event>
<event>
 7    1  0.6593656E-013  0.5930198E+02  0.7816164E-02  0.1266605E+00
        -11   -1    0    0    0    0  0.00000000000E+00  0.00000000000E+00  0.45593999997E+02  0.45594000000E+02  0.51100000000E-03 0.  1.
         11   -1    0    0    0    0 -0.00000000000E+00 -0.00000000000E+00 -0.45593999997E+02  0.45594000000E+02  0.51100000000E-03 0. -1.
    9900012    2    1    2    0    0 -0.12612875595E+02 -0.49645722863E+01  0.28861513230E+02  0.59301975558E+02  0.50000057504E+02 0.  0.
         12    1    1    2    0    0  0.12612875595E+02  0.49645722863E+01 -0.28861513230E+02  0.31886024442E+02  0.00000000000E+00 0. -1.
         11    1    3    3    0    0 -0.78619544869E+01 -0.70815513465E+01  0.69126480780E+01  0.12638963626E+02  0.51100000000E-03 0. -1.
        -11    1    3    3    0    0 -0.22740856434E+02 -0.13178224056E+01  0.13649217550E+02  0.26555307327E+02  0.51100000000E-03 0.  1.
        -12    1    3    3    0    0  0.17989935326E+02  0.34348014657E+01  0.82996476022E+01  0.20107704605E+02  0.00000000000E+00 0.  1.
</event>
<event>
 7    1  0.6593656E-013  0.5930195E+02  0.7816164E-02  0.1266605E+00
        -11   -1    0    0    0    0  0.00000000000E+00  0.00000000000E+00  0.45593999997E+02  0.45594000000E+02  0.51100000000E-03 0.  1.
         11   -1    0    0    0    0 -0.00000000000E+00 -0.00000000000E+00 -0.45593999997E+02  0.45594000000E+02  0.51100000000E-03 0. -1.
    9900012    2    1    2    0    0 -0.19059296868E+02 -0.12324281621E+02  0.22395884274E+02  0.59301947454E+02  0.50000006249E+02 0.  0.
         12    1    1    2    0    0  0.19059296868E+02  0.12324281621E+02 -0.22395884274E+02  0.31886052546E+02  0.00000000000E+00 0. -1.
         11    1    3    3    0    0 -0.20514334310E+02 -0.12440173700E+02  0.35140026636E+02  0.42548998885E+02  0.51100000000E-03 0.  1.
        -11    1    3    3    0    0  0.25377964662E+01 -0.41333300251E+01 -0.21853613946E+01  0.53198338965E+01  0.51100000000E-03 0. -1.
        -12    1    3    3    0    0 -0.10827590241E+01  0.42492221036E+01 -0.10558780968E+02  0.11433114673E+02  0.00000000000E+00 0.  1.
</event>
<event>
 7    1  0.6593656E-013  0.5930194E+02  0.7816164E-02  0.1266605E+00
        -11   -1    0    0    0    0  0.00000000000E+00  0.00000000000E+00  0.45593999997E+02  0.45594000000E+02  0.51100000000E-03 0.  1.
         11   -1    0    0    0    0 -0.00000000000E+00 -0.00000000000E+00 -0.45593999997E+02  0.45594000000E+02  0.51100000000E-03 0. -1.
    9900012    2    1    2    0    0  0.87915757859E+01 -0.29645466585E+01  0.30506403248E+02  0.59301937515E+02  0.49999988122E+02 0.  0.
         12    1    1    2    0    0 -0.87915757859E+01  0.29645466585E+01 -0.30506403248E+02  0.31886062485E+02  0.00000000000E+00 0. -1.
         11    1    3    3    0    0  0.11272847129E+02  0.20002357531E+01  0.15575518958E+02  0.19330670359E+02  0.51100000000E-03 0.  1.
        -11    1    3    3    0    0 -0.13522542516E+02 -0.10113513592E+02  0.20514089977E+02  0.26570099757E+02  0.51100000000E-03 0. -1.
         12    1    3    3    0    0  0.11041271173E+02  0.51487311802E+01 -0.55832056874E+01  0.13401167398E+02  0.00000000000E+00 0. -1.
</event>
<event>
 7    1  0.6593656E-013  0.5930194E+02  0.7816164E-02  0.1266605E+00
        -11   -1    0    0    0    0  0.00000000000E+00  0.00000000000E+00  0.45593999997E+02  0.45594000000E+02  0.51100000000E-03 0.  1.
         11   -1    0    0    0    0 -0.00000000000E+00 -0.00000000000E+00 -0.45593999997E+02  0.45594000000E+02  0.51100000000E-03 0. -1.
    9900012    2    1    2    0    0 -0.31412062475E+02  0.16664206898E+01  0.52178505075E+01  0.59301943631E+02  0.49999999276E+02 0.  0.
         12    1    1    2    0    0  0.31412062475E+02 -0.16664206898E+01 -0.52178505075E+01  0.31886056369E+02  0.00000000000E+00 0. -1.
         11    1    3    3    0    0  0.33114431856E+01  0.14740324722E+02 -0.52840432088E+01  0.16005122360E+02  0.51100000000E-03 0. -1.
        -11    1    3    3    0    0  0.12539321460E+01  0.20774696921E+01  0.24285085243E+01  0.34330569559E+01  0.51100000000E-03 0.  1.
         12    1    3    3    0    0 -0.35977437807E+02 -0.15151373724E+02  0.80733851921E+01  0.39863764315E+02  0.00000000000E+00 0. -1.
</event>
<event>
 7    1  0.6593656E-013  0.5930195E+02  0.7816164E-02  0.1266605E+00
        -11   -1    0    0    0    0  0.00000000000E+00  0.00000000000E+00  0.45593999997E+02  0.45594000000E+02  0.51100000000E-03 0. -1.
         11   -1    0    0    0    0 -0.00000000000E+00 -0.00000000000E+00 -0.45593999997E+02  0.45594000000E+02  0.51100000000E-03 0.  1.
    9900012    2    1    2    0    0 -0.25383953040E+02  0.16640874172E+02 -0.97701952280E+01  0.59301945369E+02  0.50000002446E+02 0.  0.
         12    1    1    2    0    0  0.25383953040E+02 -0.16640874172E+02  0.97701952280E+01  0.31886054631E+02  0.00000000000E+00 0. -1.
         11    1    3    3    0    0 -0.33265050308E+02  0.17933721221E+02  0.31147793097E+01  0.37919438013E+02  0.51100000000E-03 0. -1.
        -11    1    3    3    0    0  0.42129500181E+01 -0.24111930786E+01  0.25465838662E+01  0.54815955310E+01  0.51100000000E-03 0.  1.
        -12    1    3    3    0    0  0.36681472500E+01  0.11183460298E+01 -0.15431558404E+02  0.15900911825E+02  0.00000000000E+00 0.  1.
</event>
<event>
 7    1  0.6593656E-013  0.5930195E+02  0.7816164E-02  0.1266605E+00
        -11   -1    0    0    0    0  0.00000000000E+00  0.00000000000E+00  0.45593999997E+02  0.45594000000E+02  0.51100000000E-03 0. -1.
         11   -1    0    0    0    0 -0.00000000000E+00 -0.00000000000E+00 -0.45593999997E+02  0.45594000000E+02  0.51100000000E-03 0.  1.
    9900012    2    1    2    0    0 -0.90365408149E+00  0.92719058931E+01 -0.30494843813E+02  0.59301947739E+02  0.50000006769E+02 0.  0.
         12    1    1    2    0    0  0.90365408149E+00 -0.92719058931E+01  0.30494843813E+02  0.31886052261E+02  0.00000000000E+00 0. -1.
         11    1    3    3    0    0 -0.12065189929E+02  0.22540280951E+01 -0.71138329932E+01  0.14186474925E+02  0.51100000000E-03 0. -1.
        -11    1    3    3    0    0  0.61544437572E+01 -0.98228405567E+01  0.42714885461E+01  0.12353582040E+02  0.51100000000E-03 0.  1.
         12    1    3    3    0    0  0.50070920901E+01  0.16840718355E+02 -0.27652499366E+02  0.32761890774E+02  0.00000000000E+00 0. -1.
</event>
<event>
 7    1  0.6593656E-013  0.5930183E+02  0.7816164E-02  0.1266605E+00
        -11   -1    0    0    0    0  0.00000000000E+00  0.00000000000E+00  0.45593999997E+02  0.45594000000E+02  0.51100000000E-03 0.  1.
         11   -1    0    0    0    0 -0.00000000000E+00 -0.00000000000E+00 -0.45593999997E+02  0.45594000000E+02  0.51100000000E-03 0. -1.
    9900012    2    1    2    0    0 -0.15894020984E+01  0.26291555354E+02  0.17970977319E+02  0.59301825759E+02  0.49999784305E+02 0.  0.
         12    1    1    2    0    0  0.15894020984E+01 -0.26291555354E+02 -0.17970977319E+02  0.31886174241E+02  0.00000000000E+00 0. -1.
         11    1    3    3    0    0 -0.16094651290E+02 -0.66231247741E+01 -0.10721779744E+01  0.17437119825E+02  0.51100000000E-03 0. -1.
        -11    1    3    3    0    0 -0.37770767890E+00 -0.27878117246E+00 -0.40053226325E+00  0.61709674107E+00  0.51100000000E-03 0.  1.
        -12    1    3    3    0    0  0.14882956871E+02  0.33193461300E+02  0.19443687557E+02  0.41247609193E+02  0.00000000000E+00 0.  1.
</event>
<event>
 7    1  0.6593656E-013  0.5930194E+02  0.7816164E-02  0.1266605E+00
        -11   -1    0    0    0    0  0.00000000000E+00  0.00000000000E+00  0.45593999997E+02  0.45594000000E+02  0.51100000000E-03 0.  1.
         11   -1    0    0    0    0 -0.00000000000E+00 -0.00000000000E+00 -0.45593999997E+02  0.45594000000E+02  0.51100000000E-03 0. -1.
    9900012    2    1    2    0    0 -0.25285135942E+01  0.78969248407E+01  0.30789051809E+02  0.59301944831E+02  0.50000001464E+02 0.  0.
         12    1    1    2    0    0  0.25285135942E+01 -0.78969248407E+01 -0.30789051809E+02  0.31886055169E+02  0.00000000000E+00 0. -1.
         11    1    3    3    0    0 -0.63614074179E+01 -0.11588125075E+02  0.40646544630E+01  0.13830168591E+02  0.51100000000E-03 0.  1.
        -11    1    3    3    0    0 -0.70896984395E+01  0.16743478332E+02  0.19860039385E+01  0.18290765499E+02  0.51100000000E-03 0. -1.
        -12    1    3    3    0    0  0.10922592263E+02  0.27415715838E+01  0.24738393408E+02  0.27181010741E+02  0.00000000000E+00 0.  1.
</event>
<event>
 7    1  0.6593656E-013  0.5930196E+02  0.7816164E-02  0.1266605E+00
        -11   -1    0    0    0    0  0.00000000000E+00  0.00000000000E+00  0.45593999997E+02  0.45594000000E+02  0.51100000000E-03 0. -1.
         11   -1    0    0    0    0 -0.00000000000E+00 -0.00000000000E+00 -0.45593999997E+02  0.45594000000E+02  0.51100000000E-03 0.  1.
    9900012    2    1    2    0    0  0.42634484488E+01 -0.15038840602E+02 -0.27791649282E+02  0.59301960905E+02  0.50000030780E+02 0.  0.
         12    1    1    2    0    0 -0.42634484488E+01  0.15038840602E+02  0.27791649282E+02  0.31886039095E+02  0.00000000000E+00 0. -1.
         11    1    3    3    0    0 -0.17479065023E+02 -0.13161706060E+02 -0.18543906426E+02  0.28681434523E+02  0.51100000000E-03 0. -1.
        -11    1    3    3    0    0  0.65876733355E+01 -0.13948108255E+01 -0.13315968710E+02  0.14921727787E+02  0.51100000000E-03 0.  1.
         12    1    3    3    0    0  0.15154840136E+02 -0.48232371658E+00  0.40682258543E+01  0.15698798595E+02  0.00000000000E+00 0. -1.
</event>
<event>
 7    1  0.6593656E-013  0.5930193E+02  0.7816164E-02  0.1266605E+00
        -11   -1    0    0    0    0  0.00000000000E+00  0.00000000000E+00  0.45593999997E+02  0.45594000000E+02  0.51100000000E-03 0.  1.
         11   -1    0    0    0    0 -0.00000000000E+00 -0.00000000000E+00 -0.45593999997E+02  0.45594000000E+02  0.51100000000E-03 0. -1.
    9900012    2    1    2    0    0 -0.37284580012E+01 -0.21570049934E+02  0.23185186121E+02  0.59301932373E+02  0.49999978745E+02 0.  0.
         12    1    1    2    0    0  0.37284580012E+01  0.21570049934E+02 -0.23185186121E+02  0.31886067627E+02  0.00000000000E+00 0. -1.
         11    1    3    3    0    0 -0.15470750920E+02 -0.22415368171E+02 -0.35833088040E+00  0.27238231689E+02  0.51100000000E-03 0. -1.
        -11    1    3    3    0    0 -0.16273131693E+01 -0.22282689302E+01 -0.17656024471E+01  0.32757720981E+01  0.51100000000E-03 0.  1.
        -12    1    3    3    0    0  0.13369606088E+02  0.30735871675E+01  0.25309119448E+02  0.28787928586E+02  0.00000000000E+00 0.  1.
</event>
<event>
 7    1  0.6593656E-013  0.5930191E+02  0.7816164E-02  0.1266605E+00
        -11   -1    0    0    0    0  0.00000000000E+00  0.00000000000E+00  0.45593999997E+02  0.45594000000E+02  0.51100000000E-03 0. -1.
         11   -1    0    0    0    0 -0.00000000000E+00 -0.00000000000E+00 -0.45593999997E+02  0.45594000000E+02  0.51100000000E-03 0.  1.
    9900012    2    1    2    0    0  0.11752497442E+02  0.18536091227E+01 -0.29583197450E+02  0.59301911587E+02  0.49999940837E+02 0.  0.
         12    1    1    2    0    0 -0.11752497442E+02 -0.18536091227E+01  0.29583197450E+02  0.31886088413E+02  0.00000000000E+00 0. -1.
         11    1    3    3    0    0  0.72668638239E+01 -0.13524099072E+02  0.16512312374E+00  0.15353691134E+02  0.51100000000E-03 0. -1.
        -11    1    3    3    0    0  0.14692466307E+02  0.96670791298E+01 -0.26508044819E+02  0.31811906977E+02  0.51100000000E-03 0.  1.
        -12    1    3    3    0    0 -0.10206832688E+02  0.57106290646E+01 -0.32402757541E+01  0.12136313477E+02  0.00000000000E+00 0.  1.
</event>
<event>
 7    1  0.6593656E-013  0.5930197E+02  0.7816164E-02  0.1266605E+00
        -11   -1    0    0    0    0  0.00000000000E+00  0.00000000000E+00  0.45593999997E+02  0.45594000000E+02  0.51100000000E-03 0. -1.
         11   -1    0    0    0    0 -0.00000000000E+00 -0.00000000000E+00 -0.45593999997E+02  0.45594000000E+02  0.51100000000E-03 0.  1.
    9900012    2    1    2    0    0 -0.22426545327E+02  0.23274741127E+01 -0.22546660856E+02  0.59301968782E+02  0.50000045146E+02 0.  0.
         12    1    1    2    0    0  0.22426545327E+02 -0.23274741127E+01  0.22546660856E+02  0.31886031218E+02  0.00000000000E+00 0. -1.
         11    1    3    3    0    0 -0.97444853781E+01  0.17305680588E+02  0.58983683482E+01  0.20717922804E+02  0.51100000000E-03 0. -1.
        -11    1    3    3    0    0 -0.42740203420E+01  0.22878429401E+01 -0.13206777435E+02  0.14068420156E+02  0.51100000000E-03 0.  1.
        -12    1    3    3    0    0 -0.84080396073E+01 -0.17266049415E+02 -0.15238251769E+02  0.24515625822E+02  0.00000000000E+00 0.  1.
</event>
<event>
 7    1  0.6593656E-013  0.5930194E+02  0.7816164E-02  0.1266605E+00
        -11   -1    0    0    0    0  0.00000000000E+00  0.00000000000E+00  0.45593999997E+02  0.45594000000E+02  0.51100000000E-03 0.  1.
         11   -1    0    0    0    0 -0.00000000000E+00 -0.00000000000E+00 -0.45593999997E+02  0.45594000000E+02  0.51100000000E-03 0. -1.
    9900012    2    1    2    0    0  0.18442244031E+02  0.19222661494E+02  0.17524095495E+02  0.59301937171E+02  0.49999987495E+02 0.  0.
         12    1    1    2    0    0 -0.18442244031E+02 -0.19222661494E+02 -0.17524095495E+02  0.31886062829E+02  0.00000000000E+00 0. -1.
         11    1    3    3    0    0 -0.29988564136E+01  0.10686394510E+02  0.21076239278E+02  0.23820160155E+02  0.51100000000E-03 0. -1.
        -11    1    3    3    0    0 -0.11253975147E+01  0.72097244370E+01  0.73741198839E+01  0.10374212758E+02  0.51100000000E-03 0.  1.
         12    1    3    3    0    0  0.22566497959E+02  0.13265425469E+01 -0.10926263667E+02  0.25107564258E+02  0.00000000000E+00 0. -1.
</event>
<event>
 7    1  0.6593656E-013  0.5930192E+02  0.7816164E-02  0.1266605E+00
        -11   -1    0    0    0    0  0.00000000000E+00  0.00000000000E+00  0.45593999997E+02  0.45594000000E+02  0.51100000000E-03 0.  1.
         11   -1    0    0    0    0 -0.00000000000E+00 -0.00000000000E+00 -0.45593999997E+02  0.45594000000E+02  0.51100000000E-03 0. -1.
    9900012    2    1    2    0    0 -0.10339440315E+02  0.26240467610E+02  0.14874671315E+02  0.59301921326E+02  0.49999958598E+02 0.  0.
         12    1    1    2    0    0  0.10339440315E+02 -0.26240467610E+02 -0.14874671315E+02  0.31886078674E+02  0.00000000000E+00 0. -1.
         11    1    3    3    0    0 -0.15372834354E+02  0.69240948871E+00 -0.27593944803E+01  0.15633864689E+02  0.51100000000E-03 0. -1.
        -11    1    3    3    0    0 -0.10177822229E+01  0.77168383476E+00 -0.76492921118E+01  0.77551948181E+01  0.51100000000E-03 0.  1.
        -12    1    3    3    0    0  0.60511762616E+01  0.24776374287E+02  0.25283357908E+02  0.35912861819E+02  0.00000000000E+00 0.  1.
</event>
<event>
 7    1  0.6593656E-013  0.5930196E+02  0.7816164E-02  0.1266605E+00
        -11   -1    0    0    0    0  0.00000000000E+00  0.00000000000E+00  0.45593999997E+02  0.45594000000E+02  0.51100000000E-03 0.  1.
         11   -1    0    0    0    0 -0.00000000000E+00 -0.00000000000E+00 -0.45593999997E+02  0.45594000000E+02  0.51100000000E-03 0. -1.
    9900012    2    1    2    0    0  0.10250025055E+02  0.81621657812E+01  0.29069498329E+02  0.59301957647E+02  0.50000024838E+02 0.  0.
         12    1    1    2    0    0 -0.10250025055E+02 -0.81621657812E+01 -0.29069498329E+02  0.31886042353E+02  0.00000000000E+00 0. -1.
         11    1    3    3    0    0 -0.21043285545E+01  0.18319885412E+02  0.18346154145E+01  0.18531384572E+02  0.51100000000E-03 0. -1.
        -11    1    3    3    0    0 -0.17248216226E+01  0.44021785628E+01 -0.20588619032E+01  0.51568496513E+01  0.51100000000E-03 0.  1.
        -12    1    3    3    0    0  0.14079175232E+02 -0.14559898194E+02  0.29293744818E+02  0.35613723423E+02  0.00000000000E+00 0.  1.
</event>
<event>
 7    1  0.6593656E-013  0.5930194E+02  0.7816164E-02  0.1266605E+00
        -11   -1    0    0    0    0  0.00000000000E+00  0.00000000000E+00  0.45593999997E+02  0.45594000000E+02  0.51100000000E-03 0.  1.
         11   -1    0    0    0    0 -0.00000000000E+00 -0.00000000000E+00 -0.45593999997E+02  0.45594000000E+02  0.51100000000E-03 0. -1.
    9900012    2    1    2    0    0 -0.30972862395E+02  0.96321112173E+00 -0.75149673887E+01  0.59301941675E+02  0.49999995710E+02 0.  0.
         12    1    1    2    0    0  0.30972862395E+02 -0.96321112173E+00  0.75149673887E+01  0.31886058325E+02  0.00000000000E+00 0. -1.
         11    1    3    3    0    0 -0.33457776428E+02  0.13540617216E+01 -0.94819596584E+01  0.34801779349E+02  0.51100000000E-03 0. -1.
        -11    1    3    3    0    0  0.85152997760E+00  0.79842980423E+00 -0.11158842334E+02  0.11219730654E+02  0.51100000000E-03 0.  1.
        -12    1    3    3    0    0  0.16333840548E+01 -0.11892804041E+01  0.13125834604E+02  0.13280431672E+02  0.00000000000E+00 0.  1.
</event>
<event>
 7    1  0.6593656E-013  0.5930195E+02  0.7816164E-02  0.1266605E+00
        -11   -1    0    0    0    0  0.00000000000E+00  0.00000000000E+00  0.45593999997E+02  0.45594000000E+02  0.51100000000E-03 0. -1.
         11   -1    0    0    0    0 -0.00000000000E+00 -0.00000000000E+00 -0.45593999997E+02  0.45594000000E+02  0.51100000000E-03 0.  1.
    9900012    2    1    2    0    0 -0.69506677358E+01 -0.18641567208E+02 -0.24917878621E+02  0.59301945291E+02  0.50000002304E+02 0.  0.
         12    1    1    2    0    0  0.69506677358E+01  0.18641567208E+02  0.24917878621E+02  0.31886054709E+02  0.00000000000E+00 0. -1.
         11    1    3    3    0    0  0.30735249449E+01  0.44368436088E+01  0.65564704530E+01  0.84923166367E+01  0.51100000000E-03 0. -1.
        -11    1    3    3    0    0 -0.63423044057E+01  0.44979647047E+01 -0.18588699552E+02  0.20149348946E+02  0.51100000000E-03 0.  1.
         12    1    3    3    0    0 -0.36818882750E+01 -0.27576375522E+02 -0.12885649522E+02  0.30660279708E+02  0.00000000000E+00 0. -1.
</event>
<event>
 7    1  0.6593656E-013  0.5930197E+02  0.7816164E-02  0.1266605E+00
        -11   -1    0    0    0    0  0.00000000000E+00  0.00000000000E+00  0.45593999997E+02  0.45594000000E+02  0.51100000000E-03 0.  1.
         11   -1    0    0    0    0 -0.00000000000E+00 -0.00000000000E+00 -0.45593999997E+02  0.45594000000E+02  0.51100000000E-03 0. -1.
    9900012    2    1    2    0    0  0.26659773263E+01  0.16399701252E+02  0.27215092436E+02  0.59301970260E+02  0.50000047842E+02 0.  0.
         12    1    1    2    0    0 -0.26659773263E+01 -0.16399701252E+02 -0.27215092436E+02  0.31886029740E+02  0.00000000000E+00 0. -1.
         11    1    3    3    0    0 -0.10564700701E+02  0.47775383308E+01 -0.62183409523E+00  0.11611393169E+02  0.51100000000E-03 0. -1.
        -11    1    3    3    0    0 -0.10523906345E+02  0.76216556544E+00  0.16055075348E+01  0.10672916930E+02  0.51100000000E-03 0.  1.
        -12    1    3    3    0    0  0.23754584372E+02  0.10859997356E+02  0.26231418997E+02  0.37017660161E+02  0.00000000000E+00 0.  1.
</event>
<event>
 7    1  0.6593656E-013  0.5930194E+02  0.7816164E-02  0.1266605E+00
        -11   -1    0    0    0    0  0.00000000000E+00  0.00000000000E+00  0.45593999997E+02  0.45594000000E+02  0.51100000000E-03 0.  1.
         11   -1    0    0    0    0 -0.00000000000E+00 -0.00000000000E+00 -0.45593999997E+02  0.45594000000E+02  0.51100000000E-03 0. -1.
    9900012    2    1    2    0    0 -0.29535747261E+02 -0.56175607303E+01  0.10620908847E+02  0.59301936280E+02  0.49999985870E+02 0.  0.
         12    1    1    2    0    0  0.29535747261E+02  0.56175607303E+01 -0.10620908847E+02  0.31886063720E+02  0.00000000000E+00 0. -1.
         11    1    3    3    0    0 -0.20773278246E+02 -0.32167533246E+01 -0.93926981059E+01  0.23023886922E+02  0.51100000000E-03 0. -1.
        -11    1    3    3    0    0 -0.49562906808E+01 -0.11013222460E+02  0.23350061125E+02  0.26288424089E+02  0.51100000000E-03 0.  1.
         12    1    3    3    0    0 -0.38061783346E+01  0.86124150542E+01 -0.33364541727E+01  0.99896252696E+01  0.00000000000E+00 0. -1.
</event>
<event>
 7    1  0.6593656E-013  0.5930193E+02  0.7816164E-02  0.1266605E+00
        -11   -1    0    0    0    0  0.00000000000E+00  0.00000000000E+00  0.45593999997E+02  0.45594000000E+02  0.51100000000E-03 0. -1.
         11   -1    0    0    0    0 -0.00000000000E+00 -0.00000000000E+00 -0.45593999997E+02  0.45594000000E+02  0.51100000000E-03 0.  1.
    9900012    2    1    2    0    0  0.31321045123E+02  0.54351950372E+01 -0.24844124811E+01  0.59301929090E+02  0.49999972757E+02 0.  0.
         12    1    1    2    0    0 -0.31321045123E+02 -0.54351950372E+01  0.24844124811E+01  0.31886070910E+02  0.00000000000E+00 0. -1.
         11    1    3    3    0    0 -0.26999765120E+01  0.12979810875E+01  0.90024021797E+01  0.94877749412E+01  0.51100000000E-03 0. -1.
        -11    1    3    3    0    0  0.69899063912E+01 -0.12739467147E+02 -0.10507569984E+02  0.17932145487E+02  0.51100000000E-03 0.  1.
        -12    1    3    3    0    0  0.27031115244E+02  0.16876681096E+02 -0.97924467712E+00  0.31882008662E+02  0.00000000000E+00 0.  1.
</event>
<event>
 7    1  0.6593656E-013  0.5930195E+02  0.7816164E-02  0.1266605E+00
        -11   -1    0    0    0    0  0.00000000000E+00  0.00000000000E+00  0.45593999997E+02  0.45594000000E+02  0.51100000000E-03 0. -1.
         11   -1    0    0    0    0 -0.00000000000E+00 -0.00000000000E+00 -0.45593999997E+02  0.45594000000E+02  0.51100000000E-03 0.  1.
    9900012    2    1    2    0    0  0.31433391424E+01 -0.17055631619E+02 -0.26757149030E+02  0.59301950149E+02  0.50000011164E+02 0.  0.
         12    1    1    2    0    0 -0.31433391424E+01  0.17055631619E+02  0.26757149030E+02  0.31886049851E+02  0.00000000000E+00 0. -1.
         11    1    3    3    0    0  0.27224804008E+01 -0.95842846924E+01 -0.21960878658E+01  0.10202608234E+02  0.51100000000E-03 0. -1.
        -11    1    3    3    0    0  0.10301209595E+02 -0.11843145402E+02 -0.32230665179E+02  0.35849557742E+02  0.51100000000E-03 0.  1.
         12    1    3    3    0    0 -0.98803508529E+01  0.43717984755E+01  0.76696040150E+01  0.13249784173E+02  0.00000000000E+00 0. -1.
</event>
<event>
 7    1  0.6593656E-013  0.5930196E+02  0.7816164E-02  0.1266605E+00
        -11   -1    0    0    0    0  0.00000000000E+00  0.00000000000E+00  0.45593999997E+02  0.45594000000E+02  0.51100000000E-03 0.  1.
         11   -1    0    0    0    0 -0.00000000000E+00 -0.00000000000E+00 -0.45593999997E+02  0.45594000000E+02  0.51100000000E-03 0. -1.
    9900012    2    1    2    0    0 -0.88015139845E+01 -0.24758024502E+01  0.30547068146E+02  0.59301958877E+02  0.50000027081E+02 0.  0.
         12    1    1    2    0    0  0.88015139845E+01  0.24758024502E+01 -0.30547068146E+02  0.31886041123E+02  0.00000000000E+00 0. -1.
         11    1    3    3    0    0  0.84554761801E+01 -0.25263036523E+01  0.63133472282E-01  0.88250367519E+01  0.51100000000E-03 0. -1.
        -11    1    3    3    0    0  0.94851207246E+01 -0.41791140617E+01  0.17755994290E+02  0.20559859995E+02  0.51100000000E-03 0.  1.
         12    1    3    3    0    0 -0.26742110889E+02  0.42296152638E+01  0.12727940384E+02  0.29917062130E+02  0.00000000000E+00 0. -1.
</event>
<event>
 7    1  0.6593656E-013  0.5930232E+02  0.7816164E-02  0.1266603E+00
        -11   -1    0    0    0    0  0.00000000000E+00  0.00000000000E+00  0.45593999997E+02  0.45594000000E+02  0.51100000000E-03 0. -1.
         11   -1    0    0    0    0 -0.00000000000E+00 -0.00000000000E+00 -0.45593999997E+02  0.45594000000E+02  0.51100000000E-03 0.  1.
    9900012    2    1    2    0    0 -0.20091305516E+02  0.10032017355E+02 -0.22636135050E+02  0.59302320776E+02  0.50000687094E+02 0.  0.
         12    1    1    2    0    0  0.20091305516E+02 -0.10032017355E+02  0.22636135050E+02  0.31885679224E+02  0.00000000000E+00 0. -1.
         11    1    3    3    0    0 -0.12698832345E+02 -0.90288495034E+00  0.81690227270E+01  0.15126416520E+02  0.51100000000E-03 0. -1.
        -11    1    3    3    0    0  0.97572003904E+00  0.18175093493E+02 -0.10398712536E+02  0.20962329921E+02  0.51100000000E-03 0.  1.
         12    1    3    3    0    0 -0.83681932102E+01 -0.72401911871E+01 -0.20406445241E+02  0.23213574335E+02  0.00000000000E+00 0. -1.
</event>
<event>
 7    1  0.6593656E-013  0.5930194E+02  0.7816164E-02  0.1266605E+00
        -11   -1    0    0    0    0  0.00000000000E+00  0.00000000000E+00  0.45593999997E+02  0.45594000000E+02  0.51100000000E-03 0. -1.
         11   -1    0    0    0    0 -0.00000000000E+00 -0.00000000000E+00 -0.45593999997E+02  0.45594000000E+02  0.51100000000E-03 0.  1.
    9900012    2    1    2    0    0  0.29078684103E+02 -0.33452628465E+01 -0.12647531254E+02  0.59301941926E+02  0.49999996167E+02 0.  0.
         12    1    1    2    0    0 -0.29078684103E+02  0.33452628465E+01  0.12647531254E+02  0.31886058074E+02  0.00000000000E+00 0. -1.
         11    1    3    3    0    0  0.18458251944E+02  0.26530289840E+01 -0.59578688651E-01  0.18648034145E+02  0.51100000000E-03 0. -1.
        -11    1    3    3    0    0  0.16361727291E+02  0.72990870429E+01 -0.17805397022E+02  0.25258957916E+02  0.51100000000E-03 0.  1.
         12    1    3    3    0    0 -0.57412951321E+01 -0.13297378873E+02  0.52174444563E+01  0.15394949865E+02  0.00000000000E+00 0. -1.
</event>
<event>
 7    1  0.6593656E-013  0.5930198E+02  0.7816164E-02  0.1266605E+00
        -11   -1    0    0    0    0  0.00000000000E+00  0.00000000000E+00  0.45593999997E+02  0.45594000000E+02  0.51100000000E-03 0.  1.
         11   -1    0    0    0    0 -0.00000000000E+00 -0.00000000000E+00 -0.45593999997E+02  0.45594000000E+02  0.51100000000E-03 0. -1.
    9900012    2    1    2    0    0 -0.86478187704E+01  0.30125431171E+02  0.58644677909E+01  0.59301978687E+02  0.50000063210E+02 0.  0.
         12    1    1    2    0    0  0.86478187704E+01 -0.30125431171E+02 -0.58644677909E+01  0.31886021313E+02  0.00000000000E+00 0. -1.
         11    1    3    3    0    0 -0.20670063623E+02  0.87921811742E+01  0.74263090084E+01  0.23658065131E+02  0.51100000000E-03 0. -1.
        -11    1    3    3    0    0 -0.15724055129E+01  0.19323705875E+01  0.92672745805E+01  0.95962958268E+01  0.51100000000E-03 0.  1.
        -12    1    3    3    0    0  0.13594650365E+02  0.19400879409E+02 -0.10829115798E+02  0.26047617729E+02  0.00000000000E+00 0.  1.
</event>
<event>
 7    1  0.6593656E-013  0.5930194E+02  0.7816164E-02  0.1266605E+00
        -11   -1    0    0    0    0  0.00000000000E+00  0.00000000000E+00  0.45593999997E+02  0.45594000000E+02  0.51100000000E-03 0.  1.
         11   -1    0    0    0    0 -0.00000000000E+00 -0.00000000000E+00 -0.45593999997E+02  0.45594000000E+02  0.51100000000E-03 0. -1.
    9900012    2    1    2    0    0  0.20447099896E+02 -0.24875891090E+01  0.24340272433E+02  0.59301939474E+02  0.49999991695E+02 0.  0.
         12    1    1    2    0    0 -0.20447099896E+02  0.24875891090E+01 -0.24340272433E+02  0.31886060526E+02  0.00000000000E+00 0. -1.
         11    1    3    3    0    0 -0.77623300028E+01 -0.48709134556E+01  0.39481314367E+01  0.99783418997E+01  0.51100000000E-03 0. -1.
        -11    1    3    3    0    0  0.30147444868E+01 -0.91827225029E+01  0.19293794308E+02  0.21579193126E+02  0.51100000000E-03 0.  1.
        -12    1    3    3    0    0  0.25194685412E+02  0.11566046850E+02  0.10983466881E+01  0.27744404448E+02  0.00000000000E+00 0.  1.
</event>
<event>
 7    1  0.6593656E-013  0.5930191E+02  0.7816164E-02  0.1266605E+00
        -11   -1    0    0    0    0  0.00000000000E+00  0.00000000000E+00  0.45593999997E+02  0.45594000000E+02  0.51100000000E-03 0. -1.
         11   -1    0    0    0    0 -0.00000000000E+00 -0.00000000000E+00 -0.45593999997E+02  0.45594000000E+02  0.51100000000E-03 0.  1.
    9900012    2    1    2    0    0  0.18060879140E+02 -0.26160298005E+02  0.24831365049E+01  0.59301913474E+02  0.49999944277E+02 0.  0.
         12    1    1    2    0    0 -0.18060879140E+02  0.26160298005E+02 -0.24831365049E+01  0.31886086526E+02  0.00000000000E+00 0. -1.
         11    1    3    3    0    0  0.10619034935E+01  0.93322456368E+01 -0.94385668105E+01  0.13315592039E+02  0.51100000000E-03 0. -1.
        -11    1    3    3    0    0  0.36224111649E+01 -0.15496101900E+01 -0.44966987740E+01  0.59785829854E+01  0.51100000000E-03 0.  1.
         12    1    3    3    0    0  0.13376564482E+02 -0.33942933452E+02  0.16418402089E+02  0.40007738449E+02  0.00000000000E+00 0. -1.
</event>
<event>
 7    1  0.6593656E-013  0.5930194E+02  0.7816164E-02  0.1266605E+00
        -11   -1    0    0    0    0  0.00000000000E+00  0.00000000000E+00  0.45593999997E+02  0.45594000000E+02  0.51100000000E-03 0.  1.
         11   -1    0    0    0    0 -0.00000000000E+00 -0.00000000000E+00 -0.45593999997E+02  0.45594000000E+02  0.51100000000E-03 0. -1.
    9900012    2    1    2    0    0  0.15581473162E+02 -0.26572084777E+00  0.27818484698E+02  0.59301937146E+02  0.49999987449E+02 0.  0.
         12    1    1    2    0    0 -0.15581473162E+02  0.26572084777E+00 -0.27818484698E+02  0.31886062854E+02  0.00000000000E+00 0. -1.
         11    1    3    3    0    0  0.10971553144E+01 -0.13909736438E+02  0.24869151176E+02  0.28515946381E+02  0.51100000000E-03 0. -1.
        -11    1    3    3    0    0 -0.61479501010E+01  0.13841096917E+01  0.25064676685E+01  0.67819931080E+01  0.51100000000E-03 0.  1.
         12    1    3    3    0    0  0.20632267948E+02  0.12259905898E+02  0.44286585408E+00  0.24003997656E+02  0.00000000000E+00 0. -1.
</event>
<event>
 7    1  0.6593656E-013  0.5930195E+02  0.7816164E-02  0.1266605E+00
        -11   -1    0    0    0    0  0.00000000000E+00  0.00000000000E+00  0.45593999997E+02  0.45594000000E+02  0.51100000000E-03 0.  1.
         11   -1    0    0    0    0 -0.00000000000E+00 -0.00000000000E+00 -0.45593999997E+02  0.45594000000E+02  0.51100000000E-03 0. -1.
    9900012    2    1    2    0    0 -0.28158579740E+02  0.14137552315E+02  0.48932867550E+01  0.59301948916E+02  0.50000008916E+02 0.  0.
         12    1    1    2    0    0  0.28158579740E+02 -0.14137552315E+02 -0.48932867550E+01  0.31886051084E+02  0.00000000000E+00 0. -1.
         11    1    3    3    0    0 -0.15219407089E+02  0.62426349317E+01  0.96404072463E+01  0.19066680234E+02  0.51100000000E-03 0. -1.
        -11    1    3    3    0    0 -0.15281801909E+02 -0.12089970177E+02  0.30770523228E+00  0.19488343471E+02  0.51100000000E-03 0.  1.
         12    1    3    3    0    0  0.23426292578E+01  0.19984887560E+02 -0.50548257236E+01  0.20746925212E+02  0.00000000000E+00 0. -1.
</event>
<event>
 7    1  0.6593656E-013  0.5930193E+02  0.7816164E-02  0.1266605E+00
        -11   -1    0    0    0    0  0.00000000000E+00  0.00000000000E+00  0.45593999997E+02  0.45594000000E+02  0.51100000000E-03 0. -1.
         11   -1    0    0    0    0 -0.00000000000E+00 -0.00000000000E+00 -0.45593999997E+02  0.45594000000E+02  0.51100000000E-03 0.  1.
    9900012    2    1    2    0    0 -0.57558241683E+01  0.27735979702E+02 -0.14639231108E+02  0.59301934559E+02  0.49999982731E+02 0.  0.
         12    1    1    2    0    0  0.57558241683E+01 -0.27735979702E+02  0.14639231108E+02  0.31886065441E+02  0.00000000000E+00 0. -1.
         11    1    3    3    0    0  0.38220530462E+01  0.85962748349E+01 -0.19401274198E+02  0.21561852223E+02  0.51100000000E-03 0.  1.
        -11    1    3    3    0    0 -0.16192752035E+02  0.37861174827E+00 -0.28393433074E+01  0.16444161152E+02  0.51100000000E-03 0. -1.
        -12    1    3    3    0    0  0.66148748207E+01  0.18761093118E+02  0.76013863971E+01  0.21295921183E+02  0.00000000000E+00 0.  1.
</event>
<event>
 7    1  0.6593656E-013  0.5930194E+02  0.7816164E-02  0.1266605E+00
        -11   -1    0    0    0    0  0.00000000000E+00  0.00000000000E+00  0.45593999997E+02  0.45594000000E+02  0.51100000000E-03 0. -1.
         11   -1    0    0    0    0 -0.00000000000E+00 -0.00000000000E+00 -0.45593999997E+02  0.45594000000E+02  0.51100000000E-03 0.  1.
    9900012    2    1    2    0    0 -0.22052832492E+01  0.17541010518E+02 -0.26536208047E+02  0.59301942518E+02  0.49999997247E+02 0.  0.
         12    1    1    2    0    0  0.22052832492E+01 -0.17541010518E+02  0.26536208047E+02  0.31886057482E+02  0.00000000000E+00 0. -1.
         11    1    3    3    0    0  0.55395086937E+01  0.85521745137E+01 -0.11824017874E+02  0.15608755377E+02  0.51100000000E-03 0.  1.
        -11    1    3    3    0    0  0.91197157471E+01  0.86637629874E+01 -0.21981200619E+02  0.25325938982E+02  0.51100000000E-03 0. -1.
         12    1    3    3    0    0 -0.16864507690E+02  0.32507301712E+00  0.72690104449E+01  0.18367248159E+02  0.00000000000E+00 0. -1.
</event>
<event>
 7    1  0.6593656E-013  0.5930164E+02  0.7816164E-02  0.1266606E+00
        -11   -1    0    0    0    0  0.00000000000E+00  0.00000000000E+00  0.45593999997E+02  0.45594000000E+02  0.51100000000E-03 0.  1.
         11   -1    0    0    0    0 -0.00000000000E+00 -0.00000000000E+00 -0.45593999997E+02  0.45594000000E+02  0.51100000000E-03 0. -1.
    9900012    2    1    2    0    0  0.11920781024E+02  0.44957792938E+01  0.29230513304E+02  0.59301639911E+02  0.49999445361E+02 0.  0.
         12    1    1    2    0    0 -0.11920781024E+02 -0.44957792938E+01 -0.29230513304E+02  0.31886360089E+02  0.00000000000E+00 0. -1.
         11    1    3    3    0    0 -0.73718284454E+01 -0.11172555567E+02  0.92104519710E+01  0.16248146919E+02  0.51100000000E-03 0. -1.
        -11    1    3    3    0    0  0.69987277487E+01  0.17741603861E+01 -0.71449858752E+01  0.10157788076E+02  0.51100000000E-03 0.  1.
        -12    1    3    3    0    0  0.12293881721E+02  0.13894174475E+02  0.27165047208E+02  0.32895704916E+02  0.00000000000E+00 0.  1.
</event>
<event>
 7    1  0.6593656E-013  0.5930196E+02  0.7816164E-02  0.1266605E+00
        -11   -1    0    0    0    0  0.00000000000E+00  0.00000000000E+00  0.45593999997E+02  0.45594000000E+02  0.51100000000E-03 0.  1.
         11   -1    0    0    0    0 -0.00000000000E+00 -0.00000000000E+00 -0.45593999997E+02  0.45594000000E+02  0.51100000000E-03 0. -1.
    9900012    2    1    2    0    0  0.22010097713E+02 -0.83067957185E+01  0.21523765024E+02  0.59301957329E+02  0.50000024258E+02 0.  0.
         12    1    1    2    0    0 -0.22010097713E+02  0.83067957185E+01 -0.21523765024E+02  0.31886042671E+02  0.00000000000E+00 0. -1.
         11    1    3    3    0    0  0.87910592019E+01  0.34107040917E+01 -0.12028493700E+02  0.15283987871E+02  0.51100000000E-03 0. -1.
        -11    1    3    3    0    0  0.23775709469E+01 -0.13088323627E+02  0.64260027520E+01  0.14773306015E+02  0.51100000000E-03 0.  1.
        -12    1    3    3    0    0  0.10841467564E+02  0.13708238169E+01  0.27126255971E+02  0.29244663443E+02  0.00000000000E+00 0.  1.
</event>
<event>
 7    1  0.6593656E-013  0.5930193E+02  0.7816164E-02  0.1266605E+00
        -11   -1    0    0    0    0  0.00000000000E+00  0.00000000000E+00  0.45593999997E+02  0.45594000000E+02  0.51100000000E-03 0.  1.
         11   -1    0    0    0    0 -0.00000000000E+00 -0.00000000000E+00 -0.45593999997E+02  0.45594000000E+02  0.51100000000E-03 0. -1.
    9900012    2    1    2    0    0  0.25425413608E+02  0.80068967521E+01  0.17497409476E+02  0.59301931081E+02  0.49999976388E+02 0.  0.
         12    1    1    2    0    0 -0.25425413608E+02 -0.80068967521E+01 -0.17497409476E+02  0.31886068919E+02  0.00000000000E+00 0. -1.
         11    1    3    3    0    0  0.18829375119E+02  0.92570099133E+01  0.21976448300E+02  0.30384237362E+02  0.51100000000E-03 0. -1.
        -11    1    3    3    0    0 -0.48313397246E+01  0.34894884925E+00  0.95768989476E+01  0.10732222629E+02  0.51100000000E-03 0.  1.
         12    1    3    3    0    0  0.11427378213E+02 -0.15990620104E+01 -0.14055937771E+02  0.18185471090E+02  0.00000000000E+00 0. -1.
</event>
<event>
 7    1  0.6593656E-013  0.5930193E+02  0.7816164E-02  0.1266605E+00
        -11   -1    0    0    0    0  0.00000000000E+00  0.00000000000E+00  0.45593999997E+02  0.45594000000E+02  0.51100000000E-03 0.  1.
         11   -1    0    0    0    0 -0.00000000000E+00 -0.00000000000E+00 -0.45593999997E+02  0.45594000000E+02  0.51100000000E-03 0. -1.
    9900012    2    1    2    0    0  0.44000109384E+01 -0.13397534355E+02  0.28598385896E+02  0.59301926254E+02  0.49999967586E+02 0.  0.
         12    1    1    2    0    0 -0.44000109384E+01  0.13397534355E+02 -0.28598385896E+02  0.31886073746E+02  0.00000000000E+00 0. -1.
         11    1    3    3    0    0  0.31669265945E+01  0.77894573505E+00 -0.31781424919E+01  0.45537644288E+01  0.51100000000E-03 0. -1.
        -11    1    3    3    0    0 -0.14098791175E+02  0.87465474123E+01  0.15613890652E+02  0.22783142580E+02  0.51100000000E-03 0.  1.
        -12    1    3    3    0    0  0.15331875519E+02 -0.22923027503E+02  0.16162637736E+02  0.31965019246E+02  0.00000000000E+00 0.  1.
</event>
<event>
 7    1  0.6593656E-013  0.5930195E+02  0.7816164E-02  0.1266605E+00
        -11   -1    0    0    0    0  0.00000000000E+00  0.00000000000E+00  0.45593999997E+02  0.45594000000E+02  0.51100000000E-03 0.  1.
         11   -1    0    0    0    0 -0.00000000000E+00 -0.00000000000E+00 -0.45593999997E+02  0.45594000000E+02  0.51100000000E-03 0. -1.
    9900012    2    1    2    0    0 -0.85772238566E+00 -0.31863014991E+02  0.85595937364E+00  0.59301951665E+02  0.50000013928E+02 0.  0.
         12    1    1    2    0    0  0.85772238566E+00  0.31863014991E+02 -0.85595937364E+00  0.31886048335E+02  0.00000000000E+00 0. -1.
         11    1    3    3    0    0 -0.11218368142E+02 -0.26962073495E+01  0.29861097176E+01  0.11917976730E+02  0.51100000000E-03 0. -1.
        -11    1    3    3    0    0 -0.56203904014E+01 -0.14669612395E+02  0.13522206905E+02  0.20727672226E+02  0.51100000000E-03 0.  1.
         12    1    3    3    0    0  0.15981036157E+02 -0.14497195247E+02 -0.15652357249E+02  0.26656302709E+02  0.00000000000E+00 0. -1.
</event>
<event>
 7    1  0.6593656E-013  0.5930192E+02  0.7816164E-02  0.1266605E+00
        -11   -1    0    0    0    0  0.00000000000E+00  0.00000000000E+00  0.45593999997E+02  0.45594000000E+02  0.51100000000E-03 0.  1.
         11   -1    0    0    0    0 -0.00000000000E+00 -0.00000000000E+00 -0.45593999997E+02  0.45594000000E+02  0.51100000000E-03 0. -1.
    9900012    2    1    2    0    0 -0.28685544354E+02  0.58931923494E+01  0.12614753003E+02  0.59301918957E+02  0.49999954277E+02 0.  0.
         12    1    1    2    0    0  0.28685544354E+02 -0.58931923494E+01 -0.12614753003E+02  0.31886081043E+02  0.00000000000E+00 0. -1.
         11    1    3    3    0    0 -0.14125420864E+02 -0.17712940243E+01 -0.12513307696E+01  0.14290935101E+02  0.51100000000E-03 0. -1.
        -11    1    3    3    0    0 -0.16598689003E+02  0.14839849797E+02 -0.66041923059E+01  0.23223974141E+02  0.51100000000E-03 0.  1.
        -12    1    3    3    0    0  0.20385655131E+01 -0.71753634232E+01  0.20470276079E+02  0.21787009715E+02  0.00000000000E+00 0.  1.
</event>
<event>
 7    1  0.6593656E-013  0.5930194E+02  0.7816164E-02  0.1266605E+00
        -11   -1    0    0    0    0  0.00000000000E+00  0.00000000000E+00  0.45593999997E+02  0.45594000000E+02  0.51100000000E-03 0.  1.
         11   -1    0    0    0    0 -0.00000000000E+00 -0.00000000000E+00 -0.45593999997E+02  0.45594000000E+02  0.51100000000E-03 0. -1.
    9900012    2    1    2    0    0  0.22788044871E+01 -0.31213955949E+02 -0.61005616289E+01  0.59301939597E+02  0.49999991919E+02 0.  0.
         12    1    1    2    0    0 -0.22788044871E+01  0.31213955949E+02  0.61005616289E+01  0.31886060403E+02  0.00000000000E+00 0. -1.
         11    1    3    3    0    0 -0.88705514112E+01 -0.15654699914E+01 -0.77007771360E+01  0.11850710839E+02  0.51100000000E-03 0. -1.
        -11    1    3    3    0    0 -0.52714172783E+01  0.37294269037E+01 -0.67349104094E+01  0.93303528141E+01  0.51100000000E-03 0.  1.
         12    1    3    3    0    0  0.16420773177E+02 -0.33377912861E+02  0.83351259166E+01  0.38120875944E+02  0.00000000000E+00 0. -1.
</event>
<event>
 7    1  0.6593656E-013  0.5930195E+02  0.7816164E-02  0.1266605E+00
        -11   -1    0    0    0    0  0.00000000000E+00  0.00000000000E+00  0.45593999997E+02  0.45594000000E+02  0.51100000000E-03 0.  1.
         11   -1    0    0    0    0 -0.00000000000E+00 -0.00000000000E+00 -0.45593999997E+02  0.45594000000E+02  0.51100000000E-03 0. -1.
    9900012    2    1    2    0    0 -0.23928729340E+02 -0.51603333481E+01 -0.20432986925E+02  0.59301951597E+02  0.50000013805E+02 0.  0.
         12    1    1    2    0    0  0.23928729340E+02  0.51603333481E+01  0.20432986925E+02  0.31886048403E+02  0.00000000000E+00 0. -1.
         11    1    3    3    0    0 -0.11644538618E+02  0.11593682842E+02 -0.13603684858E+02  0.21332346412E+02  0.51100000000E-03 0. -1.
        -11    1    3    3    0    0 -0.14046706157E+02  0.52821986996E+01 -0.67444770183E+00  0.15022198805E+02  0.51100000000E-03 0.  1.
         12    1    3    3    0    0  0.17625154350E+01 -0.22036214890E+02 -0.61548543654E+01  0.22947406380E+02  0.00000000000E+00 0. -1.
</event>
<event>
 7    1  0.6593656E-013  0.5930196E+02  0.7816164E-02  0.1266605E+00
        -11   -1    0    0    0    0  0.00000000000E+00  0.00000000000E+00  0.45593999997E+02  0.45594000000E+02  0.51100000000E-03 0. -1.
         11   -1    0    0    0    0 -0.00000000000E+00 -0.00000000000E+00 -0.45593999997E+02  0.45594000000E+02  0.51100000000E-03 0.  1.
    9900012    2    1    2    0    0  0.72844143064E+01 -0.16363262165E+02 -0.26379929245E+02  0.59301957482E+02  0.50000024537E+02 0.  0.
         12    1    1    2    0    0 -0.72844143064E+01  0.16363262165E+02  0.26379929245E+02  0.31886042518E+02  0.00000000000E+00 0. -1.
         11    1    3    3    0    0  0.93728212081E+00 -0.12326127414E+02  0.29869652418E+01  0.12717463442E+02  0.51100000000E-03 0.  1.
        -11    1    3    3    0    0  0.67338332109E+01 -0.53440045927E+01  0.64464582131E+01  0.10745218404E+02  0.51100000000E-03 0. -1.
        -12    1    3    3    0    0 -0.38670102526E+00  0.13068698408E+01 -0.35813352700E+02  0.35839275636E+02  0.00000000000E+00 0.  1.
</event>
<event>
 7    1  0.6593656E-013  0.5930194E+02  0.7816164E-02  0.1266605E+00
        -11   -1    0    0    0    0  0.00000000000E+00  0.00000000000E+00  0.45593999997E+02  0.45594000000E+02  0.51100000000E-03 0. -1.
         11   -1    0    0    0    0 -0.00000000000E+00 -0.00000000000E+00 -0.45593999997E+02  0.45594000000E+02  0.51100000000E-03 0.  1.
    9900012    2    1    2    0    0  0.23073807993E+02 -0.14951593061E+02 -0.16148379801E+02  0.59301938459E+02  0.49999989845E+02 0.  0.
         12    1    1    2    0    0 -0.23073807993E+02  0.14951593061E+02  0.16148379801E+02  0.31886061541E+02  0.00000000000E+00 0. -1.
         11    1    3    3    0    0 -0.19054863824E+01 -0.15578407111E+02  0.23084449651E+01  0.15863371801E+02  0.51100000000E-03 0. -1.
        -11    1    3    3    0    0  0.10004043608E+02  0.29155457452E+01  0.78740860037E+01  0.13060724565E+02  0.51100000000E-03 0.  1.
        -12    1    3    3    0    0  0.14975250768E+02 -0.22887316958E+01 -0.26330910770E+02  0.30377842094E+02  0.00000000000E+00 0.  1.
</event>
<event>
 7    1  0.6593656E-013  0.5930174E+02  0.7816164E-02  0.1266605E+00
        -11   -1    0    0    0    0  0.00000000000E+00  0.00000000000E+00  0.45593999997E+02  0.45594000000E+02  0.51100000000E-03 0.  1.
         11   -1    0    0    0    0 -0.00000000000E+00 -0.00000000000E+00 -0.45593999997E+02  0.45594000000E+02  0.51100000000E-03 0. -1.
    9900012    2    1    2    0    0  0.11298862719E+02 -0.29596405503E+02  0.36224038523E+01  0.59301743915E+02  0.49999635042E+02 0.  0.
         12    1    1    2    0    0 -0.11298862719E+02  0.29596405503E+02 -0.36224038523E+01  0.31886256085E+02  0.00000000000E+00 0. -1.
         11    1    3    3    0    0  0.80557374538E+01  0.73613836186E+01  0.11756443388E+00  0.10913234917E+02  0.51100000000E-03 0. -1.
        -11    1    3    3    0    0 -0.12554823124E+02 -0.10701070657E+02  0.62092794207E+01  0.17626447403E+02  0.51100000000E-03 0.  1.
        -12    1    3    3    0    0  0.15797948389E+02 -0.26256718464E+02 -0.27044400023E+01  0.30762061595E+02  0.00000000000E+00 0.  1.
</event>
<event>
 7    1  0.6593656E-013  0.5930198E+02  0.7816164E-02  0.1266605E+00
        -11   -1    0    0    0    0  0.00000000000E+00  0.00000000000E+00  0.45593999997E+02  0.45594000000E+02  0.51100000000E-03 0.  1.
         11   -1    0    0    0    0 -0.00000000000E+00 -0.00000000000E+00 -0.45593999997E+02  0.45594000000E+02  0.51100000000E-03 0. -1.
    9900012    2    1    2    0    0  0.51550331737E+01  0.58784610571E+01  0.30912581138E+02  0.59301978862E+02  0.50000063530E+02 0.  0.
         12    1    1    2    0    0 -0.51550331737E+01 -0.58784610571E+01 -0.30912581138E+02  0.31886021138E+02  0.00000000000E+00 0. -1.
         11    1    3    3    0    0  0.15599962935E+02  0.98819617588E+01  0.26003366053E+01  0.18648693319E+02  0.51100000000E-03 0. -1.
        -11    1    3    3    0    0  0.65487098584E+01  0.35530015214E+01  0.17785117237E+02  0.19282629904E+02  0.51100000000E-03 0.  1.
        -12    1    3    3    0    0 -0.16993639619E+02 -0.75565022231E+01  0.10527127295E+02  0.21370655639E+02  0.00000000000E+00 0.  1.
</event>
<event>
 7    1  0.6593656E-013  0.5930188E+02  0.7816164E-02  0.1266605E+00
        -11   -1    0    0    0    0  0.00000000000E+00  0.00000000000E+00  0.45593999997E+02  0.45594000000E+02  0.51100000000E-03 0. -1.
         11   -1    0    0    0    0 -0.00000000000E+00 -0.00000000000E+00 -0.45593999997E+02  0.45594000000E+02  0.51100000000E-03 0.  1.
    9900012    2    1    2    0    0  0.25104937039E+02 -0.19557379164E+02 -0.19938767033E+01  0.59301882523E+02  0.49999887829E+02 0.  0.
         12    1    1    2    0    0 -0.25104937039E+02  0.19557379164E+02  0.19938767033E+01  0.31886117477E+02  0.00000000000E+00 0. -1.
         11    1    3    3    0    0  0.26460403400E+02 -0.15135544955E+02  0.33229539157E+00  0.30485210999E+02  0.51100000000E-03 0. -1.
        -11    1    3    3    0    0  0.11869086543E+02  0.30655804226E+01 -0.52592940791E+01  0.13339159387E+02  0.51100000000E-03 0.  1.
         12    1    3    3    0    0 -0.13224552904E+02 -0.74874146317E+01  0.29331219842E+01  0.15477512137E+02  0.00000000000E+00 0. -1.
</event>
<event>
 7    1  0.6593656E-013  0.5930192E+02  0.7816164E-02  0.1266605E+00
        -11   -1    0    0    0    0  0.00000000000E+00  0.00000000000E+00  0.45593999997E+02  0.45594000000E+02  0.51100000000E-03 0.  1.
         11   -1    0    0    0    0 -0.00000000000E+00 -0.00000000000E+00 -0.45593999997E+02  0.45594000000E+02  0.51100000000E-03 0. -1.
    9900012    2    1    2    0    0  0.57234765784E+01 -0.26104284982E+02  0.17393390272E+02  0.59301923043E+02  0.49999961729E+02 0.  0.
         12    1    1    2    0    0 -0.57234765784E+01  0.26104284982E+02 -0.17393390272E+02  0.31886076957E+02  0.00000000000E+00 0. -1.
         11    1    3    3    0    0 -0.41504585225E+01 -0.18060014230E+02  0.34080542061E+01  0.18841583099E+02  0.51100000000E-03 0.  1.
        -11    1    3    3    0    0  0.57844524332E+01 -0.20923015752E+02  0.15768792696E+02  0.26830715635E+02  0.51100000000E-03 0. -1.
         12    1    3    3    0    0  0.40894826677E+01  0.12878745000E+02 -0.17834566309E+01  0.13629624310E+02  0.00000000000E+00 0. -1.
</event>
<event>
 7    1  0.6593656E-013  0.5930193E+02  0.7816164E-02  0.1266605E+00
        -11   -1    0    0    0    0  0.00000000000E+00  0.00000000000E+00  0.45593999997E+02  0.45594000000E+02  0.51100000000E-03 0. -1.
         11   -1    0    0    0    0 -0.00000000000E+00 -0.00000000000E+00 -0.45593999997E+02  0.45594000000E+02  0.51100000000E-03 0.  1.
    9900012    2    1    2    0    0 -0.23918712363E+02  0.19757078674E+02 -0.73671095108E+01  0.59301933115E+02  0.49999980099E+02 0.  0.
         12    1    1    2    0    0  0.23918712363E+02 -0.19757078674E+02  0.73671095108E+01  0.31886066885E+02  0.00000000000E+00 0. -1.
         11    1    3    3    0    0  0.46945564209E+01  0.30115404074E+01 -0.75775195608E+01  0.94088808352E+01  0.51100000000E-03 0. -1.
        -11    1    3    3    0    0 -0.33449332359E+01  0.25243627565E+00 -0.15510214410E+02  0.15868807571E+02  0.51100000000E-03 0.  1.
         12    1    3    3    0    0 -0.25268335548E+02  0.16493101991E+02  0.15720624460E+02  0.34024244709E+02  0.00000000000E+00 0. -1.
</event>
<event>
 7    1  0.6593656E-013  0.5930188E+02  0.7816164E-02  0.1266605E+00
        -11   -1    0    0    0    0  0.00000000000E+00  0.00000000000E+00  0.45593999997E+02  0.45594000000E+02  0.51100000000E-03 0. -1.
         11   -1    0    0    0    0 -0.00000000000E+00 -0.00000000000E+00 -0.45593999997E+02  0.45594000000E+02  0.51100000000E-03 0.  1.
    9900012    2    1    2    0    0 -0.59541643740E+01  0.20732260448E+02 -0.23482881963E+02  0.59301883241E+02  0.49999889140E+02 0.  0.
         12    1    1    2    0    0  0.59541643740E+01 -0.20732260448E+02  0.23482881963E+02  0.31886116759E+02  0.00000000000E+00 0. -1.
         11    1    3    3    0    0 -0.62163302736E+01  0.22867129454E+02 -0.17758014960E+02  0.29612420825E+02  0.51100000000E-03 0. -1.
        -11    1    3    3    0    0 -0.47714463419E+01 -0.82162465910E+01 -0.14846280011E+02  0.17626271264E+02  0.51100000000E-03 0.  1.
         12    1    3    3    0    0  0.50336122415E+01  0.60813775843E+01  0.91214130076E+01  0.12063191152E+02  0.00000000000E+00 0. -1.
</event>
<event>
 7    1  0.6593656E-013  0.5930195E+02  0.7816164E-02  0.1266605E+00
        -11   -1    0    0    0    0  0.00000000000E+00  0.00000000000E+00  0.45593999997E+02  0.45594000000E+02  0.51100000000E-03 0. -1.
         11   -1    0    0    0    0 -0.00000000000E+00 -0.00000000000E+00 -0.45593999997E+02  0.45594000000E+02  0.51100000000E-03 0.  1.
    9900012    2    1    2    0    0  0.22989432417E+02  0.19651325274E+02  0.10101065649E+02  0.59301951089E+02  0.50000012878E+02 0.  0.
         12    1    1    2    0    0 -0.22989432417E+02 -0.19651325274E+02 -0.10101065649E+02  0.31886048911E+02  0.00000000000E+00 0. -1.
         11    1    3    3    0    0  0.75905415657E+01  0.84845025516E+01  0.59133542821E+01  0.12828517605E+02  0.51100000000E-03 0. -1.
        -11    1    3    3    0    0  0.58386152646E+01  0.94618017276E+01 -0.18618604987E+02  0.21685653601E+02  0.51100000000E-03 0.  1.
         12    1    3    3    0    0  0.95602755870E+01  0.17050209950E+01  0.22806316355E+02  0.24787779884E+02  0.00000000000E+00 0. -1.
</event>
<event>
 7    1  0.6593656E-013  0.5930197E+02  0.7816164E-02  0.1266605E+00
        -11   -1    0    0    0    0  0.00000000000E+00  0.00000000000E+00  0.45593999997E+02  0.45594000000E+02  0.51100000000E-03 0.  1.
         11   -1    0    0    0    0 -0.00000000000E+00 -0.00000000000E+00 -0.45593999997E+02  0.45594000000E+02  0.51100000000E-03 0. -1.
    9900012    2    1    2    0    0  0.21616457932E+02 -0.21461770833E+02  0.94254879918E+01  0.59301973520E+02  0.50000053786E+02 0.  0.
         12    1    1    2    0    0 -0.21616457932E+02  0.21461770833E+02 -0.94254879918E+01  0.31886026480E+02  0.00000000000E+00 0. -1.
         11    1    3    3    0    0  0.64362877667E+01 -0.62115344557E+01  0.26038012127E+01  0.93160475271E+01  0.51100000000E-03 0. -1.
        -11    1    3    3    0    0  0.17938929034E+02 -0.21904574435E+02  0.20207806677E+02  0.34784637514E+02  0.51100000000E-03 0.  1.
         12    1    3    3    0    0 -0.27587588683E+01  0.66543380579E+01 -0.13386119898E+02  0.15201288478E+02  0.00000000000E+00 0. -1.
</event>
<event>
 7    1  0.6593656E-013  0.5930195E+02  0.7816164E-02  0.1266605E+00
        -11   -1    0    0    0    0  0.00000000000E+00  0.00000000000E+00  0.45593999997E+02  0.45594000000E+02  0.51100000000E-03 0.  1.
         11   -1    0    0    0    0 -0.00000000000E+00 -0.00000000000E+00 -0.45593999997E+02  0.45594000000E+02  0.51100000000E-03 0. -1.
    9900012    2    1    2    0    0  0.13854576991E+02  0.28216524684E+02  0.53477928240E+01  0.59301945729E+02  0.50000003103E+02 0.  0.
         12    1    1    2    0    0 -0.13854576991E+02 -0.28216524684E+02 -0.53477928240E+01  0.31886054271E+02  0.00000000000E+00 0. -1.
         11    1    3    3    0    0  0.24946632650E+02  0.32551941416E+00 -0.60837226767E+01  0.25679799947E+02  0.51100000000E-03 0. -1.
        -11    1    3    3    0    0 -0.13557314992E+01  0.13177946342E+02  0.84932104366E+01  0.15736292494E+02  0.51100000000E-03 0.  1.
        -12    1    3    3    0    0 -0.97363241599E+01  0.14713058928E+02  0.29383050640E+01  0.17885853287E+02  0.00000000000E+00 0.  1.
</event>
<event>
 7    1  0.6593656E-013  0.5930177E+02  0.7816164E-02  0.1266605E+00
        -11   -1    0    0    0    0  0.00000000000E+00  0.00000000000E+00  0.45593999997E+02  0.45594000000E+02  0.51100000000E-03 0.  1.
         11   -1    0    0    0    0 -0.00000000000E+00 -0.00000000000E+00 -0.45593999997E+02  0.45594000000E+02  0.51100000000E-03 0. -1.
    9900012    2    1    2    0    0  0.96957938961E+01  0.30356484355E+02  0.10986514832E+01  0.59301771048E+02  0.49999684526E+02 0.  0.
         12    1    1    2    0    0 -0.96957938961E+01 -0.30356484355E+02 -0.10986514832E+01  0.31886228952E+02  0.00000000000E+00 0. -1.
         11    1    3    3    0    0 -0.12318161822E+01 -0.65019903175E+01 -0.74084129951E+01  0.99336716557E+01  0.51100000000E-03 0. -1.
        -11    1    3    3    0    0  0.16813380389E+02  0.83211793759E+01 -0.80851194757E+00  0.18777259601E+02  0.51100000000E-03 0.  1.
        -12    1    3    3    0    0 -0.58857703102E+01  0.28537295297E+02  0.93155764259E+01  0.30590839791E+02  0.00000000000E+00 0.  1.
</event>
<event>
 7    1  0.6593656E-013  0.5930194E+02  0.7816164E-02  0.1266605E+00
        -11   -1    0    0    0    0  0.00000000000E+00  0.00000000000E+00  0.45593999997E+02  0.45594000000E+02  0.51100000000E-03 0. -1.
         11   -1    0    0    0    0 -0.00000000000E+00 -0.00000000000E+00 -0.45593999997E+02  0.45594000000E+02  0.51100000000E-03 0.  1.
    9900012    2    1    2    0    0 -0.17191720842E+02 -0.26547237020E+02 -0.40508769312E+01  0.59301942501E+02  0.49999997217E+02 0.  0.
         12    1    1    2    0    0  0.17191720842E+02  0.26547237020E+02  0.40508769312E+01  0.31886057499E+02  0.00000000000E+00 0. -1.
         11    1    3    3    0    0 -0.13050552739E+02 -0.96580017130E+01  0.14100618856E+02  0.21503985125E+02  0.51100000000E-03 0. -1.
        -11    1    3    3    0    0 -0.11016149671E+02  0.17413469334E+01 -0.39714757097E+00  0.11159998619E+02  0.51100000000E-03 0.  1.
        -12    1    3    3    0    0  0.68749815683E+01 -0.18630582240E+02 -0.17754348216E+02  0.26637958757E+02  0.00000000000E+00 0.  1.
</event>
<event>
 7    1  0.6593656E-013  0.5930197E+02  0.7816164E-02  0.1266605E+00
        -11   -1    0    0    0    0  0.00000000000E+00  0.00000000000E+00  0.45593999997E+02  0.45594000000E+02  0.51100000000E-03 0. -1.
         11   -1    0    0    0    0 -0.00000000000E+00 -0.00000000000E+00 -0.45593999997E+02  0.45594000000E+02  0.51100000000E-03 0.  1.
    9900012    2    1    2    0    0  0.21896369267E+02 -0.30169583502E+01  0.22981866615E+02  0.59301965159E+02  0.50000038538E+02 0.  0.
         12    1    1    2    0    0 -0.21896369267E+02  0.30169583502E+01 -0.22981866615E+02  0.31886034841E+02  0.00000000000E+00 0. -1.
         11    1    3    3    0    0 -0.58893110645E+00 -0.10310941446E+02  0.49628303623E+01  0.11458273815E+02  0.51100000000E-03 0.  1.
        -11    1    3    3    0    0  0.20119836486E+02  0.69642828015E+01 -0.72275701473E+01  0.22484368474E+02  0.51100000000E-03 0. -1.
         12    1    3    3    0    0  0.23654638874E+01  0.32970029443E+00  0.25246606400E+02  0.25359322870E+02  0.00000000000E+00 0. -1.
</event>
<event>
 7    1  0.6593656E-013  0.5930203E+02  0.7816164E-02  0.1266604E+00
        -11   -1    0    0    0    0  0.00000000000E+00  0.00000000000E+00  0.45593999997E+02  0.45594000000E+02  0.51100000000E-03 0.  1.
         11   -1    0    0    0    0 -0.00000000000E+00 -0.00000000000E+00 -0.45593999997E+02  0.45594000000E+02  0.51100000000E-03 0. -1.
    9900012    2    1    2    0    0  0.25549692834E+01 -0.19866674282E+02  0.24809325876E+02  0.59302027136E+02  0.50000151569E+02 0.  0.
         12    1    1    2    0    0 -0.25549692834E+01  0.19866674282E+02 -0.24809325876E+02  0.31885972864E+02  0.00000000000E+00 0. -1.
         11    1    3    3    0    0  0.24977280206E+01  0.43768365907E+01  0.25401038228E+02  0.25896101775E+02  0.51100000000E-03 0. -1.
        -11    1    3    3    0    0  0.93028957258E+01 -0.37951554605E+01 -0.37888678318E+01  0.10737904524E+02  0.51100000000E-03 0.  1.
        -12    1    3    3    0    0 -0.92456544630E+01 -0.20448355412E+02  0.31971554796E+01  0.22668020837E+02  0.00000000000E+00 0.  1.
</event>
<event>
 7    1  0.6593656E-013  0.5930210E+02  0.7816164E-02  0.1266604E+00
        -11   -1    0    0    0    0  0.00000000000E+00  0.00000000000E+00  0.45593999997E+02  0.45594000000E+02  0.51100000000E-03 0.  1.
         11   -1    0    0    0    0 -0.00000000000E+00 -0.00000000000E+00 -0.45593999997E+02  0.45594000000E+02  0.51100000000E-03 0. -1.
    9900012    2    1    2    0    0  0.16155400144E+02 -0.26705066130E+02  0.65232756767E+01  0.59302099724E+02  0.50000283953E+02 0.  0.
         12    1    1    2    0    0 -0.16155400144E+02  0.26705066130E+02 -0.65232756767E+01  0.31885900276E+02  0.00000000000E+00 0. -1.
         11    1    3    3    0    0 -0.11017333934E+02 -0.13719016554E+01  0.13263619910E+02  0.17297033692E+02  0.51100000000E-03 0. -1.
        -11    1    3    3    0    0 -0.22993541569E+00  0.17722738752E+01  0.17893061832E+01  0.25289210867E+01  0.51100000000E-03 0.  1.
        -12    1    3    3    0    0  0.27402669493E+02 -0.27105438350E+02 -0.85296504170E+01  0.39476144945E+02  0.00000000000E+00 0.  1.
</event>
<event>
 7    1  0.6593656E-013  0.5930201E+02  0.7816164E-02  0.1266605E+00
        -11   -1    0    0    0    0  0.00000000000E+00  0.00000000000E+00  0.45593999997E+02  0.45594000000E+02  0.51100000000E-03 0.  1.
         11   -1    0    0    0    0 -0.00000000000E+00 -0.00000000000E+00 -0.45593999997E+02  0.45594000000E+02  0.51100000000E-03 0. -1.
    9900012    2    1    2    0    0  0.30171493341E+02  0.10024404318E+02  0.24307284131E+01  0.59302013533E+02  0.50000126760E+02 0.  0.
         12    1    1    2    0    0 -0.30171493341E+02 -0.10024404318E+02 -0.24307284131E+01  0.31885986467E+02  0.00000000000E+00 0. -1.
         11    1    3    3    0    0  0.17310841051E+02  0.56224741975E+01 -0.20784808305E+02  0.27627625496E+02  0.51100000000E-03 0. -1.
        -11    1    3    3    0    0 -0.84807041859E+00 -0.15285493096E+01 -0.18188721647E+01  0.25226935286E+01  0.51100000000E-03 0.  1.
        -12    1    3    3    0    0  0.13708722709E+02  0.59304794300E+01  0.25034408883E+02  0.29151694508E+02  0.00000000000E+00 0.  1.
</event>
<event>
 7    1  0.6593656E-013  0.5930190E+02  0.7816164E-02  0.1266605E+00
        -11   -1    0    0    0    0  0.00000000000E+00  0.00000000000E+00  0.45593999997E+02  0.45594000000E+02  0.51100000000E-03 0. -1.
         11   -1    0    0    0    0 -0.00000000000E+00 -0.00000000000E+00 -0.45593999997E+02  0.45594000000E+02  0.51100000000E-03 0.  1.
    9900012    2    1    2    0    0 -0.26551256375E+02 -0.15258258703E+02 -0.88847838733E+01  0.59301904940E+02  0.49999928712E+02 0.  0.
         12    1    1    2    0    0  0.26551256375E+02  0.15258258703E+02  0.88847838733E+01  0.31886095060E+02  0.00000000000E+00 0. -1.
         11    1    3    3    0    0 -0.52743580948E+01  0.27405704967E+01  0.73851438619E+01  0.94799752153E+01  0.51100000000E-03 0. -1.
        -11    1    3    3    0    0 -0.22515996519E+02  0.30635442422E+00  0.35696626146E+01  0.22799264105E+02  0.51100000000E-03 0.  1.
        -12    1    3    3    0    0  0.12390982387E+01 -0.18305183624E+02 -0.19839590350E+02  0.27022665620E+02  0.00000000000E+00 0.  1.
</event>
<event>
 7    1  0.6593656E-013  0.5930194E+02  0.7816164E-02  0.1266605E+00
        -11   -1    0    0    0    0  0.00000000000E+00  0.00000000000E+00  0.45593999997E+02  0.45594000000E+02  0.51100000000E-03 0.  1.
         11   -1    0    0    0    0 -0.00000000000E+00 -0.00000000000E+00 -0.45593999997E+02  0.45594000000E+02  0.51100000000E-03 0. -1.
    9900012    2    1    2    0    0  0.20513224534E+02 -0.13335019128E+02  0.20447637677E+02  0.59301937175E+02  0.49999987502E+02 0.  0.
         12    1    1    2    0    0 -0.20513224534E+02  0.13335019128E+02 -0.20447637677E+02  0.31886062825E+02  0.00000000000E+00 0. -1.
         11    1    3    3    0    0 -0.15136587406E+01  0.12067671085E+02 -0.14112146495E+01  0.12243830089E+02  0.51100000000E-03 0. -1.
        -11    1    3    3    0    0  0.11029713251E+02  0.11227104137E+01  0.12831820744E+02  0.16957908978E+02  0.51100000000E-03 0.  1.
         12    1    3    3    0    0  0.10997170024E+02 -0.26525400627E+02  0.90270315829E+01  0.30100198108E+02  0.00000000000E+00 0. -1.
</event>
<event>
 7    1  0.7337440E-013  0.5930191E+02  0.7816164E-02  0.1266605E+00
        -11   -1    0    0    0    0  0.00000000000E+00  0.00000000000E+00  0.45593999997E+02  0.45594000000E+02  0.51100000000E-03 0.  1.
         11   -1    0    0    0    0 -0.00000000000E+00 -0.00000000000E+00 -0.45593999997E+02  0.45594000000E+02  0.51100000000E-03 0. -1.
    9900012    2    1    2    0    0  0.21880296452E+02  0.49824815015E+01 -0.22652815958E+02  0.59301912665E+02  0.49999942801E+02 0.  0.
         12    1    1    2    0    0 -0.21880296452E+02 -0.49824815015E+01  0.22652815958E+02  0.31886087335E+02  0.00000000000E+00 0. -1.
         11    1    3    3    0    0  0.44157845810E+00  0.12997003618E+02  0.28253419508E+01  0.13307879319E+02  0.51100000000E-03 0. -1.
        -11    1    3    3    0    0 -0.59591422004E+01  0.33411061278E+01  0.95848620467E-01  0.68325363622E+01  0.51100000000E-03 0.  1.
        -12    1    3    3    0    0  0.27397860194E+02 -0.11355628244E+02 -0.25574006529E+02  0.39161496983E+02  0.00000000000E+00 0.  1.
</event>
<event>
 7    1  0.6593656E-013  0.5930193E+02  0.7816164E-02  0.1266605E+00
        -11   -1    0    0    0    0  0.00000000000E+00  0.00000000000E+00  0.45593999997E+02  0.45594000000E+02  0.51100000000E-03 0.  1.
         11   -1    0    0    0    0 -0.00000000000E+00 -0.00000000000E+00 -0.45593999997E+02  0.45594000000E+02  0.51100000000E-03 0. -1.
    9900012    2    1    2    0    0 -0.79714902437E+01  0.18847373967E+02  0.24453082419E+02  0.59301930911E+02  0.49999976078E+02 0.  0.
         12    1    1    2    0    0  0.79714902437E+01 -0.18847373967E+02 -0.24453082419E+02  0.31886069089E+02  0.00000000000E+00 0. -1.
         11    1    3    3    0    0 -0.91868658678E+01  0.12753072556E+01  0.13238179838E+01  0.93689597813E+01  0.51100000000E-03 0. -1.
        -11    1    3    3    0    0 -0.18445676084E+02  0.15907834008E+02  0.10633734661E+02  0.26577781362E+02  0.51100000000E-03 0.  1.
        -12    1    3    3    0    0  0.19661051708E+02  0.16642327037E+01  0.12495529774E+02  0.23355189768E+02  0.00000000000E+00 0.  1.
</event>
<event>
 7    1  0.6593656E-013  0.5930196E+02  0.7816164E-02  0.1266605E+00
        -11   -1    0    0    0    0  0.00000000000E+00  0.00000000000E+00  0.45593999997E+02  0.45594000000E+02  0.51100000000E-03 0.  1.
         11   -1    0    0    0    0 -0.00000000000E+00 -0.00000000000E+00 -0.45593999997E+02  0.45594000000E+02  0.51100000000E-03 0. -1.
    9900012    2    1    2    0    0 -0.91344907975E+01 -0.13996975818E+02  0.27154474431E+02  0.59301957038E+02  0.50000023727E+02 0.  0.
         12    1    1    2    0    0  0.91344907975E+01  0.13996975818E+02 -0.27154474431E+02  0.31886042962E+02  0.00000000000E+00 0. -1.
         11    1    3    3    0    0 -0.35479966373E+01 -0.20685596382E+01 -0.13465179465E+01  0.43220747282E+01  0.51100000000E-03 0. -1.
        -11    1    3    3    0    0 -0.15981678155E+02  0.72059307780E+01  0.28196342475E+02  0.33202006028E+02  0.51100000000E-03 0.  1.
        -12    1    3    3    0    0  0.10395183995E+02 -0.19134346958E+02  0.30464990216E+00  0.21777876282E+02  0.00000000000E+00 0.  1.
</event>
<event>
 7    1  0.6593656E-013  0.5930206E+02  0.7816164E-02  0.1266604E+00
        -11   -1    0    0    0    0  0.00000000000E+00  0.00000000000E+00  0.45593999997E+02  0.45594000000E+02  0.51100000000E-03 0. -1.
         11   -1    0    0    0    0 -0.00000000000E+00 -0.00000000000E+00 -0.45593999997E+02  0.45594000000E+02  0.51100000000E-03 0.  1.
    9900012    2    1    2    0    0 -0.11413500668E+02 -0.22262542096E+02  0.19769286910E+02  0.59302055087E+02  0.50000202545E+02 0.  0.
         12    1    1    2    0    0  0.11413500668E+02  0.22262542096E+02 -0.19769286910E+02  0.31885944913E+02  0.00000000000E+00 0. -1.
         11    1    3    3    0    0  0.70709750797E+01 -0.56233038703E+01  0.37067939640E+01  0.97652729992E+01  0.51100000000E-03 0. -1.
        -11    1    3    3    0    0 -0.24705405917E+02 -0.17960169568E+02  0.24369948414E+02  0.39074533374E+02  0.51100000000E-03 0.  1.
         12    1    3    3    0    0  0.62209301690E+01  0.13209313427E+01 -0.83074554682E+01  0.10462248713E+02  0.00000000000E+00 0. -1.
</event>
<event>
 7    1  0.6593656E-013  0.5930196E+02  0.7816164E-02  0.1266605E+00
        -11   -1    0    0    0    0  0.00000000000E+00  0.00000000000E+00  0.45593999997E+02  0.45594000000E+02  0.51100000000E-03 0.  1.
         11   -1    0    0    0    0 -0.00000000000E+00 -0.00000000000E+00 -0.45593999997E+02  0.45594000000E+02  0.51100000000E-03 0. -1.
    9900012    2    1    2    0    0  0.26498005008E+02  0.56461620802E+01  0.16813575893E+02  0.59301956816E+02  0.50000023323E+02 0.  0.
         12    1    1    2    0    0 -0.26498005008E+02 -0.56461620802E+01 -0.16813575893E+02  0.31886043184E+02  0.00000000000E+00 0. -1.
         11    1    3    3    0    0 -0.22694125596E+01 -0.14698139410E+02 -0.41364835263E+00  0.14878059037E+02  0.51100000000E-03 0. -1.
        -11    1    3    3    0    0  0.17693120700E+02  0.10021588237E+02  0.20565512177E+02  0.28920910121E+02  0.51100000000E-03 0.  1.
        -12    1    3    3    0    0  0.11074296867E+02  0.10322713253E+02 -0.33382879315E+01  0.15502987658E+02  0.00000000000E+00 0.  1.
</event>
<event>
 7    1  0.6593656E-013  0.5930193E+02  0.7816164E-02  0.1266605E+00
        -11   -1    0    0    0    0  0.00000000000E+00  0.00000000000E+00  0.45593999997E+02  0.45594000000E+02  0.51100000000E-03 0. -1.
         11   -1    0    0    0    0 -0.00000000000E+00 -0.00000000000E+00 -0.45593999997E+02  0.45594000000E+02  0.51100000000E-03 0.  1.
    9900012    2    1    2    0    0 -0.16595148316E+02 -0.19203921946E+02 -0.19301078625E+02  0.59301934049E+02  0.49999981802E+02 0.  0.
         12    1    1    2    0    0  0.16595148316E+02  0.19203921946E+02  0.19301078625E+02  0.31886065951E+02  0.00000000000E+00 0. -1.
         11    1    3    3    0    0  0.15308438035E+01  0.11393017215E+02 -0.29343370720E+00  0.11499148995E+02  0.51100000000E-03 0. -1.
        -11    1    3    3    0    0  0.91363639165E+00  0.35885933368E+01  0.10259172498E+01  0.38425564482E+01  0.51100000000E-03 0.  1.
        -12    1    3    3    0    0 -0.19039628511E+02 -0.34185532497E+02 -0.20033562168E+02  0.43960228606E+02  0.00000000000E+00 0.  1.
</event>
<event>
 7    1  0.6593656E-013  0.5930190E+02  0.7816164E-02  0.1266605E+00
        -11   -1    0    0    0    0  0.00000000000E+00  0.00000000000E+00  0.45593999997E+02  0.45594000000E+02  0.51100000000E-03 0. -1.
         11   -1    0    0    0    0 -0.00000000000E+00 -0.00000000000E+00 -0.45593999997E+02  0.45594000000E+02  0.51100000000E-03 0.  1.
    9900012    2    1    2    0    0 -0.25193917214E+02  0.12182345304E+02 -0.15283327182E+02  0.59301904418E+02  0.49999927762E+02 0.  0.
         12    1    1    2    0    0  0.25193917214E+02 -0.12182345304E+02  0.15283327182E+02  0.31886095582E+02  0.00000000000E+00 0. -1.
         11    1    3    3    0    0 -0.40683578542E+00  0.68929727152E+00  0.71632365253E+01  0.72078154709E+01  0.51100000000E-03 0. -1.
        -11    1    3    3    0    0 -0.60793827010E+01 -0.13864508770E+02 -0.10358566007E+02  0.18343483514E+02  0.51100000000E-03 0.  1.
        -12    1    3    3    0    0 -0.18707698728E+02  0.25357556802E+02 -0.12087997701E+02  0.33750605433E+02  0.00000000000E+00 0.  1.
</event>
<event>
 7    1  0.6593656E-013  0.5930193E+02  0.7816164E-02  0.1266605E+00
        -11   -1    0    0    0    0  0.00000000000E+00  0.00000000000E+00  0.45593999997E+02  0.45594000000E+02  0.51100000000E-03 0.  1.
         11   -1    0    0    0    0 -0.00000000000E+00 -0.00000000000E+00 -0.45593999997E+02  0.45594000000E+02  0.51100000000E-03 0. -1.
    9900012    2    1    2    0    0 -0.14338944335E+02  0.21408664389E+02 -0.18782571549E+02  0.59301933614E+02  0.49999981008E+02 0.  0.
         12    1    1    2    0    0  0.14338944335E+02 -0.21408664389E+02  0.18782571549E+02  0.31886066386E+02  0.00000000000E+00 0. -1.
         11    1    3    3    0    0  0.52782993286E+01  0.74269430216E+01 -0.17838253766E+01  0.92845010466E+01  0.51100000000E-03 0. -1.
        -11    1    3    3    0    0  0.45695615973E+01  0.13811849820E+02  0.68231836240E+01  0.16068725017E+02  0.51100000000E-03 0.  1.
        -12    1    3    3    0    0 -0.24186805261E+02  0.16987154693E+00 -0.23821929797E+02  0.33948707550E+02  0.00000000000E+00 0.  1.
</event>
<event>
 7    1  0.6593656E-013  0.5930194E+02  0.7816164E-02  0.1266605E+00
        -11   -1    0    0    0    0  0.00000000000E+00  0.00000000000E+00  0.45593999997E+02  0.45594000000E+02  0.51100000000E-03 0.  1.
         11   -1    0    0    0    0 -0.00000000000E+00 -0.00000000000E+00 -0.45593999997E+02  0.45594000000E+02  0.51100000000E-03 0. -1.
    9900012    2    1    2    0    0 -0.32465997163E+01 -0.99090928361E+01  0.30132881573E+02  0.59301935921E+02  0.49999985215E+02 0.  0.
         12    1    1    2    0    0  0.32465997163E+01  0.99090928361E+01 -0.30132881573E+02  0.31886064079E+02  0.00000000000E+00 0. -1.
         11    1    3    3    0    0 -0.39048912202E+01  0.11872621293E+02  0.25639443275E+01  0.12758570554E+02  0.51100000000E-03 0. -1.
        -11    1    3    3    0    0 -0.12859888085E+01 -0.53472236445E+01  0.29384714376E+02  0.29894949526E+02  0.51100000000E-03 0.  1.
         12    1    3    3    0    0  0.19442803124E+01 -0.16434490485E+02 -0.18157771306E+01  0.16648415841E+02  0.00000000000E+00 0. -1.
</event>
<event>
 7    1  0.6593656E-013  0.5930183E+02  0.7816164E-02  0.1266605E+00
        -11   -1    0    0    0    0  0.00000000000E+00  0.00000000000E+00  0.45593999997E+02  0.45594000000E+02  0.51100000000E-03 0. -1.
         11   -1    0    0    0    0 -0.00000000000E+00 -0.00000000000E+00 -0.45593999997E+02  0.45594000000E+02  0.51100000000E-03 0.  1.
    9900012    2    1    2    0    0  0.12656848133E+02 -0.16307136017E+02 -0.24302453381E+02  0.59301831681E+02  0.49999795106E+02 0.  0.
         12    1    1    2    0    0 -0.12656848133E+02  0.16307136017E+02  0.24302453381E+02  0.31886168319E+02  0.00000000000E+00 0. -1.
         11    1    3    3    0    0  0.35918715206E+01 -0.24329153380E+02 -0.91700133100E+01  0.26246873901E+02  0.51100000000E-03 0. -1.
        -11    1    3    3    0    0 -0.22886360679E+01 -0.79820317715E+01 -0.46471689844E-01  0.83037850485E+01  0.51100000000E-03 0.  1.
        -12    1    3    3    0    0  0.11353612680E+02  0.16004049134E+02 -0.15085968381E+02  0.24751172731E+02  0.00000000000E+00 0.  1.
</event>
<event>
 7    1  0.6593656E-013  0.5930196E+02  0.7816164E-02  0.1266605E+00
        -11   -1    0    0    0    0  0.00000000000E+00  0.00000000000E+00  0.45593999997E+02  0.45594000000E+02  0.51100000000E-03 0.  1.
         11   -1    0    0    0    0 -0.00000000000E+00 -0.00000000000E+00 -0.45593999997E+02  0.45594000000E+02  0.51100000000E-03 0. -1.
    9900012    2    1    2    0    0  0.83175994903E+01 -0.28456875533E+02 -0.11736414252E+02  0.59301958448E+02  0.50000026298E+02 0.  0.
         12    1    1    2    0    0 -0.83175994903E+01  0.28456875533E+02  0.11736414252E+02  0.31886041552E+02  0.00000000000E+00 0. -1.
         11    1    3    3    0    0  0.49756110205E+01  0.25324547008E+00  0.50639779589E+00  0.50077217658E+01  0.51100000000E-03 0. -1.
        -11    1    3    3    0    0  0.13752682040E+02 -0.36505229944E+02 -0.47854071129E+01  0.39302267085E+02  0.51100000000E-03 0.  1.
         12    1    3    3    0    0 -0.10410693570E+02  0.77951089407E+01 -0.74574049354E+01  0.14991969597E+02  0.00000000000E+00 0. -1.
</event>
<event>
 7    1  0.6593656E-013  0.5930193E+02  0.7816164E-02  0.1266605E+00
        -11   -1    0    0    0    0  0.00000000000E+00  0.00000000000E+00  0.45593999997E+02  0.45594000000E+02  0.51100000000E-03 0.  1.
         11   -1    0    0    0    0 -0.00000000000E+00 -0.00000000000E+00 -0.45593999997E+02  0.45594000000E+02  0.51100000000E-03 0. -1.
    9900012    2    1    2    0    0 -0.25155375678E+02  0.15570770465E+02  0.11894525383E+02  0.59301928551E+02  0.49999971775E+02 0.  0.
         12    1    1    2    0    0  0.25155375678E+02 -0.15570770465E+02 -0.11894525383E+02  0.31886071449E+02  0.00000000000E+00 0. -1.
         11    1    3    3    0    0 -0.39391330607E+00  0.21705973708E+02  0.17535785459E+02  0.27907135902E+02  0.51100000000E-03 0. -1.
        -11    1    3    3    0    0 -0.10215880706E+02  0.35529284089E+01  0.38823004393E+01  0.11491726408E+02  0.51100000000E-03 0.  1.
         12    1    3    3    0    0 -0.14545581666E+02 -0.96881316525E+01 -0.95235605154E+01  0.19903066241E+02  0.00000000000E+00 0. -1.
</event>
<event>
 7    1  0.6593656E-013  0.5930196E+02  0.7816164E-02  0.1266605E+00
        -11   -1    0    0    0    0  0.00000000000E+00  0.00000000000E+00  0.45593999997E+02  0.45594000000E+02  0.51100000000E-03 0.  1.
         11   -1    0    0    0    0 -0.00000000000E+00 -0.00000000000E+00 -0.45593999997E+02  0.45594000000E+02  0.51100000000E-03 0. -1.
    9900012    2    1    2    0    0 -0.14788245580E+02  0.26736091243E+02  0.91218696647E+01  0.59301964052E+02  0.50000036519E+02 0.  0.
         12    1    1    2    0    0  0.14788245580E+02 -0.26736091243E+02 -0.91218696647E+01  0.31886035948E+02  0.00000000000E+00 0. -1.
         11    1    3    3    0    0  0.50527129043E+01 -0.85229536420E+01  0.40560853215E+01  0.10706188625E+02  0.51100000000E-03 0. -1.
        -11    1    3    3    0    0  0.56328580572E+01  0.16657635677E+01 -0.11351742524E+01  0.59826815895E+01  0.51100000000E-03 0.  1.
        -12    1    3    3    0    0 -0.25473816542E+02  0.33593281318E+02  0.62009585956E+01  0.42613093837E+02  0.00000000000E+00 0.  1.
</event>
<event>
 7    1  0.6593656E-013  0.5930194E+02  0.7816164E-02  0.1266605E+00
        -11   -1    0    0    0    0  0.00000000000E+00  0.00000000000E+00  0.45593999997E+02  0.45594000000E+02  0.51100000000E-03 0. -1.
         11   -1    0    0    0    0 -0.00000000000E+00 -0.00000000000E+00 -0.45593999997E+02  0.45594000000E+02  0.51100000000E-03 0.  1.
    9900012    2    1    2    0    0  0.21467257187E+02  0.23532919554E+02  0.14419370508E+01  0.59301943230E+02  0.49999998545E+02 0.  0.
         12    1    1    2    0    0 -0.21467257187E+02 -0.23532919554E+02 -0.14419370508E+01  0.31886056770E+02  0.00000000000E+00 0. -1.
         11    1    3    3    0    0  0.19604187953E+02  0.28729616169E+02  0.14327185727E+02  0.37616263525E+02  0.51100000000E-03 0. -1.
        -11    1    3    3    0    0  0.22438658219E+01  0.34679433584E+01  0.18982570915E+01  0.45458712267E+01  0.51100000000E-03 0.  1.
         12    1    3    3    0    0 -0.38079658744E+00 -0.86646399729E+01 -0.14783505767E+02  0.17139808478E+02  0.00000000000E+00 0. -1.
</event>
<event>
 7    1  0.6593656E-013  0.5930190E+02  0.7816164E-02  0.1266605E+00
        -11   -1    0    0    0    0  0.00000000000E+00  0.00000000000E+00  0.45593999997E+02  0.45594000000E+02  0.51100000000E-03 0.  1.
         11   -1    0    0    0    0 -0.00000000000E+00 -0.00000000000E+00 -0.45593999997E+02  0.45594000000E+02  0.51100000000E-03 0. -1.
    9900012    2    1    2    0    0 -0.72960079868E+01 -0.21561938472E+02  0.22328778585E+02  0.59301901519E+02  0.49999922474E+02 0.  0.
         12    1    1    2    0    0  0.72960079868E+01  0.21561938472E+02 -0.22328778585E+02  0.31886098481E+02  0.00000000000E+00 0. -1.
         11    1    3    3    0    0  0.90503258594E+01  0.50147867068E+01  0.12490432470E+02  0.16219352250E+02  0.51100000000E-03 0. -1.
        -11    1    3    3    0    0 -0.46907516631E+01 -0.36194073733E+01  0.15610279505E+02  0.16696828662E+02  0.51100000000E-03 0.  1.
        -12    1    3    3    0    0 -0.11655582183E+02 -0.22957317806E+02 -0.57719333891E+01  0.26385720606E+02  0.00000000000E+00 0.  1.
</event>
<event>
 7    1  0.6593656E-013  0.5930196E+02  0.7816164E-02  0.1266605E+00
        -11   -1    0    0    0    0  0.00000000000E+00  0.00000000000E+00  0.45593999997E+02  0.45594000000E+02  0.51100000000E-03 0.  1.
         11   -1    0    0    0    0 -0.00000000000E+00 -0.00000000000E+00 -0.45593999997E+02  0.45594000000E+02  0.51100000000E-03 0. -1.
    9900012    2    1    2    0    0  0.15111967838E+02 -0.96798922935E+00  0.28060839592E+02  0.59301963970E+02  0.50000036370E+02 0.  0.
         12    1    1    2    0    0 -0.15111967838E+02  0.96798922935E+00 -0.28060839592E+02  0.31886036030E+02  0.00000000000E+00 0. -1.
         11    1    3    3    0    0  0.50591394273E+01 -0.20184808503E+01  0.19299530837E+02  0.20053454751E+02  0.51100000000E-03 0. -1.
        -11    1    3    3    0    0  0.66884918386E+01  0.17952349940E+02  0.10637913171E+02  0.21913192108E+02  0.51100000000E-03 0.  1.
         12    1    3    3    0    0  0.33643365720E+01 -0.16901858319E+02 -0.18766044153E+01  0.17335317111E+02  0.00000000000E+00 0. -1.
</event>
<event>
 7    1  0.6593656E-013  0.5930194E+02  0.7816164E-02  0.1266605E+00
        -11   -1    0    0    0    0  0.00000000000E+00  0.00000000000E+00  0.45593999997E+02  0.45594000000E+02  0.51100000000E-03 0. -1.
         11   -1    0    0    0    0 -0.00000000000E+00 -0.00000000000E+00 -0.45593999997E+02  0.45594000000E+02  0.51100000000E-03 0.  1.
    9900012    2    1    2    0    0 -0.26030528659E+02 -0.34061074553E+01  0.18097805002E+02  0.59301944488E+02  0.50000000839E+02 0.  0.
         12    1    1    2    0    0  0.26030528659E+02  0.34061074553E+01 -0.18097805002E+02  0.31886055512E+02  0.00000000000E+00 0. -1.
         11    1    3    3    0    0 -0.97467158852E+01 -0.93068593187E+01  0.21327193800E+02  0.25228263844E+02  0.51100000000E-03 0. -1.
        -11    1    3    3    0    0  0.48179423553E+01 -0.17288266831E+01  0.75963403011E+01  0.91600107244E+01  0.51100000000E-03 0.  1.
        -12    1    3    3    0    0 -0.21101755129E+02  0.76295785465E+01 -0.10825729099E+02  0.24913669920E+02  0.00000000000E+00 0.  1.
</event>
<event>
 7    1  0.6593656E-013  0.5930193E+02  0.7816164E-02  0.1266605E+00
        -11   -1    0    0    0    0  0.00000000000E+00  0.00000000000E+00  0.45593999997E+02  0.45594000000E+02  0.51100000000E-03 0.  1.
         11   -1    0    0    0    0 -0.00000000000E+00 -0.00000000000E+00 -0.45593999997E+02  0.45594000000E+02  0.51100000000E-03 0. -1.
    9900012    2    1    2    0    0 -0.22229186582E+02 -0.11435811191E+02  0.19794111532E+02  0.59301931490E+02  0.49999977135E+02 0.  0.
         12    1    1    2    0    0  0.22229186582E+02  0.11435811191E+02 -0.19794111532E+02  0.31886068510E+02  0.00000000000E+00 0. -1.
         11    1    3    3    0    0 -0.92255809404E+01 -0.18028117685E+02  0.17679143922E+02  0.26882643118E+02  0.51100000000E-03 0. -1.
        -11    1    3    3    0    0  0.62870772985E+00 -0.89780158924E+01  0.67031685013E+01  0.11221965558E+02  0.51100000000E-03 0.  1.
         12    1    3    3    0    0 -0.13632313371E+02  0.15570322386E+02 -0.45882008914E+01  0.21197322814E+02  0.00000000000E+00 0. -1.
</event>
<event>
 7    1  0.6593656E-013  0.5930194E+02  0.7816164E-02  0.1266605E+00
        -11   -1    0    0    0    0  0.00000000000E+00  0.00000000000E+00  0.45593999997E+02  0.45594000000E+02  0.51100000000E-03 0. -1.
         11   -1    0    0    0    0 -0.00000000000E+00 -0.00000000000E+00 -0.45593999997E+02  0.45594000000E+02  0.51100000000E-03 0.  1.
    9900012    2    1    2    0    0 -0.34374360751E+00 -0.27664966825E+02 -0.15850943670E+02  0.59301937774E+02  0.49999988594E+02 0.  0.
         12    1    1    2    0    0  0.34374360751E+00  0.27664966825E+02  0.15850943670E+02  0.31886062226E+02  0.00000000000E+00 0. -1.
         11    1    3    3    0    0 -0.37199788320E+01 -0.38141192713E+01  0.53402166494E+01  0.75434516271E+01  0.51100000000E-03 0. -1.
        -11    1    3    3    0    0  0.67165057471E+01 -0.33305043633E+02 -0.75087863636E+01  0.34795391272E+02  0.51100000000E-03 0.  1.
         12    1    3    3    0    0 -0.33402705226E+01  0.94541960793E+01 -0.13682373956E+02  0.16963094875E+02  0.00000000000E+00 0. -1.
</event>
<event>
 7    1  0.6593656E-013  0.5930195E+02  0.7816164E-02  0.1266605E+00
        -11   -1    0    0    0    0  0.00000000000E+00  0.00000000000E+00  0.45593999997E+02  0.45594000000E+02  0.51100000000E-03 0. -1.
         11   -1    0    0    0    0 -0.00000000000E+00 -0.00000000000E+00 -0.45593999997E+02  0.45594000000E+02  0.51100000000E-03 0.  1.
    9900012    2    1    2    0    0  0.17488339168E+01  0.18521815145E+02 -0.25896026513E+02  0.59301949046E+02  0.50000009152E+02 0.  0.
         12    1    1    2    0    0 -0.17488339168E+01 -0.18521815145E+02  0.25896026513E+02  0.31886050954E+02  0.00000000000E+00 0. -1.
         11    1    3    3    0    0  0.12291653158E+01 -0.89624931618E+01  0.37121806281E+01  0.97784158393E+01  0.51100000000E-03 0. -1.
        -11    1    3    3    0    0  0.91014337280E+01  0.11633655500E+02 -0.27707641360E+02  0.31398908041E+02  0.51100000000E-03 0.  1.
         12    1    3    3    0    0 -0.85817651270E+01  0.15850652807E+02 -0.19005657810E+01  0.18124625165E+02  0.00000000000E+00 0. -1.
</event>
<event>
 7    1  0.6593656E-013  0.5930193E+02  0.7816164E-02  0.1266605E+00
        -11   -1    0    0    0    0  0.00000000000E+00  0.00000000000E+00  0.45593999997E+02  0.45594000000E+02  0.51100000000E-03 0. -1.
         11   -1    0    0    0    0 -0.00000000000E+00 -0.00000000000E+00 -0.45593999997E+02  0.45594000000E+02  0.51100000000E-03 0.  1.
    9900012    2    1    2    0    0  0.27884708277E+02 -0.13625210247E+02 -0.73156151658E+01  0.59301928821E+02  0.49999972267E+02 0.  0.
         12    1    1    2    0    0 -0.27884708277E+02  0.13625210247E+02  0.73156151658E+01  0.31886071179E+02  0.00000000000E+00 0. -1.
         11    1    3    3    0    0 -0.59157743476E+01  0.26320378314E+01  0.34727372866E+01  0.73473746196E+01  0.51100000000E-03 0. -1.
        -11    1    3    3    0    0  0.10708978616E+02 -0.90700444634E+01 -0.21362438844E+02  0.25559767668E+02  0.51100000000E-03 0.  1.
         12    1    3    3    0    0  0.23091504008E+02 -0.71872036155E+01  0.10574086392E+02  0.26394786534E+02  0.00000000000E+00 0. -1.
</event>
<event>
 7    1  0.6593656E-013  0.5930197E+02  0.7816164E-02  0.1266605E+00
        -11   -1    0    0    0    0  0.00000000000E+00  0.00000000000E+00  0.45593999997E+02  0.45594000000E+02  0.51100000000E-03 0.  1.
         11   -1    0    0    0    0 -0.00000000000E+00 -0.00000000000E+00 -0.45593999997E+02  0.45594000000E+02  0.51100000000E-03 0. -1.
    9900012    2    1    2    0    0  0.67251196058E+01 -0.26743213535E+02  0.16009135372E+02  0.59301966705E+02  0.50000041359E+02 0.  0.
         12    1    1    2    0    0 -0.67251196058E+01  0.26743213535E+02 -0.16009135372E+02  0.31886033295E+02  0.00000000000E+00 0. -1.
         11    1    3    3    0    0 -0.12873766761E+02 -0.10929977448E+02  0.11587054740E+01  0.16927518314E+02  0.51100000000E-03 0. -1.
        -11    1    3    3    0    0 -0.63412317677E+01  0.24225453061E+01  0.69106140732E+01  0.96869258912E+01  0.51100000000E-03 0.  1.
        -12    1    3    3    0    0  0.25940118135E+02 -0.18235781393E+02  0.79398158243E+01  0.32687522500E+02  0.00000000000E+00 0.  1.
</event>
<event>
 7    1  0.6593656E-013  0.5930194E+02  0.7816164E-02  0.1266605E+00
        -11   -1    0    0    0    0  0.00000000000E+00  0.00000000000E+00  0.45593999997E+02  0.45594000000E+02  0.51100000000E-03 0.  1.
         11   -1    0    0    0    0 -0.00000000000E+00 -0.00000000000E+00 -0.45593999997E+02  0.45594000000E+02  0.51100000000E-03 0. -1.
    9900012    2    1    2    0    0  0.11195749153E+01  0.25542949903E+00  0.31865374919E+02  0.59301940178E+02  0.49999992979E+02 0.  0.
         12    1    1    2    0    0 -0.11195749153E+01 -0.25542949903E+00 -0.31865374919E+02  0.31886059822E+02  0.00000000000E+00 0. -1.
         11    1    3    3    0    0  0.59982452232E+01  0.17226339817E+02  0.15527936221E+02  0.23955010599E+02  0.51100000000E-03 0. -1.
        -11    1    3    3    0    0 -0.49722126269E+01  0.46269960060E+01 -0.19284519167E+01  0.70605182177E+01  0.51100000000E-03 0.  1.
         12    1    3    3    0    0  0.93542319043E-01 -0.21597906324E+02  0.18265890615E+02  0.28286411362E+02  0.00000000000E+00 0. -1.
</event>
<event>
 7    1  0.6593656E-013  0.5930192E+02  0.7816164E-02  0.1266605E+00
        -11   -1    0    0    0    0  0.00000000000E+00  0.00000000000E+00  0.45593999997E+02  0.45594000000E+02  0.51100000000E-03 0.  1.
         11   -1    0    0    0    0 -0.00000000000E+00 -0.00000000000E+00 -0.45593999997E+02  0.45594000000E+02  0.51100000000E-03 0. -1.
    9900012    2    1    2    0    0  0.17850875840E+02 -0.30736480115E+01  0.26241592859E+02  0.59301917203E+02  0.49999951078E+02 0.  0.
         12    1    1    2    0    0 -0.17850875840E+02  0.30736480115E+01 -0.26241592859E+02  0.31886082797E+02  0.00000000000E+00 0. -1.
         11    1    3    3    0    0  0.11926556774E+02 -0.80991855885E+00  0.11490212632E+02  0.16580823597E+02  0.51100000000E-03 0. -1.
        -11    1    3    3    0    0  0.18176581180E+02 -0.10737881612E+02  0.17682298826E+02  0.27538226104E+02  0.51100000000E-03 0.  1.
         12    1    3    3    0    0 -0.12252262115E+02  0.84741521598E+01 -0.29309185993E+01  0.15182867502E+02  0.00000000000E+00 0. -1.
</event>
<event>
 7    1  0.6593656E-013  0.5930177E+02  0.7816164E-02  0.1266605E+00
        -11   -1    0    0    0    0  0.00000000000E+00  0.00000000000E+00  0.45593999997E+02  0.45594000000E+02  0.51100000000E-03 0.  1.
         11   -1    0    0    0    0 -0.00000000000E+00 -0.00000000000E+00 -0.45593999997E+02  0.45594000000E+02  0.51100000000E-03 0. -1.
    9900012    2    1    2    0    0  0.21784219576E+02  0.10712065338E+02  0.20674407735E+02  0.59301769405E+02  0.49999681529E+02 0.  0.
         12    1    1    2    0    0 -0.21784219576E+02 -0.10712065338E+02 -0.20674407735E+02  0.31886230595E+02  0.00000000000E+00 0. -1.
         11    1    3    3    0    0  0.19551568120E+02  0.73758132180E+01 -0.76856789439E+01  0.22265131881E+02  0.51100000000E-03 0. -1.
        -11    1    3    3    0    0  0.12292596953E+02 -0.14676570676E+01  0.17793759811E+02  0.21676712056E+02  0.51100000000E-03 0.  1.
         12    1    3    3    0    0 -0.10059945497E+02  0.48039091874E+01  0.10566326869E+02  0.15359925468E+02  0.00000000000E+00 0. -1.
</event>
<event>
 7    1  0.6593656E-013  0.5930196E+02  0.7816164E-02  0.1266605E+00
        -11   -1    0    0    0    0  0.00000000000E+00  0.00000000000E+00  0.45593999997E+02  0.45594000000E+02  0.51100000000E-03 0. -1.
         11   -1    0    0    0    0 -0.00000000000E+00 -0.00000000000E+00 -0.45593999997E+02  0.45594000000E+02  0.51100000000E-03 0.  1.
    9900012    2    1    2    0    0  0.11491676896E+02  0.19225710826E+02 -0.22694344011E+02  0.59301955330E+02  0.50000020612E+02 0.  0.
         12    1    1    2    0    0 -0.11491676896E+02 -0.19225710826E+02  0.22694344011E+02  0.31886044670E+02  0.00000000000E+00 0. -1.
         11    1    3    3    0    0  0.51060755920E+01  0.54797839972E+00 -0.26881854282E+02  0.27367980894E+02  0.51100000000E-03 0.  1.
        -11    1    3    3    0    0  0.12828549390E+02  0.13270040120E+02 -0.53502252840E+01  0.19216934071E+02  0.51100000000E-03 0. -1.
         12    1    3    3    0    0 -0.64429480860E+01  0.54076923060E+01  0.95377355555E+01  0.12717040365E+02  0.00000000000E+00 0. -1.
</event>
<event>
 7    1  0.6593656E-013  0.5930193E+02  0.7816164E-02  0.1266605E+00
        -11   -1    0    0    0    0  0.00000000000E+00  0.00000000000E+00  0.45593999997E+02  0.45594000000E+02  0.51100000000E-03 0.  1.
         11   -1    0    0    0    0 -0.00000000000E+00 -0.00000000000E+00 -0.45593999997E+02  0.45594000000E+02  0.51100000000E-03 0. -1.
    9900012    2    1    2    0    0  0.13187218510E+02  0.11233132322E+01  0.29009598243E+02  0.59301931649E+02  0.49999977424E+02 0.  0.
         12    1    1    2    0    0 -0.13187218510E+02 -0.11233132322E+01 -0.29009598243E+02  0.31886068351E+02  0.00000000000E+00 0. -1.
         11    1    3    3    0    0 -0.58863026309E+00  0.11483072127E+01  0.88972501669E+01  0.89903368032E+01  0.51100000000E-03 0. -1.
        -11    1    3    3    0    0  0.11386451306E+02 -0.40448661442E+01  0.33774639786E+02  0.35871137540E+02  0.51100000000E-03 0.  1.
         12    1    3    3    0    0  0.23893974669E+01  0.40198721637E+01 -0.13662291709E+02  0.14440457306E+02  0.00000000000E+00 0. -1.
</event>
<event>
 7    1  0.6593656E-013  0.5930196E+02  0.7816164E-02  0.1266605E+00
        -11   -1    0    0    0    0  0.00000000000E+00  0.00000000000E+00  0.45593999997E+02  0.45594000000E+02  0.51100000000E-03 0. -1.
         11   -1    0    0    0    0 -0.00000000000E+00 -0.00000000000E+00 -0.45593999997E+02  0.45594000000E+02  0.51100000000E-03 0.  1.
    9900012    2    1    2    0    0 -0.12137371114E+02  0.18328192180E+02 -0.23097209429E+02  0.59301960899E+02  0.50000030769E+02 0.  0.
         12    1    1    2    0    0  0.12137371114E+02 -0.18328192180E+02  0.23097209429E+02  0.31886039101E+02  0.00000000000E+00 0. -1.
         11    1    3    3    0    0 -0.21548494940E+02  0.14293561972E+02 -0.38571903197E+01  0.26144243448E+02  0.51100000000E-03 0. -1.
        -11    1    3    3    0    0  0.13100262459E+01  0.11792826683E+02 -0.18420187442E+02  0.21910961540E+02  0.51100000000E-03 0.  1.
         12    1    3    3    0    0  0.81010975810E+01 -0.77581964755E+01 -0.81983166771E+00  0.11246755911E+02  0.00000000000E+00 0. -1.
</event>
<event>
 7    1  0.6593656E-013  0.5930194E+02  0.7816164E-02  0.1266605E+00
        -11   -1    0    0    0    0  0.00000000000E+00  0.00000000000E+00  0.45593999997E+02  0.45594000000E+02  0.51100000000E-03 0.  1.
         11   -1    0    0    0    0 -0.00000000000E+00 -0.00000000000E+00 -0.45593999997E+02  0.45594000000E+02  0.51100000000E-03 0. -1.
    9900012    2    1    2    0    0 -0.22893098950E+02 -0.68894611739E+01  0.21098867157E+02  0.59301939564E+02  0.49999991860E+02 0.  0.
         12    1    1    2    0    0  0.22893098950E+02  0.68894611739E+01 -0.21098867157E+02  0.31886060436E+02  0.00000000000E+00 0. -1.
         11    1    3    3    0    0 -0.15900573168E+02  0.16362729654E+02 -0.10362965884E+01  0.22839462771E+02  0.51100000000E-03 0. -1.
        -11    1    3    3    0    0 -0.11353437221E+00  0.71669470384E+00  0.75276048289E+01  0.75624980048E+01  0.51100000000E-03 0.  1.
        -12    1    3    3    0    0 -0.68789914097E+01 -0.23968885532E+02  0.14607558917E+02  0.28899978788E+02  0.00000000000E+00 0.  1.
</event>
<event>
 7    1  0.6593656E-013  0.5930197E+02  0.7816164E-02  0.1266605E+00
        -11   -1    0    0    0    0  0.00000000000E+00  0.00000000000E+00  0.45593999997E+02  0.45594000000E+02  0.51100000000E-03 0.  1.
         11   -1    0    0    0    0 -0.00000000000E+00 -0.00000000000E+00 -0.45593999997E+02  0.45594000000E+02  0.51100000000E-03 0. -1.
    9900012    2    1    2    0    0 -0.11335213581E+02  0.15079760518E+02  0.25706667874E+02  0.59301968303E+02  0.50000044272E+02 0.  0.
         12    1    1    2    0    0  0.11335213581E+02 -0.15079760518E+02 -0.25706667874E+02  0.31886031697E+02  0.00000000000E+00 0. -1.
         11    1    3    3    0    0 -0.17834811857E+02  0.51226170441E+00  0.12975228151E+02  0.22061266325E+02  0.51100000000E-03 0. -1.
        -11    1    3    3    0    0  0.71040932878E+01 -0.88685328870E+01  0.23617803152E+01  0.11605904684E+02  0.51100000000E-03 0.  1.
        -12    1    3    3    0    0 -0.60449501179E+00  0.23436031701E+02  0.10369659408E+02  0.25634797294E+02  0.00000000000E+00 0.  1.
</event>
<event>
 7    1  0.6593656E-013  0.5930204E+02  0.7816164E-02  0.1266604E+00
        -11   -1    0    0    0    0  0.00000000000E+00  0.00000000000E+00  0.45593999997E+02  0.45594000000E+02  0.51100000000E-03 0.  1.
         11   -1    0    0    0    0 -0.00000000000E+00 -0.00000000000E+00 -0.45593999997E+02  0.45594000000E+02  0.51100000000E-03 0. -1.
    9900012    2    1    2    0    0 -0.31357804947E+02  0.53762084915E+01  0.21210448174E+01  0.59302041022E+02  0.50000176895E+02 0.  0.
         12    1    1    2    0    0  0.31357804947E+02 -0.53762084915E+01 -0.21210448174E+01  0.31885958978E+02  0.00000000000E+00 0. -1.
         11    1    3    3    0    0 -0.14409078719E+02  0.13123052610E+02 -0.16608016823E+02  0.25605903272E+02  0.51100000000E-03 0. -1.
        -11    1    3    3    0    0 -0.38483466061E+01  0.57120300701E+01 -0.38549498119E+00  0.68982364242E+01  0.51100000000E-03 0.  1.
        -12    1    3    3    0    0 -0.13100379621E+02 -0.13458874188E+02  0.19114556621E+02  0.26797901326E+02  0.00000000000E+00 0.  1.
</event>
<event>
 7    1  0.6593656E-013  0.5930193E+02  0.7816164E-02  0.1266605E+00
        -11   -1    0    0    0    0  0.00000000000E+00  0.00000000000E+00  0.45593999997E+02  0.45594000000E+02  0.51100000000E-03 0. -1.
         11   -1    0    0    0    0 -0.00000000000E+00 -0.00000000000E+00 -0.45593999997E+02  0.45594000000E+02  0.51100000000E-03 0.  1.
    9900012    2    1    2    0    0 -0.31337285346E+02 -0.22456434083E+01  0.54454681845E+01  0.59301929516E+02  0.49999973535E+02 0.  0.
         12    1    1    2    0    0  0.31337285346E+02  0.22456434083E+01 -0.54454681845E+01  0.31886070484E+02  0.00000000000E+00 0. -1.
         11    1    3    3    0    0  0.49675517069E+00  0.27842366357E+01 -0.58109401564E+00  0.28872841667E+01  0.51100000000E-03 0. -1.
        -11    1    3    3    0    0 -0.97983098096E+01  0.19263096090E+02  0.91479443341E+01  0.23468247312E+02  0.51100000000E-03 0.  1.
         12    1    3    3    0    0 -0.22035730707E+02 -0.24292976134E+02 -0.31213821339E+01  0.32946398038E+02  0.00000000000E+00 0. -1.
</event>
<event>
 7    1  0.6593656E-013  0.5930195E+02  0.7816164E-02  0.1266605E+00
        -11   -1    0    0    0    0  0.00000000000E+00  0.00000000000E+00  0.45593999997E+02  0.45594000000E+02  0.51100000000E-03 0. -1.
         11   -1    0    0    0    0 -0.00000000000E+00 -0.00000000000E+00 -0.45593999997E+02  0.45594000000E+02  0.51100000000E-03 0.  1.
    9900012    2    1    2    0    0 -0.17444828971E+02  0.23323754393E+01 -0.26588688182E+02  0.59301947058E+02  0.50000005526E+02 0.  0.
         12    1    1    2    0    0  0.17444828971E+02 -0.23323754393E+01  0.26588688182E+02  0.31886052942E+02  0.00000000000E+00 0. -1.
         11    1    3    3    0    0 -0.21927215580E+01 -0.12465695298E+02 -0.97386130473E+01  0.15970039807E+02  0.51100000000E-03 0. -1.
        -11    1    3    3    0    0  0.69112494060E+01  0.15690137821E+02 -0.36798860217E+01  0.17535317351E+02  0.51100000000E-03 0.  1.
         12    1    3    3    0    0 -0.22163356819E+02 -0.89206708375E+00 -0.13170189113E+02  0.25796589900E+02  0.00000000000E+00 0. -1.
</event>
<event>
 7    1  0.6593656E-013  0.5930195E+02  0.7816164E-02  0.1266605E+00
        -11   -1    0    0    0    0  0.00000000000E+00  0.00000000000E+00  0.45593999997E+02  0.45594000000E+02  0.51100000000E-03 0. -1.
         11   -1    0    0    0    0 -0.00000000000E+00 -0.00000000000E+00 -0.45593999997E+02  0.45594000000E+02  0.51100000000E-03 0.  1.
    9900012    2    1    2    0    0 -0.27333775708E+02  0.86777632726E+01 -0.13938477831E+02  0.59301952360E+02  0.50000015196E+02 0.  0.
         12    1    1    2    0    0  0.27333775708E+02 -0.86777632726E+01  0.13938477831E+02  0.31886047640E+02  0.00000000000E+00 0. -1.
         11    1    3    3    0    0 -0.77984666378E+01 -0.63262503591E+01 -0.11882167501E+01  0.10111843789E+02  0.51100000000E-03 0. -1.
        -11    1    3    3    0    0 -0.23316907768E+02 -0.76284380788E+01 -0.57196023054E+01  0.25190972712E+02  0.51100000000E-03 0.  1.
         12    1    3    3    0    0  0.37815986984E+01  0.22632451710E+02 -0.70306587752E+01  0.23999135859E+02  0.00000000000E+00 0. -1.
</event>
<event>
 7    1  0.6593656E-013  0.5930195E+02  0.7816164E-02  0.1266605E+00
        -11   -1    0    0    0    0  0.00000000000E+00  0.00000000000E+00  0.45593999997E+02  0.45594000000E+02  0.51100000000E-03 0.  1.
         11   -1    0    0    0    0 -0.00000000000E+00 -0.00000000000E+00 -0.45593999997E+02  0.45594000000E+02  0.51100000000E-03 0. -1.
    9900012    2    1    2    0    0 -0.12082185083E+02 -0.28431783088E+02 -0.78977507564E+01  0.59301953633E+02  0.50000017517E+02 0.  0.
         12    1    1    2    0    0  0.12082185083E+02  0.28431783088E+02  0.78977507564E+01  0.31886046367E+02  0.00000000000E+00 0. -1.
         11    1    3    3    0    0 -0.66112036639E+01 -0.84360601316E+01 -0.12119249125E+02  0.16178730607E+02  0.51100000000E-03 0. -1.
        -11    1    3    3    0    0 -0.17646166280E+02 -0.23342177578E+02 -0.14143911061E+01  0.29295817806E+02  0.51100000000E-03 0.  1.
         12    1    3    3    0    0  0.12175184861E+02  0.33464546214E+01  0.56358894750E+01  0.13827405220E+02  0.00000000000E+00 0. -1.
</event>
<event>
 7    1  0.6593656E-013  0.5930198E+02  0.7816164E-02  0.1266605E+00
        -11   -1    0    0    0    0  0.00000000000E+00  0.00000000000E+00  0.45593999997E+02  0.45594000000E+02  0.51100000000E-03 0. -1.
         11   -1    0    0    0    0 -0.00000000000E+00 -0.00000000000E+00 -0.45593999997E+02  0.45594000000E+02  0.51100000000E-03 0.  1.
    9900012    2    1    2    0    0  0.45518030407E+01  0.30867043895E+02 -0.65745604769E+01  0.59301981823E+02  0.50000068929E+02 0.  0.
         12    1    1    2    0    0 -0.45518030407E+01 -0.30867043895E+02  0.65745604769E+01  0.31886018177E+02  0.00000000000E+00 0. -1.
         11    1    3    3    0    0  0.14951207175E+02  0.56166589150E+01 -0.57398925322E+00  0.15981705706E+02  0.51100000000E-03 0. -1.
        -11    1    3    3    0    0 -0.13372008806E+02 -0.31618741425E+01 -0.53500100124E+01  0.14745530678E+02  0.51100000000E-03 0.  1.
         12    1    3    3    0    0  0.29726046717E+01  0.28412259123E+02 -0.65056121126E+00  0.28574745438E+02  0.00000000000E+00 0. -1.
</event>
<event>
 7    1  0.6593656E-013  0.5930194E+02  0.7816164E-02  0.1266605E+00
        -11   -1    0    0    0    0  0.00000000000E+00  0.00000000000E+00  0.45593999997E+02  0.45594000000E+02  0.51100000000E-03 0. -1.
         11   -1    0    0    0    0 -0.00000000000E+00 -0.00000000000E+00 -0.45593999997E+02  0.45594000000E+02  0.51100000000E-03 0.  1.
    9900012    2    1    2    0    0  0.39845380369E+01 -0.31378132793E+02  0.40319756837E+01  0.59301943661E+02  0.49999999331E+02 0.  0.
         12    1    1    2    0    0 -0.39845380369E+01  0.31378132793E+02 -0.40319756837E+01  0.31886056339E+02  0.00000000000E+00 0. -1.
         11    1    3    3    0    0  0.97840578395E+01 -0.11630566034E+02 -0.11496721054E+02  0.19057083967E+02  0.51100000000E-03 0. -1.
        -11    1    3    3    0    0 -0.52249225951E+01  0.47720682525E+01 -0.46644957833E+01  0.84752564979E+01  0.51100000000E-03 0.  1.
         12    1    3    3    0    0 -0.57459720745E+00 -0.24519635011E+02  0.20193192521E+02  0.31769603196E+02  0.00000000000E+00 0. -1.
</event>
<event>
 7    1  0.6593656E-013  0.5930196E+02  0.7816164E-02  0.1266605E+00
        -11   -1    0    0    0    0  0.00000000000E+00  0.00000000000E+00  0.45593999997E+02  0.45594000000E+02  0.51100000000E-03 0. -1.
         11   -1    0    0    0    0 -0.00000000000E+00 -0.00000000000E+00 -0.45593999997E+02  0.45594000000E+02  0.51100000000E-03 0.  1.
    9900012    2    1    2    0    0  0.11047700417E+01  0.28073844157E+02 -0.15078415663E+02  0.59301955067E+02  0.50000020133E+02 0.  0.
         12    1    1    2    0    0 -0.11047700417E+01 -0.28073844157E+02  0.15078415663E+02  0.31886044933E+02  0.00000000000E+00 0. -1.
         11    1    3    3    0    0 -0.47889657092E+00  0.61280336407E+01  0.37234494545E+01  0.71865300618E+01  0.51100000000E-03 0. -1.
        -11    1    3    3    0    0  0.21023680583E+02  0.87968432528E+01 -0.12782432156E+01  0.22825720196E+02  0.51100000000E-03 0.  1.
         12    1    3    3    0    0 -0.19440013970E+02  0.13148967263E+02 -0.17523621902E+02  0.29289704809E+02  0.00000000000E+00 0. -1.
</event>
<event>
 7    1  0.6593656E-013  0.5930193E+02  0.7816164E-02  0.1266605E+00
        -11   -1    0    0    0    0  0.00000000000E+00  0.00000000000E+00  0.45593999997E+02  0.45594000000E+02  0.51100000000E-03 0.  1.
         11   -1    0    0    0    0 -0.00000000000E+00 -0.00000000000E+00 -0.45593999997E+02  0.45594000000E+02  0.51100000000E-03 0. -1.
    9900012    2    1    2    0    0  0.12454051668E+02 -0.26148201272E+02  0.13337528797E+02  0.59301929262E+02  0.49999973071E+02 0.  0.
         12    1    1    2    0    0 -0.12454051668E+02  0.26148201272E+02 -0.13337528797E+02  0.31886070738E+02  0.00000000000E+00 0. -1.
         11    1    3    3    0    0  0.27493316115E+01 -0.11625638027E+02 -0.10857829792E+02  0.16143319110E+02  0.51100000000E-03 0. -1.
        -11    1    3    3    0    0  0.63372817133E+01 -0.10946824486E+01 -0.67100388696E+01  0.92943042273E+01  0.51100000000E-03 0.  1.
        -12    1    3    3    0    0  0.33674383432E+01 -0.13427880797E+02  0.30905397459E+02  0.33864305925E+02  0.00000000000E+00 0.  1.
</event>
<event>
 7    1  0.6593656E-013  0.5930195E+02  0.7816164E-02  0.1266605E+00
        -11   -1    0    0    0    0  0.00000000000E+00  0.00000000000E+00  0.45593999997E+02  0.45594000000E+02  0.51100000000E-03 0.  1.
         11   -1    0    0    0    0 -0.00000000000E+00 -0.00000000000E+00 -0.45593999997E+02  0.45594000000E+02  0.51100000000E-03 0. -1.
    9900012    2    1    2    0    0 -0.31507410958E+02  0.17956751773E+01  0.45583702456E+01  0.59301950795E+02  0.50000012342E+02 0.  0.
         12    1    1    2    0    0  0.31507410958E+02 -0.17956751773E+01 -0.45583702456E+01  0.31886049205E+02  0.00000000000E+00 0. -1.
         11    1    3    3    0    0 -0.23773957854E+02  0.15214540430E+02 -0.25143812082E-01  0.28225590251E+02  0.51100000000E-03 0. -1.
        -11    1    3    3    0    0 -0.11340003182E+02 -0.19961783552E+02  0.15413522464E+01  0.23009655403E+02  0.51100000000E-03 0.  1.
         12    1    3    3    0    0  0.36065500785E+01  0.65429182992E+01  0.30421618113E+01  0.80667051406E+01  0.00000000000E+00 0. -1.
</event>
<event>
 7    1  0.6593656E-013  0.5930195E+02  0.7816164E-02  0.1266605E+00
        -11   -1    0    0    0    0  0.00000000000E+00  0.00000000000E+00  0.45593999997E+02  0.45594000000E+02  0.51100000000E-03 0.  1.
         11   -1    0    0    0    0 -0.00000000000E+00 -0.00000000000E+00 -0.45593999997E+02  0.45594000000E+02  0.51100000000E-03 0. -1.
    9900012    2    1    2    0    0  0.11696769935E+02  0.11243213956E+02  0.27449874281E+02  0.59301954697E+02  0.50000019459E+02 0.  0.
         12    1    1    2    0    0 -0.11696769935E+02 -0.11243213956E+02 -0.27449874281E+02  0.31886045303E+02  0.00000000000E+00 0. -1.
         11    1    3    3    0    0 -0.82229307477E+01  0.48452985416E+01  0.54144496270E+00  0.95596375950E+01  0.51100000000E-03 0. -1.
        -11    1    3    3    0    0  0.48912391221E+01 -0.13751820099E+02  0.17769803267E+02  0.22995710135E+02  0.51100000000E-03 0.  1.
         12    1    3    3    0    0  0.15028461561E+02  0.20149735514E+02  0.91386260514E+01  0.26746606967E+02  0.00000000000E+00 0. -1.
</event>
<event>
 7    1  0.6593656E-013  0.5930196E+02  0.7816164E-02  0.1266605E+00
        -11   -1    0    0    0    0  0.00000000000E+00  0.00000000000E+00  0.45593999997E+02  0.45594000000E+02  0.51100000000E-03 0. -1.
         11   -1    0    0    0    0 -0.00000000000E+00 -0.00000000000E+00 -0.45593999997E+02  0.45594000000E+02  0.51100000000E-03 0.  1.
    9900012    2    1    2    0    0 -0.20376114629E+02 -0.23225445078E+02 -0.78811327772E+01  0.59301959162E+02  0.50000027602E+02 0.  0.
         12    1    1    2    0    0  0.20376114629E+02  0.23225445078E+02  0.78811327772E+01  0.31886040838E+02  0.00000000000E+00 0. -1.
         11    1    3    3    0    0 -0.81010902246E+00 -0.39018839295E+01 -0.21424866190E+01  0.45245136757E+01  0.51100000000E-03 0. -1.
        -11    1    3    3    0    0 -0.97798333123E+00 -0.31654216097E+02 -0.70075265050E+01  0.32435339926E+02  0.51100000000E-03 0.  1.
         12    1    3    3    0    0 -0.18588022275E+02  0.12330654948E+02  0.12688803468E+01  0.22342105561E+02  0.00000000000E+00 0. -1.
</event>
<event>
 7    1  0.6593656E-013  0.5930188E+02  0.7816164E-02  0.1266605E+00
        -11   -1    0    0    0    0  0.00000000000E+00  0.00000000000E+00  0.45593999997E+02  0.45594000000E+02  0.51100000000E-03 0.  1.
         11   -1    0    0    0    0 -0.00000000000E+00 -0.00000000000E+00 -0.45593999997E+02  0.45594000000E+02  0.51100000000E-03 0. -1.
    9900012    2    1    2    0    0 -0.29752348064E+02 -0.78911516727E+01  0.83217806323E+01  0.59301881971E+02  0.49999886824E+02 0.  0.
         12    1    1    2    0    0  0.29752348064E+02  0.78911516727E+01 -0.83217806323E+01  0.31886118029E+02  0.00000000000E+00 0. -1.
         11    1    3    3    0    0 -0.73062084051E+01  0.50515465307E+01 -0.91386577808E+01  0.12744170036E+02  0.51100000000E-03 0. -1.
        -11    1    3    3    0    0 -0.25921596825E+02  0.25475032295E+01  0.53492815472E+01  0.26590106581E+02  0.51100000000E-03 0.  1.
         12    1    3    3    0    0  0.34754571660E+01 -0.15490201433E+02  0.12111156866E+02  0.19967605354E+02  0.00000000000E+00 0. -1.
</event>
<event>
 7    1  0.7663443E-013  0.5930191E+02  0.7816164E-02  0.1266605E+00
        -11   -1    0    0    0    0  0.00000000000E+00  0.00000000000E+00  0.45593999997E+02  0.45594000000E+02  0.51100000000E-03 0. -1.
         11   -1    0    0    0    0 -0.00000000000E+00 -0.00000000000E+00 -0.45593999997E+02  0.45594000000E+02  0.51100000000E-03 0.  1.
    9900012    2    1    2    0    0 -0.12951650902E+02  0.16949336360E+01 -0.29087874013E+02  0.59301914074E+02  0.49999945371E+02 0.  0.
         12    1    1    2    0    0  0.12951650902E+02 -0.16949336360E+01  0.29087874013E+02  0.31886085926E+02  0.00000000000E+00 0. -1.
         11    1    3    3    0    0 -0.98830755993E+01 -0.80805101703E+01 -0.77917960040E+01  0.14955999236E+02  0.51100000000E-03 0. -1.
        -11    1    3    3    0    0 -0.27736354628E+01  0.72625049776E+01 -0.32213930535E+02  0.33138713811E+02  0.51100000000E-03 0.  1.
         12    1    3    3    0    0 -0.29493984001E+00  0.25129388287E+01  0.10917852527E+02  0.11207201027E+02  0.00000000000E+00 0. -1.
</event>
<event>
 7    1  0.6593656E-013  0.5930194E+02  0.7816164E-02  0.1266605E+00
        -11   -1    0    0    0    0  0.00000000000E+00  0.00000000000E+00  0.45593999997E+02  0.45594000000E+02  0.51100000000E-03 0.  1.
         11   -1    0    0    0    0 -0.00000000000E+00 -0.00000000000E+00 -0.45593999997E+02  0.45594000000E+02  0.51100000000E-03 0. -1.
    9900012    2    1    2    0    0 -0.11311425092E+02  0.29148198548E+02  0.62574050274E+01  0.59301938251E+02  0.49999989464E+02 0.  0.
         12    1    1    2    0    0  0.11311425092E+02 -0.29148198548E+02 -0.62574050274E+01  0.31886061749E+02  0.00000000000E+00 0. -1.
         11    1    3    3    0    0  0.70524476307E+01  0.25992668813E+01  0.75522573337E+01  0.10655036227E+02  0.51100000000E-03 0. -1.
        -11    1    3    3    0    0 -0.98756413153E+01  0.32540878027E+02  0.77421516423E+01  0.34876610306E+02  0.51100000000E-03 0.  1.
         12    1    3    3    0    0 -0.84882314079E+01 -0.59919463600E+01 -0.90370039486E+01  0.13770291717E+02  0.00000000000E+00 0. -1.
</event>
<event>
 7    1  0.6593656E-013  0.5930193E+02  0.7816164E-02  0.1266605E+00
        -11   -1    0    0    0    0  0.00000000000E+00  0.00000000000E+00  0.45593999997E+02  0.45594000000E+02  0.51100000000E-03 0.  1.
         11   -1    0    0    0    0 -0.00000000000E+00 -0.00000000000E+00 -0.45593999997E+02  0.45594000000E+02  0.51100000000E-03 0. -1.
    9900012    2    1    2    0    0 -0.31798042566E+02  0.52691625091E+00 -0.23082842020E+01  0.59301932075E+02  0.49999978201E+02 0.  0.
         12    1    1    2    0    0  0.31798042566E+02 -0.52691625091E+00  0.23082842020E+01  0.31886067925E+02  0.00000000000E+00 0. -1.
         11    1    3    3    0    0  0.17770159625E+01  0.11654064900E+02  0.38434558735E+01  0.12399482559E+02  0.51100000000E-03 0. -1.
        -11    1    3    3    0    0 -0.18851870381E+02  0.92966845362E+01 -0.15250962775E+00  0.21020100373E+02  0.51100000000E-03 0.  1.
         12    1    3    3    0    0 -0.14723188147E+02 -0.20423833185E+02 -0.59992304477E+01  0.25882349143E+02  0.00000000000E+00 0. -1.
</event>
<event>
 7    1  0.6593656E-013  0.5930192E+02  0.7816164E-02  0.1266605E+00
        -11   -1    0    0    0    0  0.00000000000E+00  0.00000000000E+00  0.45593999997E+02  0.45594000000E+02  0.51100000000E-03 0. -1.
         11   -1    0    0    0    0 -0.00000000000E+00 -0.00000000000E+00 -0.45593999997E+02  0.45594000000E+02  0.51100000000E-03 0.  1.
    9900012    2    1    2    0    0  0.16614129570E+02  0.24564210967E+02  0.11717170747E+02  0.59301923852E+02  0.49999963203E+02 0.  0.
         12    1    1    2    0    0 -0.16614129570E+02 -0.24564210967E+02 -0.11717170747E+02  0.31886076148E+02  0.00000000000E+00 0. -1.
         11    1    3    3    0    0  0.24764286990E+02  0.21591208838E+02  0.74050844370E+01  0.33679155052E+02  0.51100000000E-03 0. -1.
        -11    1    3    3    0    0  0.56727545973E+01 -0.63653105427E+01  0.22193060359E+01  0.88103713070E+01  0.51100000000E-03 0.  1.
        -12    1    3    3    0    0 -0.13822912017E+02  0.93383126719E+01  0.20927802745E+01  0.16812397493E+02  0.00000000000E+00 0.  1.
</event>
<event>
 7    1  0.6593656E-013  0.5930188E+02  0.7816164E-02  0.1266605E+00
        -11   -1    0    0    0    0  0.00000000000E+00  0.00000000000E+00  0.45593999997E+02  0.45594000000E+02  0.51100000000E-03 0.  1.
         11   -1    0    0    0    0 -0.00000000000E+00 -0.00000000000E+00 -0.45593999997E+02  0.45594000000E+02  0.51100000000E-03 0. -1.
    9900012    2    1    2    0    0  0.72647968569E+01 -0.25103150880E+02  0.18269627351E+02  0.59301878551E+02  0.49999880587E+02 0.  0.
         12    1    1    2    0    0 -0.72647968569E+01  0.25103150880E+02 -0.18269627351E+02  0.31886121449E+02  0.00000000000E+00 0. -1.
         11    1    3    3    0    0  0.13192053798E+02 -0.20676478659E+02  0.56029112813E+01  0.25158292236E+02  0.51100000000E-03 0. -1.
        -11    1    3    3    0    0  0.79010725152E+01  0.83709277539E+01  0.97348445331E+01  0.15075363236E+02  0.51100000000E-03 0.  1.
        -12    1    3    3    0    0 -0.13828329457E+02 -0.12797599975E+02  0.29318715367E+01  0.19068223079E+02  0.00000000000E+00 0.  1.
</event>
<event>
 7    1  0.6593656E-013  0.5930198E+02  0.7816164E-02  0.1266605E+00
        -11   -1    0    0    0    0  0.00000000000E+00  0.00000000000E+00  0.45593999997E+02  0.45594000000E+02  0.51100000000E-03 0.  1.
         11   -1    0    0    0    0 -0.00000000000E+00 -0.00000000000E+00 -0.45593999997E+02  0.45594000000E+02  0.51100000000E-03 0. -1.
    9900012    2    1    2    0    0  0.26215281951E+02 -0.14486671629E+02  0.10936805586E+02  0.59301978312E+02  0.50000062527E+02 0.  0.
         12    1    1    2    0    0 -0.26215281951E+02  0.14486671629E+02 -0.10936805586E+02  0.31886021688E+02  0.00000000000E+00 0. -1.
         11    1    3    3    0    0  0.58444003205E+01 -0.13988752599E+02  0.37052241385E+01  0.15606758169E+02  0.51100000000E-03 0. -1.
        -11    1    3    3    0    0 -0.89404940213E+00 -0.15685940391E+02  0.78345300029E+01  0.17556420789E+02  0.51100000000E-03 0.  1.
         12    1    3    3    0    0  0.21264931033E+02  0.15188021362E+02 -0.60294855567E+00  0.26138799354E+02  0.00000000000E+00 0. -1.
</event>
<event>
 7    1  0.6593656E-013  0.5930192E+02  0.7816164E-02  0.1266605E+00
        -11   -1    0    0    0    0  0.00000000000E+00  0.00000000000E+00  0.45593999997E+02  0.45594000000E+02  0.51100000000E-03 0.  1.
         11   -1    0    0    0    0 -0.00000000000E+00 -0.00000000000E+00 -0.45593999997E+02  0.45594000000E+02  0.51100000000E-03 0. -1.
    9900012    2    1    2    0    0 -0.24697521278E+02  0.11422534471E+02  0.16621683709E+02  0.59301918078E+02  0.49999952674E+02 0.  0.
         12    1    1    2    0    0  0.24697521278E+02 -0.11422534471E+02 -0.16621683709E+02  0.31886081922E+02  0.00000000000E+00 0. -1.
         11    1    3    3    0    0 -0.13225424211E+00 -0.83475355063E+01 -0.73690506100E+01  0.11135607184E+02  0.51100000000E-03 0.  1.
        -11    1    3    3    0    0  0.28544735596E+01 -0.35615108798E+01 -0.54678777688E+00  0.45968854873E+01  0.51100000000E-03 0. -1.
        -12    1    3    3    0    0 -0.27419740595E+02  0.23331580857E+02  0.24537522096E+02  0.43569425406E+02  0.00000000000E+00 0.  1.
</event>
<event>
 7    1  0.6593656E-013  0.5930194E+02  0.7816164E-02  0.1266605E+00
        -11   -1    0    0    0    0  0.00000000000E+00  0.00000000000E+00  0.45593999997E+02  0.45594000000E+02  0.51100000000E-03 0. -1.
         11   -1    0    0    0    0 -0.00000000000E+00 -0.00000000000E+00 -0.45593999997E+02  0.45594000000E+02  0.51100000000E-03 0.  1.
    9900012    2    1    2    0    0 -0.78375924317E+01  0.28921292635E+02 -0.10901906007E+02  0.59301943841E+02  0.49999999659E+02 0.  0.
         12    1    1    2    0    0  0.78375924317E+01 -0.28921292635E+02  0.10901906007E+02  0.31886056159E+02  0.00000000000E+00 0. -1.
         11    1    3    3    0    0 -0.24672676267E+01 -0.37210431114E+01  0.90044547025E+01  0.10050560986E+02  0.51100000000E-03 0. -1.
        -11    1    3    3    0    0  0.99584778449E+01  0.31460855775E+01  0.11836569257E+00  0.10444287728E+02  0.51100000000E-03 0.  1.
        -12    1    3    3    0    0 -0.15328802650E+02  0.29496250169E+02 -0.20024726402E+02  0.38807095127E+02  0.00000000000E+00 0.  1.
</event>
<event>
 7    1  0.6593656E-013  0.5930195E+02  0.7816164E-02  0.1266605E+00
        -11   -1    0    0    0    0  0.00000000000E+00  0.00000000000E+00  0.45593999997E+02  0.45594000000E+02  0.51100000000E-03 0.  1.
         11   -1    0    0    0    0 -0.00000000000E+00 -0.00000000000E+00 -0.45593999997E+02  0.45594000000E+02  0.51100000000E-03 0. -1.
    9900012    2    1    2    0    0 -0.28580110361E+02 -0.82103354933E+01  0.11510326020E+02  0.59301954114E+02  0.50000018396E+02 0.  0.
         12    1    1    2    0    0  0.28580110361E+02  0.82103354933E+01 -0.11510326020E+02  0.31886045886E+02  0.00000000000E+00 0. -1.
         11    1    3    3    0    0 -0.21610216215E+02 -0.14603693230E+02 -0.11723073179E+00  0.26082236180E+02  0.51100000000E-03 0. -1.
        -11    1    3    3    0    0 -0.15343095999E+02 -0.38281824124E+01  0.12232685465E+02  0.19992602866E+02  0.51100000000E-03 0.  1.
         12    1    3    3    0    0  0.83732018533E+01  0.10221540149E+02 -0.60512871350E+00  0.13227115069E+02  0.00000000000E+00 0. -1.
</event>
<event>
 7    1  0.6593656E-013  0.5930195E+02  0.7816164E-02  0.1266605E+00
        -11   -1    0    0    0    0  0.00000000000E+00  0.00000000000E+00  0.45593999997E+02  0.45594000000E+02  0.51100000000E-03 0. -1.
         11   -1    0    0    0    0 -0.00000000000E+00 -0.00000000000E+00 -0.45593999997E+02  0.45594000000E+02  0.51100000000E-03 0.  1.
    9900012    2    1    2    0    0 -0.17634542618E+02  0.25980833070E+02 -0.55443346900E+01  0.59301946191E+02  0.50000003945E+02 0.  0.
         12    1    1    2    0    0  0.17634542618E+02 -0.25980833070E+02  0.55443346900E+01  0.31886053809E+02  0.00000000000E+00 0. -1.
         11    1    3    3    0    0 -0.18077003890E+02 -0.58855576488E+01 -0.65212924668E-01  0.19011104951E+02  0.51100000000E-03 0. -1.
        -11    1    3    3    0    0 -0.56107250440E+01  0.65622838452E+01 -0.10705316598E+02  0.13753094506E+02  0.51100000000E-03 0.  1.
         12    1    3    3    0    0  0.60531863160E+01  0.25304106874E+02  0.52261948325E+01  0.26537746733E+02  0.00000000000E+00 0. -1.
</event>
<event>
 7    1  0.6593656E-013  0.5930192E+02  0.7816164E-02  0.1266605E+00
        -11   -1    0    0    0    0  0.00000000000E+00  0.00000000000E+00  0.45593999997E+02  0.45594000000E+02  0.51100000000E-03 0.  1.
         11   -1    0    0    0    0 -0.00000000000E+00 -0.00000000000E+00 -0.45593999997E+02  0.45594000000E+02  0.51100000000E-03 0. -1.
    9900012    2    1    2    0    0  0.30259860796E+02 -0.99194074215E+01 -0.16335218991E+01  0.59301918196E+02  0.49999952890E+02 0.  0.
         12    1    1    2    0    0 -0.30259860796E+02  0.99194074215E+01  0.16335218991E+01  0.31886081804E+02  0.00000000000E+00 0. -1.
         11    1    3    3    0    0  0.66382058368E+01 -0.53074146267E+01 -0.22304273830E+02  0.23868704575E+02  0.51100000000E-03 0. -1.
        -11    1    3    3    0    0  0.16757616314E+01 -0.44666130093E+01  0.98930357638E+01  0.10983212905E+02  0.51100000000E-03 0.  1.
        -12    1    3    3    0    0  0.21945893328E+02 -0.14537978549E+00  0.10777716167E+02  0.24450000716E+02  0.00000000000E+00 0.  1.
</event>
<event>
 7    1  0.6593656E-013  0.5930194E+02  0.7816164E-02  0.1266605E+00
        -11   -1    0    0    0    0  0.00000000000E+00  0.00000000000E+00  0.45593999997E+02  0.45594000000E+02  0.51100000000E-03 0. -1.
         11   -1    0    0    0    0 -0.00000000000E+00 -0.00000000000E+00 -0.45593999997E+02  0.45594000000E+02  0.51100000000E-03 0.  1.
    9900012    2    1    2    0    0  0.14998970098E+02 -0.26088139713E+02 -0.10543282678E+02  0.59301938040E+02  0.49999989079E+02 0.  0.
         12    1    1    2    0    0 -0.14998970098E+02  0.26088139713E+02  0.10543282678E+02  0.31886061960E+02  0.00000000000E+00 0. -1.
         11    1    3    3    0    0  0.77633258618E+01 -0.87684667543E+00  0.27293002987E+01  0.82756974878E+01  0.51100000000E-03 0. -1.
        -11    1    3    3    0    0  0.19083627482E+02 -0.21131861435E+02 -0.21807444589E+02  0.35865095083E+02  0.51100000000E-03 0.  1.
         12    1    3    3    0    0 -0.11847983246E+02 -0.40794316030E+01  0.85348616119E+01  0.15161145469E+02  0.00000000000E+00 0. -1.
</event>
<event>
 7    1  0.6593656E-013  0.5930197E+02  0.7816164E-02  0.1266605E+00
        -11   -1    0    0    0    0  0.00000000000E+00  0.00000000000E+00  0.45593999997E+02  0.45594000000E+02  0.51100000000E-03 0.  1.
         11   -1    0    0    0    0 -0.00000000000E+00 -0.00000000000E+00 -0.45593999997E+02  0.45594000000E+02  0.51100000000E-03 0. -1.
    9900012    2    1    2    0    0  0.73674049053E+01  0.26423308897E+02  0.16255735949E+02  0.59301970781E+02  0.50000048791E+02 0.  0.
         12    1    1    2    0    0 -0.73674049053E+01 -0.26423308897E+02 -0.16255735949E+02  0.31886029219E+02  0.00000000000E+00 0. -1.
         11    1    3    3    0    0  0.18894846861E+02  0.13303300517E+02  0.24089817113E+01  0.23233515353E+02  0.51100000000E-03 0.  1.
        -11    1    3    3    0    0  0.21953582049E+01  0.15974632987E+02 -0.33586232975E+00  0.16128276426E+02  0.51100000000E-03 0. -1.
         12    1    3    3    0    0 -0.13722800160E+02 -0.28546246063E+01  0.14182616568E+02  0.19940179001E+02  0.00000000000E+00 0. -1.
</event>
<event>
 7    1  0.6593656E-013  0.5930199E+02  0.7816164E-02  0.1266605E+00
        -11   -1    0    0    0    0  0.00000000000E+00  0.00000000000E+00  0.45593999997E+02  0.45594000000E+02  0.51100000000E-03 0.  1.
         11   -1    0    0    0    0 -0.00000000000E+00 -0.00000000000E+00 -0.45593999997E+02  0.45594000000E+02  0.51100000000E-03 0. -1.
    9900012    2    1    2    0    0  0.27308018521E+02  0.15958079210E+02  0.40410128187E+01  0.59301985006E+02  0.50000074734E+02 0.  0.
         12    1    1    2    0    0 -0.27308018521E+02 -0.15958079210E+02 -0.40410128187E+01  0.31886014994E+02  0.00000000000E+00 0. -1.
         11    1    3    3    0    0  0.98568028833E+01 -0.40810878755E+01  0.22056210128E+01  0.10893879274E+02  0.51100000000E-03 0. -1.
        -11    1    3    3    0    0  0.77768829080E+01  0.13746212327E+02  0.20855252690E+02  0.26160654161E+02  0.51100000000E-03 0.  1.
        -12    1    3    3    0    0  0.96743327294E+01  0.62929547582E+01 -0.19019860884E+02  0.22247451571E+02  0.00000000000E+00 0.  1.
</event>
<event>
 7    1  0.6593656E-013  0.5930199E+02  0.7816164E-02  0.1266605E+00
        -11   -1    0    0    0    0  0.00000000000E+00  0.00000000000E+00  0.45593999997E+02  0.45594000000E+02  0.51100000000E-03 0.  1.
         11   -1    0    0    0    0 -0.00000000000E+00 -0.00000000000E+00 -0.45593999997E+02  0.45594000000E+02  0.51100000000E-03 0. -1.
    9900012    2    1    2    0    0 -0.91926299367E+01  0.29555730624E+02  0.76597765414E+01  0.59301986851E+02  0.50000078099E+02 0.  0.
         12    1    1    2    0    0  0.91926299367E+01 -0.29555730624E+02 -0.76597765414E+01  0.31886013149E+02  0.00000000000E+00 0. -1.
         11    1    3    3    0    0 -0.16327818028E+02  0.14356818876E+02  0.93079376089E+01  0.23650657339E+02  0.51100000000E-03 0. -1.
        -11    1    3    3    0    0  0.67633753821E+01  0.16924520608E+02  0.12044009077E+02  0.21845841693E+02  0.51100000000E-03 0.  1.
        -12    1    3    3    0    0  0.37181270890E+00 -0.17256088598E+01 -0.13692170145E+02  0.13805487818E+02  0.00000000000E+00 0.  1.
</event>
<event>
 7    1  0.6593656E-013  0.5930194E+02  0.7816164E-02  0.1266605E+00
        -11   -1    0    0    0    0  0.00000000000E+00  0.00000000000E+00  0.45593999997E+02  0.45594000000E+02  0.51100000000E-03 0.  1.
         11   -1    0    0    0    0 -0.00000000000E+00 -0.00000000000E+00 -0.45593999997E+02  0.45594000000E+02  0.51100000000E-03 0. -1.
    9900012    2    1    2    0    0  0.30686437570E+02 -0.78231543625E+01 -0.37231485254E+01  0.59301936745E+02  0.49999986719E+02 0.  0.
         12    1    1    2    0    0 -0.30686437570E+02  0.78231543625E+01  0.37231485254E+01  0.31886063255E+02  0.00000000000E+00 0. -1.
         11    1    3    3    0    0  0.96191662749E+01  0.25669975720E+01 -0.98966657300E+00  0.10004862645E+02  0.51100000000E-03 0. -1.
        -11    1    3    3    0    0  0.34575398924E+02 -0.69190698201E+01 -0.14409173694E+01  0.35290338353E+02  0.51100000000E-03 0.  1.
         12    1    3    3    0    0 -0.13508127629E+02 -0.34710821145E+01 -0.12925645830E+01  0.14006735747E+02  0.00000000000E+00 0. -1.
</event>
<event>
 7    1  0.6593656E-013  0.5930194E+02  0.7816164E-02  0.1266605E+00
        -11   -1    0    0    0    0  0.00000000000E+00  0.00000000000E+00  0.45593999997E+02  0.45594000000E+02  0.51100000000E-03 0.  1.
         11   -1    0    0    0    0 -0.00000000000E+00 -0.00000000000E+00 -0.45593999997E+02  0.45594000000E+02  0.51100000000E-03 0. -1.
    9900012    2    1    2    0    0  0.47969976576E+01 -0.19861686032E+02  0.24479029500E+02  0.59301942799E+02  0.49999997759E+02 0.  0.
         12    1    1    2    0    0 -0.47969976576E+01  0.19861686032E+02 -0.24479029500E+02  0.31886057201E+02  0.00000000000E+00 0. -1.
         11    1    3    3    0    0  0.39800172551E+01  0.69673875406E+01 -0.20906411798E+01  0.82919121616E+01  0.51100000000E-03 0. -1.
        -11    1    3    3    0    0  0.12123977186E+02 -0.11635281521E+02 -0.17993011794E+01  0.16899943309E+02  0.51100000000E-03 0.  1.
        -12    1    3    3    0    0 -0.11306996783E+02 -0.15193792052E+02  0.28368971859E+02  0.34110087328E+02  0.00000000000E+00 0.  1.
</event>
<event>
 7    1  0.6593656E-013  0.5930194E+02  0.7816164E-02  0.1266605E+00
        -11   -1    0    0    0    0  0.00000000000E+00  0.00000000000E+00  0.45593999997E+02  0.45594000000E+02  0.51100000000E-03 0. -1.
         11   -1    0    0    0    0 -0.00000000000E+00 -0.00000000000E+00 -0.45593999997E+02  0.45594000000E+02  0.51100000000E-03 0.  1.
    9900012    2    1    2    0    0 -0.10118628278E+02  0.22987696692E+02  0.19644337354E+02  0.59301939919E+02  0.49999992506E+02 0.  0.
         12    1    1    2    0    0  0.10118628278E+02 -0.22987696692E+02 -0.19644337354E+02  0.31886060081E+02  0.00000000000E+00 0. -1.
         11    1    3    3    0    0  0.18241957383E+01 -0.14512389419E+00 -0.89114008523E+01  0.90973521669E+01  0.51100000000E-03 0. -1.
        -11    1    3    3    0    0 -0.18157863960E+02  0.12846432121E+01  0.16083940890E+02  0.24290975414E+02  0.51100000000E-03 0.  1.
         12    1    3    3    0    0  0.62150399435E+01  0.21848177375E+02  0.12471797316E+02  0.25913612338E+02  0.00000000000E+00 0. -1.
</event>
<event>
 7    1  0.6593656E-013  0.5930199E+02  0.7816164E-02  0.1266605E+00
        -11   -1    0    0    0    0  0.00000000000E+00  0.00000000000E+00  0.45593999997E+02  0.45594000000E+02  0.51100000000E-03 0. -1.
         11   -1    0    0    0    0 -0.00000000000E+00 -0.00000000000E+00 -0.45593999997E+02  0.45594000000E+02  0.51100000000E-03 0.  1.
    9900012    2    1    2    0    0 -0.10450301777E+02 -0.12183338247E+01 -0.30100238764E+02  0.59301991812E+02  0.50000087146E+02 0.  0.
         12    1    1    2    0    0  0.10450301777E+02  0.12183338247E+01  0.30100238764E+02  0.31886008188E+02  0.00000000000E+00 0. -1.
         11    1    3    3    0    0 -0.13404371927E+02 -0.14968707741E+02 -0.13227140372E+02  0.24056114418E+02  0.51100000000E-03 0. -1.
        -11    1    3    3    0    0 -0.36007657204E+01 -0.18808647508E+01 -0.17812519886E+02  0.18269894114E+02  0.51100000000E-03 0.  1.
         12    1    3    3    0    0  0.65548358704E+01  0.15631238667E+02  0.93942149407E+00  0.16975983280E+02  0.00000000000E+00 0. -1.
</event>
<event>
 7    1  0.6593656E-013  0.5930193E+02  0.7816164E-02  0.1266605E+00
        -11   -1    0    0    0    0  0.00000000000E+00  0.00000000000E+00  0.45593999997E+02  0.45594000000E+02  0.51100000000E-03 0.  1.
         11   -1    0    0    0    0 -0.00000000000E+00 -0.00000000000E+00 -0.45593999997E+02  0.45594000000E+02  0.51100000000E-03 0. -1.
    9900012    2    1    2    0    0 -0.72414487207E+01 -0.13153250984E+02  0.28129612496E+02  0.59301926392E+02  0.49999967836E+02 0.  0.
         12    1    1    2    0    0  0.72414487207E+01  0.13153250984E+02 -0.28129612496E+02  0.31886073608E+02  0.00000000000E+00 0. -1.
         11    1    3    3    0    0 -0.27800148194E+01  0.31538023573E+01  0.23311129474E+01  0.48071862393E+01  0.51100000000E-03 0. -1.
        -11    1    3    3    0    0  0.19593443098E+02 -0.59155128197E+01  0.50746957331E+01  0.21086698210E+02  0.51100000000E-03 0.  1.
         12    1    3    3    0    0 -0.24054876999E+02 -0.10391540521E+02  0.20723803815E+02  0.33408041942E+02  0.00000000000E+00 0. -1.
</event>
<event>
 7    1  0.6593656E-013  0.5930196E+02  0.7816164E-02  0.1266605E+00
        -11   -1    0    0    0    0  0.00000000000E+00  0.00000000000E+00  0.45593999997E+02  0.45594000000E+02  0.51100000000E-03 0.  1.
         11   -1    0    0    0    0 -0.00000000000E+00 -0.00000000000E+00 -0.45593999997E+02  0.45594000000E+02  0.51100000000E-03 0. -1.
    9900012    2    1    2    0    0  0.26878740841E+02  0.36453455803E+01  0.16761987588E+02  0.59301961025E+02  0.50000031000E+02 0.  0.
         12    1    1    2    0    0 -0.26878740841E+02 -0.36453455803E+01 -0.16761987588E+02  0.31886038975E+02  0.00000000000E+00 0. -1.
         11    1    3    3    0    0  0.77809604989E+01  0.12100908345E+02 -0.21340647649E+01  0.14544055890E+02  0.51100000000E-03 0. -1.
        -11    1    3    3    0    0  0.24392182382E+02  0.25115811019E+01  0.29567934800E+01  0.24698769786E+02  0.51100000000E-03 0.  1.
        -12    1    3    3    0    0 -0.52944020401E+01 -0.10967143866E+02  0.15939258873E+02  0.20059135349E+02  0.00000000000E+00 0.  1.
</event>
<event>
 7    1  0.6593656E-013  0.5930196E+02  0.7816164E-02  0.1266605E+00
        -11   -1    0    0    0    0  0.00000000000E+00  0.00000000000E+00  0.45593999997E+02  0.45594000000E+02  0.51100000000E-03 0. -1.
         11   -1    0    0    0    0 -0.00000000000E+00 -0.00000000000E+00 -0.45593999997E+02  0.45594000000E+02  0.51100000000E-03 0.  1.
    9900012    2    1    2    0    0 -0.29300313508E+02  0.93972949381E+01  0.83607573953E+01  0.59301956218E+02  0.50000022232E+02 0.  0.
         12    1    1    2    0    0  0.29300313508E+02 -0.93972949381E+01 -0.83607573953E+01  0.31886043782E+02  0.00000000000E+00 0. -1.
         11    1    3    3    0    0 -0.10911625876E+02  0.12615472420E+02  0.16181540918E+02  0.23239104767E+02  0.51100000000E-03 0. -1.
        -11    1    3    3    0    0 -0.22750586907E+02 -0.64875996611E+01  0.30974664105E+01  0.23859431100E+02  0.51100000000E-03 0.  1.
        -12    1    3    3    0    0  0.43618992749E+01  0.32694221790E+01 -0.10918249933E+02  0.12203420351E+02  0.00000000000E+00 0.  1.
</event>
<event>
 7    1  0.6593656E-013  0.5930195E+02  0.7816164E-02  0.1266605E+00
        -11   -1    0    0    0    0  0.00000000000E+00  0.00000000000E+00  0.45593999997E+02  0.45594000000E+02  0.51100000000E-03 0.  1.
         11   -1    0    0    0    0 -0.00000000000E+00 -0.00000000000E+00 -0.45593999997E+02  0.45594000000E+02  0.51100000000E-03 0. -1.
    9900012    2    1    2    0    0  0.12869248737E+02  0.17485227180E+02  0.23353144875E+02  0.59301951199E+02  0.50000013078E+02 0.  0.
         12    1    1    2    0    0 -0.12869248737E+02 -0.17485227180E+02 -0.23353144875E+02  0.31886048801E+02  0.00000000000E+00 0. -1.
         11    1    3    3    0    0  0.12445471744E+01  0.21002743874E+01  0.46303540970E+00  0.24848445069E+01  0.51100000000E-03 0. -1.
        -11    1    3    3    0    0 -0.13175376108E+02  0.22420839974E+02  0.14092541850E+02  0.29578443786E+02  0.51100000000E-03 0.  1.
         12    1    3    3    0    0  0.24800077672E+02 -0.70358871814E+01  0.87975676160E+01  0.27238662906E+02  0.00000000000E+00 0. -1.
</event>
<event>
 7    1  0.6593656E-013  0.5930202E+02  0.7816164E-02  0.1266604E+00
        -11   -1    0    0    0    0  0.00000000000E+00  0.00000000000E+00  0.45593999997E+02  0.45594000000E+02  0.51100000000E-03 0.  1.
         11   -1    0    0    0    0 -0.00000000000E+00 -0.00000000000E+00 -0.45593999997E+02  0.45594000000E+02  0.51100000000E-03 0. -1.
    9900012    2    1    2    0    0  0.22394370304E+02  0.44317602705E+01  0.22261340753E+02  0.59302021694E+02  0.50000141645E+02 0.  0.
         12    1    1    2    0    0 -0.22394370304E+02 -0.44317602705E+01 -0.22261340753E+02  0.31885978306E+02  0.00000000000E+00 0. -1.
         11    1    3    3    0    0  0.21722816242E+02 -0.31396186559E+01  0.12481356369E+02  0.25249202123E+02  0.51100000000E-03 0.  1.
        -11    1    3    3    0    0 -0.25534395030E+01 -0.10169803405E+02 -0.41399090292E+01  0.11273145152E+02  0.51100000000E-03 0. -1.
         12    1    3    3    0    0  0.32249935647E+01  0.17741182331E+02  0.13919893414E+02  0.22779674419E+02  0.00000000000E+00 0. -1.
</event>
<event>
 7    1  0.6593656E-013  0.5930195E+02  0.7816164E-02  0.1266605E+00
        -11   -1    0    0    0    0  0.00000000000E+00  0.00000000000E+00  0.45593999997E+02  0.45594000000E+02  0.51100000000E-03 0. -1.
         11   -1    0    0    0    0 -0.00000000000E+00 -0.00000000000E+00 -0.45593999997E+02  0.45594000000E+02  0.51100000000E-03 0.  1.
    9900012    2    1    2    0    0 -0.24995709498E+02 -0.89054079056E+01 -0.17681300775E+02  0.59301950066E+02  0.50000011012E+02 0.  0.
         12    1    1    2    0    0  0.24995709498E+02  0.89054079056E+01  0.17681300775E+02  0.31886049934E+02  0.00000000000E+00 0. -1.
         11    1    3    3    0    0  0.96897361380E+01 -0.93889240685E+01 -0.54641570209E+01  0.14556781712E+02  0.51100000000E-03 0. -1.
        -11    1    3    3    0    0  0.59783792891E+00  0.71155297634E+01 -0.22312680494E+01  0.74810915897E+01  0.51100000000E-03 0.  1.
        -12    1    3    3    0    0 -0.35283283565E+02 -0.66320136005E+01 -0.99858757050E+01  0.37264076765E+02  0.00000000000E+00 0.  1.
</event>
<event>
 7    1  0.6593656E-013  0.5930196E+02  0.7816164E-02  0.1266605E+00
        -11   -1    0    0    0    0  0.00000000000E+00  0.00000000000E+00  0.45593999997E+02  0.45594000000E+02  0.51100000000E-03 0.  1.
         11   -1    0    0    0    0 -0.00000000000E+00 -0.00000000000E+00 -0.45593999997E+02  0.45594000000E+02  0.51100000000E-03 0. -1.
    9900012    2    1    2    0    0 -0.11407461924E+02  0.11679880218E+02  0.27389231237E+02  0.59301956388E+02  0.50000022542E+02 0.  0.
         12    1    1    2    0    0  0.11407461924E+02 -0.11679880218E+02 -0.27389231237E+02  0.31886043612E+02  0.00000000000E+00 0. -1.
         11    1    3    3    0    0  0.88312095142E+01  0.89530977040E+01  0.28338115906E+01  0.12891032091E+02  0.51100000000E-03 0. -1.
        -11    1    3    3    0    0  0.84745314734E+01 -0.47187226912E+01  0.66992122786E+01  0.11788276929E+02  0.51100000000E-03 0.  1.
         12    1    3    3    0    0 -0.28713202912E+02  0.74455052054E+01  0.17856207368E+02  0.34622647368E+02  0.00000000000E+00 0. -1.
</event>
<event>
 7    1  0.6593656E-013  0.5930196E+02  0.7816164E-02  0.1266605E+00
        -11   -1    0    0    0    0  0.00000000000E+00  0.00000000000E+00  0.45593999997E+02  0.45594000000E+02  0.51100000000E-03 0.  1.
         11   -1    0    0    0    0 -0.00000000000E+00 -0.00000000000E+00 -0.45593999997E+02  0.45594000000E+02  0.51100000000E-03 0. -1.
    9900012    2    1    2    0    0 -0.19323084808E+02  0.21558192945E+02  0.13363466117E+02  0.59301960481E+02  0.50000030007E+02 0.  0.
         12    1    1    2    0    0  0.19323084808E+02 -0.21558192945E+02 -0.13363466117E+02  0.31886039519E+02  0.00000000000E+00 0. -1.
         11    1    3    3    0    0 -0.16892223336E+02 -0.82545601564E+01  0.14522169532E+01  0.18857197749E+02  0.51100000000E-03 0. -1.
        -11    1    3    3    0    0 -0.11876478322E+02  0.14137750639E+02  0.12219096521E+02  0.22141207070E+02  0.51100000000E-03 0.  1.
         12    1    3    3    0    0  0.94456168504E+01  0.15675002462E+02 -0.30784735751E+00  0.18303555662E+02  0.00000000000E+00 0. -1.
</event>
<event>
 7    1  0.6593656E-013  0.5930197E+02  0.7816164E-02  0.1266605E+00
        -11   -1    0    0    0    0  0.00000000000E+00  0.00000000000E+00  0.45593999997E+02  0.45594000000E+02  0.51100000000E-03 0.  1.
         11   -1    0    0    0    0 -0.00000000000E+00 -0.00000000000E+00 -0.45593999997E+02  0.45594000000E+02  0.51100000000E-03 0. -1.
    9900012    2    1    2    0    0 -0.67022861428E+01  0.28385953523E+02  0.12885482775E+02  0.59301973856E+02  0.50000054399E+02 0.  0.
         12    1    1    2    0    0  0.67022861428E+01 -0.28385953523E+02 -0.12885482775E+02  0.31886026144E+02  0.00000000000E+00 0. -1.
         11    1    3    3    0    0 -0.10372887479E+02  0.27945888861E+02  0.74102527201E+01  0.30716141433E+02  0.51100000000E-03 0. -1.
        -11    1    3    3    0    0  0.13232924746E+02  0.80470839849E+01  0.52876391803E+01  0.16365359341E+02  0.51100000000E-03 0.  1.
         12    1    3    3    0    0 -0.95623234106E+01 -0.76070193234E+01  0.18759087452E+00  0.12220473081E+02  0.00000000000E+00 0. -1.
</event>
<event>
 7    1  0.6593656E-013  0.5930194E+02  0.7816164E-02  0.1266605E+00
        -11   -1    0    0    0    0  0.00000000000E+00  0.00000000000E+00  0.45593999997E+02  0.45594000000E+02  0.51100000000E-03 0.  1.
         11   -1    0    0    0    0 -0.00000000000E+00 -0.00000000000E+00 -0.45593999997E+02  0.45594000000E+02  0.51100000000E-03 0. -1.
    9900012    2    1    2    0    0 -0.31531835030E+02 -0.31062637052E+00 -0.47294288413E+01  0.59301943388E+02  0.49999998833E+02 0.  0.
         12    1    1    2    0    0  0.31531835030E+02  0.31062637052E+00  0.47294288413E+01  0.31886056612E+02  0.00000000000E+00 0. -1.
         11    1    3    3    0    0 -0.19774159965E+02 -0.54142693554E+00 -0.18954706802E+01  0.19872175392E+02  0.51100000000E-03 0. -1.
        -11    1    3    3    0    0 -0.15640443667E+02 -0.13781165248E+02  0.68704438067E+01  0.21948735546E+02  0.51100000000E-03 0.  1.
        -12    1    3    3    0    0  0.38827686013E+01  0.14011965814E+02 -0.97044019678E+01  0.17481032450E+02  0.00000000000E+00 0.  1.
</event>
<event>
 7    1  0.6593656E-013  0.5930214E+02  0.7816164E-02  0.1266604E+00
        -11   -1    0    0    0    0  0.00000000000E+00  0.00000000000E+00  0.45593999997E+02  0.45594000000E+02  0.51100000000E-03 0. -1.
         11   -1    0    0    0    0 -0.00000000000E+00 -0.00000000000E+00 -0.45593999997E+02  0.45594000000E+02  0.51100000000E-03 0.  1.
    9900012    2    1    2    0    0 -0.30809775946E+02 -0.58661441594E+01 -0.57492908148E+01  0.59302136581E+02  0.50000351169E+02 0.  0.
         12    1    1    2    0    0  0.30809775946E+02  0.58661441594E+01  0.57492908148E+01  0.31885863419E+02  0.00000000000E+00 0. -1.
         11    1    3    3    0    0 -0.12343074065E+02 -0.45832295225E+01  0.38197720289E+01  0.13709417523E+02  0.51100000000E-03 0. -1.
        -11    1    3    3    0    0 -0.97592601937E+01  0.14386817765E+02  0.91742347852E+01  0.19656812282E+02  0.51100000000E-03 0.  1.
         12    1    3    3    0    0 -0.87074416874E+01 -0.15669732401E+02 -0.18743297629E+02  0.25935906776E+02  0.00000000000E+00 0. -1.
</event>
<event>
 7    1  0.6593656E-013  0.5930199E+02  0.7816164E-02  0.1266605E+00
        -11   -1    0    0    0    0  0.00000000000E+00  0.00000000000E+00  0.45593999997E+02  0.45594000000E+02  0.51100000000E-03 0.  1.
         11   -1    0    0    0    0 -0.00000000000E+00 -0.00000000000E+00 -0.45593999997E+02  0.45594000000E+02  0.51100000000E-03 0. -1.
    9900012    2    1    2    0    0 -0.12570258105E+02  0.20049225264E+02  0.21371361587E+02  0.59301985533E+02  0.50000075696E+02 0.  0.
         12    1    1    2    0    0  0.12570258105E+02 -0.20049225264E+02 -0.21371361587E+02  0.31886014467E+02  0.00000000000E+00 0. -1.
         11    1    3    3    0    0 -0.62378641059E+01 -0.78107825693E+01  0.47627120683E+00  0.10007302707E+02  0.51100000000E-03 0. -1.
        -11    1    3    3    0    0 -0.23222822560E+01 -0.51035248839E+01 -0.47417556436E+01  0.73432423330E+01  0.51100000000E-03 0.  1.
        -12    1    3    3    0    0 -0.40101117435E+01  0.32963532717E+02  0.25636846024E+02  0.41951440493E+02  0.00000000000E+00 0.  1.
</event>
<event>
 7    1  0.6593656E-013  0.5930196E+02  0.7816164E-02  0.1266605E+00
        -11   -1    0    0    0    0  0.00000000000E+00  0.00000000000E+00  0.45593999997E+02  0.45594000000E+02  0.51100000000E-03 0.  1.
         11   -1    0    0    0    0 -0.00000000000E+00 -0.00000000000E+00 -0.45593999997E+02  0.45594000000E+02  0.51100000000E-03 0. -1.
    9900012    2    1    2    0    0 -0.13933573610E+02 -0.19983307965E+02  0.20572857239E+02  0.59301960331E+02  0.50000029734E+02 0.  0.
         12    1    1    2    0    0  0.13933573610E+02  0.19983307965E+02 -0.20572857239E+02  0.31886039669E+02  0.00000000000E+00 0. -1.
         11    1    3    3    0    0  0.12934132011E+01  0.64767555513E+00  0.22229266065E+01  0.26521320277E+01  0.51100000000E-03 0. -1.
        -11    1    3    3    0    0 -0.26469584827E+01  0.15095479416E+02  0.22361841281E+01  0.15488073080E+02  0.51100000000E-03 0.  1.
        -12    1    3    3    0    0 -0.12580028328E+02 -0.35726462937E+02  0.16113746504E+02  0.41161755224E+02  0.00000000000E+00 0.  1.
</event>
<event>
 7    1  0.6593656E-013  0.5930195E+02  0.7816164E-02  0.1266605E+00
        -11   -1    0    0    0    0  0.00000000000E+00  0.00000000000E+00  0.45593999997E+02  0.45594000000E+02  0.51100000000E-03 0. -1.
         11   -1    0    0    0    0 -0.00000000000E+00 -0.00000000000E+00 -0.45593999997E+02  0.45594000000E+02  0.51100000000E-03 0.  1.
    9900012    2    1    2    0    0  0.23605496872E+02  0.11619788863E+02 -0.18013358778E+02  0.59301951793E+02  0.50000014162E+02 0.  0.
         12    1    1    2    0    0 -0.23605496872E+02 -0.11619788863E+02  0.18013358778E+02  0.31886048207E+02  0.00000000000E+00 0. -1.
         11    1    3    3    0    0  0.14628029500E+02  0.32800685872E+01  0.15726358940E+01  0.15073529145E+02  0.51100000000E-03 0. -1.
        -11    1    3    3    0    0  0.23643830737E+02  0.63624231047E+01 -0.15090317122E+02  0.28761586027E+02  0.51100000000E-03 0.  1.
         12    1    3    3    0    0 -0.14666363364E+02  0.19772971712E+01 -0.44956775499E+01  0.15466836621E+02  0.00000000000E+00 0. -1.
</event>
<event>
 7    1  0.6593656E-013  0.5930195E+02  0.7816164E-02  0.1266605E+00
        -11   -1    0    0    0    0  0.00000000000E+00  0.00000000000E+00  0.45593999997E+02  0.45594000000E+02  0.51100000000E-03 0. -1.
         11   -1    0    0    0    0 -0.00000000000E+00 -0.00000000000E+00 -0.45593999997E+02  0.45594000000E+02  0.51100000000E-03 0.  1.
    9900012    2    1    2    0    0  0.43498567683E+01 -0.30948917880E+02  0.63216410945E+01  0.59301954181E+02  0.50000018517E+02 0.  0.
         12    1    1    2    0    0 -0.43498567683E+01  0.30948917880E+02 -0.63216410945E+01  0.31886045819E+02  0.00000000000E+00 0. -1.
         11    1    3    3    0    0 -0.12640644212E+00 -0.18437675552E+02  0.21313511572E+02  0.28182080017E+02  0.51100000000E-03 0. -1.
        -11    1    3    3    0    0 -0.64040952977E+01  0.27894528120E+01  0.17016726099E+00  0.69873056846E+01  0.51100000000E-03 0.  1.
         12    1    3    3    0    0  0.10880358508E+02 -0.15300695140E+02 -0.15162037738E+02  0.24132568479E+02  0.00000000000E+00 0. -1.
</event>
<event>
 7    1  0.6593656E-013  0.5930194E+02  0.7816164E-02  0.1266605E+00
        -11   -1    0    0    0    0  0.00000000000E+00  0.00000000000E+00  0.45593999997E+02  0.45594000000E+02  0.51100000000E-03 0.  1.
         11   -1    0    0    0    0 -0.00000000000E+00 -0.00000000000E+00 -0.45593999997E+02  0.45594000000E+02  0.51100000000E-03 0. -1.
    9900012    2    1    2    0    0  0.23390269583E+02 -0.11002367599E+02  0.18669873232E+02  0.59301937677E+02  0.49999988418E+02 0.  0.
         12    1    1    2    0    0 -0.23390269583E+02  0.11002367599E+02 -0.18669873232E+02  0.31886062323E+02  0.00000000000E+00 0. -1.
         11    1    3    3    0    0 -0.17855582629E+01  0.11092454923E+02 -0.71193630828E+00  0.11257780780E+02  0.51100000000E-03 0. -1.
        -11    1    3    3    0    0  0.59768295062E+01 -0.39587059050E+01 -0.74889255316E+01  0.10367152419E+02  0.51100000000E-03 0.  1.
        -12    1    3    3    0    0  0.19198998339E+02 -0.18136116617E+02  0.26870735072E+02  0.37677004479E+02  0.00000000000E+00 0.  1.
</event>
<event>
 7    1  0.6593656E-013  0.5930196E+02  0.7816164E-02  0.1266605E+00
        -11   -1    0    0    0    0  0.00000000000E+00  0.00000000000E+00  0.45593999997E+02  0.45594000000E+02  0.51100000000E-03 0. -1.
         11   -1    0    0    0    0 -0.00000000000E+00 -0.00000000000E+00 -0.45593999997E+02  0.45594000000E+02  0.51100000000E-03 0.  1.
    9900012    2    1    2    0    0 -0.19555461792E+02  0.50198393832E+01 -0.24680051107E+02  0.59301956094E+02  0.50000022007E+02 0.  0.
         12    1    1    2    0    0  0.19555461792E+02 -0.50198393832E+01  0.24680051107E+02  0.31886043906E+02  0.00000000000E+00 0. -1.
         11    1    3    3    0    0 -0.13741843754E+02 -0.51905880837E+01  0.87101417644E+01  0.17077676781E+02  0.51100000000E-03 0. -1.
        -11    1    3    3    0    0 -0.36035939000E+01 -0.16692144741E+01  0.22686614246E+01  0.45737283345E+01  0.51100000000E-03 0.  1.
        -12    1    3    3    0    0 -0.22100241377E+01  0.11879641941E+02 -0.35658854296E+02  0.37650550979E+02  0.00000000000E+00 0.  1.
</event>
<event>
 7    1  0.6593656E-013  0.5930202E+02  0.7816164E-02  0.1266604E+00
        -11   -1    0    0    0    0  0.00000000000E+00  0.00000000000E+00  0.45593999997E+02  0.45594000000E+02  0.51100000000E-03 0. -1.
         11   -1    0    0    0    0 -0.00000000000E+00 -0.00000000000E+00 -0.45593999997E+02  0.45594000000E+02  0.51100000000E-03 0.  1.
    9900012    2    1    2    0    0 -0.15073495205E+02 -0.19134283821E+02 -0.20576307247E+02  0.59302023538E+02  0.50000145007E+02 0.  0.
         12    1    1    2    0    0  0.15073495205E+02  0.19134283821E+02  0.20576307247E+02  0.31885976462E+02  0.00000000000E+00 0. -1.
         11    1    3    3    0    0  0.38260629184E+01 -0.13990573000E+02 -0.11355963094E+02  0.18420987714E+02  0.51100000000E-03 0. -1.
        -11    1    3    3    0    0 -0.30915704277E+01  0.11574285180E+02 -0.12872384353E+02  0.17584657072E+02  0.51100000000E-03 0.  1.
         12    1    3    3    0    0 -0.15807987696E+02 -0.16717996002E+02  0.36520402002E+01  0.23296378752E+02  0.00000000000E+00 0. -1.
</event>
<event>
 7    1  0.6593656E-013  0.5930231E+02  0.7816164E-02  0.1266603E+00
        -11   -1    0    0    0    0  0.00000000000E+00  0.00000000000E+00  0.45593999997E+02  0.45594000000E+02  0.51100000000E-03 0. -1.
         11   -1    0    0    0    0 -0.00000000000E+00 -0.00000000000E+00 -0.45593999997E+02  0.45594000000E+02  0.51100000000E-03 0.  1.
    9900012    2    1    2    0    0  0.19660935003E+02  0.11617560733E+02 -0.22252578624E+02  0.59302308256E+02  0.50000664260E+02 0.  0.
         12    1    1    2    0    0 -0.19660935003E+02 -0.11617560733E+02  0.22252578624E+02  0.31885691744E+02  0.00000000000E+00 0. -1.
         11    1    3    3    0    0 -0.25875856565E+01 -0.83708673761E+01  0.82516102597E+01  0.12035617653E+02  0.51100000000E-03 0. -1.
        -11    1    3    3    0    0  0.47617516705E+01 -0.35024832005E+01 -0.96451956147E+01  0.11312447403E+02  0.51100000000E-03 0.  1.
         12    1    3    3    0    0  0.17486768989E+02  0.23490911310E+02 -0.20858993269E+02  0.35954243199E+02  0.00000000000E+00 0. -1.
</event>
<event>
 7    1  0.6593656E-013  0.5930194E+02  0.7816164E-02  0.1266605E+00
        -11   -1    0    0    0    0  0.00000000000E+00  0.00000000000E+00  0.45593999997E+02  0.45594000000E+02  0.51100000000E-03 0.  1.
         11   -1    0    0    0    0 -0.00000000000E+00 -0.00000000000E+00 -0.45593999997E+02  0.45594000000E+02  0.51100000000E-03 0. -1.
    9900012    2    1    2    0    0 -0.27507146393E+02 -0.12261437441E+02  0.10475431197E+02  0.59301943336E+02  0.49999998739E+02 0.  0.
         12    1    1    2    0    0  0.27507146393E+02  0.12261437441E+02 -0.10475431197E+02  0.31886056664E+02  0.00000000000E+00 0. -1.
         11    1    3    3    0    0  0.48860541099E+01 -0.19818912147E+02  0.21483695538E+01  0.20525065054E+02  0.51100000000E-03 0. -1.
        -11    1    3    3    0    0 -0.39098784668E+00 -0.26666795425E+01 -0.22970861767E+01  0.35412789276E+01  0.51100000000E-03 0.  1.
        -12    1    3    3    0    0 -0.32002212656E+02  0.10224154249E+02  0.10624147820E+02  0.35235599355E+02  0.00000000000E+00 0.  1.
</event>
<event>
 7    1  0.6593656E-013  0.5930195E+02  0.7816164E-02  0.1266605E+00
        -11   -1    0    0    0    0  0.00000000000E+00  0.00000000000E+00  0.45593999997E+02  0.45594000000E+02  0.51100000000E-03 0. -1.
         11   -1    0    0    0    0 -0.00000000000E+00 -0.00000000000E+00 -0.45593999997E+02  0.45594000000E+02  0.51100000000E-03 0.  1.
    9900012    2    1    2    0    0  0.27968662049E+02 -0.10854032588E+02  0.10801126724E+02  0.59301946329E+02  0.50000004197E+02 0.  0.
         12    1    1    2    0    0 -0.27968662049E+02  0.10854032588E+02 -0.10801126724E+02  0.31886053671E+02  0.00000000000E+00 0. -1.
         11    1    3    3    0    0  0.24785552874E+02 -0.11425211131E+02 -0.33989379424E+01  0.27502942753E+02  0.51100000000E-03 0.  1.
        -11    1    3    3    0    0  0.13729652324E+02 -0.65966125395E+01  0.10571076342E+02  0.18540935932E+02  0.51100000000E-03 0. -1.
         12    1    3    3    0    0 -0.10546543150E+02  0.71677910820E+01  0.36289883246E+01  0.13258067644E+02  0.00000000000E+00 0. -1.
</event>
<event>
 7    1  0.6593656E-013  0.5930195E+02  0.7816164E-02  0.1266605E+00
        -11   -1    0    0    0    0  0.00000000000E+00  0.00000000000E+00  0.45593999997E+02  0.45594000000E+02  0.51100000000E-03 0.  1.
         11   -1    0    0    0    0 -0.00000000000E+00 -0.00000000000E+00 -0.45593999997E+02  0.45594000000E+02  0.51100000000E-03 0. -1.
    9900012    2    1    2    0    0 -0.13860755132E+02  0.21901640016E+02  0.18571966785E+02  0.59301947901E+02  0.50000007063E+02 0.  0.
         12    1    1    2    0    0  0.13860755132E+02 -0.21901640016E+02 -0.18571966785E+02  0.31886052099E+02  0.00000000000E+00 0. -1.
         11    1    3    3    0    0 -0.26455310325E+02  0.12135834397E+02  0.17882027122E+02  0.34160339799E+02  0.51100000000E-03 0. -1.
        -11    1    3    3    0    0 -0.28619165706E+01  0.59211239569E+01  0.54248853314E+01  0.85252364478E+01  0.51100000000E-03 0.  1.
         12    1    3    3    0    0  0.15456471764E+02  0.38446816617E+01 -0.47349456687E+01  0.16616371654E+02  0.00000000000E+00 0. -1.
</event>
<event>
 7    1  0.6593656E-013  0.5930190E+02  0.7816164E-02  0.1266605E+00
        -11   -1    0    0    0    0  0.00000000000E+00  0.00000000000E+00  0.45593999997E+02  0.45594000000E+02  0.51100000000E-03 0.  1.
         11   -1    0    0    0    0 -0.00000000000E+00 -0.00000000000E+00 -0.45593999997E+02  0.45594000000E+02  0.51100000000E-03 0. -1.
    9900012    2    1    2    0    0 -0.82822139641E+01 -0.11167005791E+02  0.28695409502E+02  0.59301896240E+02  0.49999912847E+02 0.  0.
         12    1    1    2    0    0  0.82822139641E+01  0.11167005791E+02 -0.28695409502E+02  0.31886103760E+02  0.00000000000E+00 0. -1.
         11    1    3    3    0    0  0.11173054177E+02  0.79470864508E+01 -0.14961433394E+01  0.13792453294E+02  0.51100000000E-03 0. -1.
        -11    1    3    3    0    0 -0.18215805288E+02 -0.63394770189E+01  0.10378182630E+02  0.21902310520E+02  0.51100000000E-03 0.  1.
        -12    1    3    3    0    0 -0.12394628536E+01 -0.12774615222E+02  0.19813370212E+02  0.23607132427E+02  0.00000000000E+00 0.  1.
</event>
<event>
 7    1  0.6593656E-013  0.5930194E+02  0.7816164E-02  0.1266605E+00
        -11   -1    0    0    0    0  0.00000000000E+00  0.00000000000E+00  0.45593999997E+02  0.45594000000E+02  0.51100000000E-03 0.  1.
         11   -1    0    0    0    0 -0.00000000000E+00 -0.00000000000E+00 -0.45593999997E+02  0.45594000000E+02  0.51100000000E-03 0. -1.
    9900012    2    1    2    0    0 -0.13306767689E+02  0.21359506827E+02  0.19581171976E+02  0.59301938873E+02  0.49999990600E+02 0.  0.
         12    1    1    2    0    0  0.13306767689E+02 -0.21359506827E+02 -0.19581171976E+02  0.31886061127E+02  0.00000000000E+00 0. -1.
         11    1    3    3    0    0 -0.67606389705E+01  0.11890659153E+02 -0.15228496949E+02  0.20469517189E+02  0.51100000000E-03 0. -1.
        -11    1    3    3    0    0  0.20822687612E+01 -0.19600088753E+01  0.67189110701E+01  0.73021397011E+01  0.51100000000E-03 0.  1.
        -12    1    3    3    0    0 -0.86283974801E+01  0.11428856549E+02  0.28090757855E+02  0.31530281983E+02  0.00000000000E+00 0.  1.
</event>
<event>
 7    1  0.6593656E-013  0.5930194E+02  0.7816164E-02  0.1266605E+00
        -11   -1    0    0    0    0  0.00000000000E+00  0.00000000000E+00  0.45593999997E+02  0.45594000000E+02  0.51100000000E-03 0.  1.
         11   -1    0    0    0    0 -0.00000000000E+00 -0.00000000000E+00 -0.45593999997E+02  0.45594000000E+02  0.51100000000E-03 0. -1.
    9900012    2    1    2    0    0 -0.21654253293E+02 -0.16346119876E+02  0.16751668091E+02  0.59301941847E+02  0.49999996024E+02 0.  0.
         12    1    1    2    0    0  0.21654253293E+02  0.16346119876E+02 -0.16751668091E+02  0.31886058153E+02  0.00000000000E+00 0. -1.
         11    1    3    3    0    0 -0.92422316115E+01 -0.87206810045E+01  0.27974425578E+02  0.30725195020E+02  0.51100000000E-03 0. -1.
        -11    1    3    3    0    0 -0.11634703590E+01 -0.28337842356E+01  0.64189016735E+01  0.71124043281E+01  0.51100000000E-03 0.  1.
         12    1    3    3    0    0 -0.11248551322E+02 -0.47916546360E+01 -0.17641659160E+02  0.21464342499E+02  0.00000000000E+00 0. -1.
</event>
<event>
 7    1  0.6593656E-013  0.5930195E+02  0.7816164E-02  0.1266605E+00
        -11   -1    0    0    0    0  0.00000000000E+00  0.00000000000E+00  0.45593999997E+02  0.45594000000E+02  0.51100000000E-03 0.  1.
         11   -1    0    0    0    0 -0.00000000000E+00 -0.00000000000E+00 -0.45593999997E+02  0.45594000000E+02  0.51100000000E-03 0. -1.
    9900012    2    1    2    0    0 -0.83434896182E+01  0.21536423511E+02  0.21983825976E+02  0.59301953503E+02  0.50000017281E+02 0.  0.
         12    1    1    2    0    0  0.83434896182E+01 -0.21536423511E+02 -0.21983825976E+02  0.31886046497E+02  0.00000000000E+00 0. -1.
         11    1    3    3    0    0 -0.12187253182E+02  0.11032816948E+01 -0.32524652853E+01  0.12661946979E+02  0.51100000000E-03 0. -1.
        -11    1    3    3    0    0 -0.14356766439E+02  0.92165857612E+01  0.66485311452E+01  0.18310247467E+02  0.51100000000E-03 0.  1.
        -12    1    3    3    0    0  0.18200530002E+02  0.11216556055E+02  0.18587760116E+02  0.28329759057E+02  0.00000000000E+00 0.  1.
</event>
<event>
 7    1  0.6593656E-013  0.5930195E+02  0.7816164E-02  0.1266605E+00
        -11   -1    0    0    0    0  0.00000000000E+00  0.00000000000E+00  0.45593999997E+02  0.45594000000E+02  0.51100000000E-03 0.  1.
         11   -1    0    0    0    0 -0.00000000000E+00 -0.00000000000E+00 -0.45593999997E+02  0.45594000000E+02  0.51100000000E-03 0. -1.
    9900012    2    1    2    0    0  0.62861665407E+01 -0.13567664275E+02  0.28162439364E+02  0.59301946707E+02  0.50000004887E+02 0.  0.
         12    1    1    2    0    0 -0.62861665407E+01  0.13567664275E+02 -0.28162439364E+02  0.31886053293E+02  0.00000000000E+00 0. -1.
         11    1    3    3    0    0  0.28012860371E+01 -0.11379025858E+02  0.13397842758E+02  0.17799764711E+02  0.51100000000E-03 0. -1.
        -11    1    3    3    0    0  0.83922054563E+01 -0.85977825408E+00  0.26981521654E+02  0.28269609868E+02  0.51100000000E-03 0.  1.
         12    1    3    3    0    0 -0.49073249528E+01 -0.13288601626E+01 -0.12216925047E+02  0.13232572129E+02  0.00000000000E+00 0. -1.
</event>
<event>
 7    1  0.6593656E-013  0.5930198E+02  0.7816164E-02  0.1266605E+00
        -11   -1    0    0    0    0  0.00000000000E+00  0.00000000000E+00  0.45593999997E+02  0.45594000000E+02  0.51100000000E-03 0.  1.
         11   -1    0    0    0    0 -0.00000000000E+00 -0.00000000000E+00 -0.45593999997E+02  0.45594000000E+02  0.51100000000E-03 0. -1.
    9900012    2    1    2    0    0  0.79746901255E+01  0.57883544378E+01  0.30325200741E+02  0.59301975951E+02  0.50000058220E+02 0.  0.
         12    1    1    2    0    0 -0.79746901255E+01 -0.57883544378E+01 -0.30325200741E+02  0.31886024049E+02  0.00000000000E+00 0. -1.
         11    1    3    3    0    0 -0.65434908587E+01 -0.62107019890E+01 -0.75066897840E+00  0.90528225427E+01  0.51100000000E-03 0.  1.
        -11    1    3    3    0    0 -0.28489861748E+01 -0.38815051372E+01 -0.51501866458E+01  0.70503352475E+01  0.51100000000E-03 0. -1.
        -12    1    3    3    0    0  0.17367167159E+02  0.15880561564E+02  0.36226056365E+02  0.43198818161E+02  0.00000000000E+00 0.  1.
</event>
<event>
 7    1  0.6593656E-013  0.5930191E+02  0.7816164E-02  0.1266605E+00
        -11   -1    0    0    0    0  0.00000000000E+00  0.00000000000E+00  0.45593999997E+02  0.45594000000E+02  0.51100000000E-03 0.  1.
         11   -1    0    0    0    0 -0.00000000000E+00 -0.00000000000E+00 -0.45593999997E+02  0.45594000000E+02  0.51100000000E-03 0. -1.
    9900012    2    1    2    0    0  0.24807624823E+02 -0.16765037987E+02  0.10965301690E+02  0.59301912293E+02  0.49999942124E+02 0.  0.
         12    1    1    2    0    0 -0.24807624823E+02  0.16765037987E+02 -0.10965301690E+02  0.31886087707E+02  0.00000000000E+00 0. -1.
         11    1    3    3    0    0  0.15558340366E+02 -0.13788666417E+01 -0.18745167710E+01  0.15731403038E+02  0.51100000000E-03 0. -1.
        -11    1    3    3    0    0  0.22486073026E+02 -0.16855467044E+02  0.10756785603E+02  0.30090508240E+02  0.51100000000E-03 0.  1.
         12    1    3    3    0    0 -0.13236788569E+02  0.14692956982E+01  0.20830328587E+01  0.13480001015E+02  0.00000000000E+00 0. -1.
</event>
<event>
 7    1  0.6593656E-013  0.5930194E+02  0.7816164E-02  0.1266605E+00
        -11   -1    0    0    0    0  0.00000000000E+00  0.00000000000E+00  0.45593999997E+02  0.45594000000E+02  0.51100000000E-03 0. -1.
         11   -1    0    0    0    0 -0.00000000000E+00 -0.00000000000E+00 -0.45593999997E+02  0.45594000000E+02  0.51100000000E-03 0.  1.
    9900012    2    1    2    0    0 -0.25335511459E+02 -0.17408502750E+02  0.84721035799E+01  0.59301942735E+02  0.49999997642E+02 0.  0.
         12    1    1    2    0    0  0.25335511459E+02  0.17408502750E+02 -0.84721035799E+01  0.31886057265E+02  0.00000000000E+00 0. -1.
         11    1    3    3    0    0 -0.19849864565E+02 -0.25401091583E+01  0.39591205477E+01  0.20399605721E+02  0.51100000000E-03 0. -1.
        -11    1    3    3    0    0  0.71307961067E+01  0.16915149319E+01 -0.10804871487E+02  0.13055831034E+02  0.51100000000E-03 0.  1.
         12    1    3    3    0    0 -0.12616443000E+02 -0.16559908523E+02  0.15317854519E+02  0.25846505979E+02  0.00000000000E+00 0. -1.
</event>
<event>
 7    1  0.6593656E-013  0.5930195E+02  0.7816164E-02  0.1266605E+00
        -11   -1    0    0    0    0  0.00000000000E+00  0.00000000000E+00  0.45593999997E+02  0.45594000000E+02  0.51100000000E-03 0.  1.
         11   -1    0    0    0    0 -0.00000000000E+00 -0.00000000000E+00 -0.45593999997E+02  0.45594000000E+02  0.51100000000E-03 0. -1.
    9900012    2    1    2    0    0 -0.53823492669E+01  0.27123730645E+02 -0.15876199076E+02  0.59301950624E+02  0.50000012030E+02 0.  0.
         12    1    1    2    0    0  0.53823492669E+01 -0.27123730645E+02  0.15876199076E+02  0.31886049376E+02  0.00000000000E+00 0. -1.
         11    1    3    3    0    0 -0.72067014079E+01  0.13826039225E+02 -0.24818410162E+01  0.15787825718E+02  0.51100000000E-03 0.  1.
        -11    1    3    3    0    0  0.54054032206E+01 -0.97091845048E+01 -0.16635556274E+02  0.20005708699E+02  0.51100000000E-03 0. -1.
         12    1    3    3    0    0 -0.35810510797E+01  0.23006875925E+02  0.32411982147E+01  0.23508416206E+02  0.00000000000E+00 0. -1.
</event>
<event>
 7    1  0.6593656E-013  0.5930194E+02  0.7816164E-02  0.1266605E+00
        -11   -1    0    0    0    0  0.00000000000E+00  0.00000000000E+00  0.45593999997E+02  0.45594000000E+02  0.51100000000E-03 0. -1.
         11   -1    0    0    0    0 -0.00000000000E+00 -0.00000000000E+00 -0.45593999997E+02  0.45594000000E+02  0.51100000000E-03 0.  1.
    9900012    2    1    2    0    0 -0.78114489554E+01  0.16287823080E+02 -0.26275632128E+02  0.59301940990E+02  0.49999994460E+02 0.  0.
         12    1    1    2    0    0  0.78114489554E+01 -0.16287823080E+02  0.26275632128E+02  0.31886059010E+02  0.00000000000E+00 0. -1.
         11    1    3    3    0    0 -0.18490658703E+02 -0.63381979392E+00 -0.77230757445E+00  0.18517630681E+02  0.51100000000E-03 0. -1.
        -11    1    3    3    0    0 -0.74998678655E+01  0.60193521257E+01 -0.35065529166E+01  0.10236040818E+02  0.51100000000E-03 0.  1.
        -12    1    3    3    0    0  0.18179077613E+02  0.10902290748E+02 -0.21996771637E+02  0.30548269491E+02  0.00000000000E+00 0.  1.
</event>
<event>
 7    1  0.6593656E-013  0.5930192E+02  0.7816164E-02  0.1266605E+00
        -11   -1    0    0    0    0  0.00000000000E+00  0.00000000000E+00  0.45593999997E+02  0.45594000000E+02  0.51100000000E-03 0.  1.
         11   -1    0    0    0    0 -0.00000000000E+00 -0.00000000000E+00 -0.45593999997E+02  0.45594000000E+02  0.51100000000E-03 0. -1.
    9900012    2    1    2    0    0 -0.22578967001E+02 -0.34602692517E+01 -0.22247222401E+02  0.59301919672E+02  0.49999955581E+02 0.  0.
         12    1    1    2    0    0  0.22578967001E+02  0.34602692517E+01  0.22247222401E+02  0.31886080328E+02  0.00000000000E+00 0. -1.
         11    1    3    3    0    0 -0.16585770203E+02  0.96251869712E+01 -0.82117698383E+01  0.20860612685E+02  0.51100000000E-03 0. -1.
        -11    1    3    3    0    0  0.61814282935E+01  0.87828470003E+01 -0.47841182268E+01  0.11757391065E+02  0.51100000000E-03 0.  1.
         12    1    3    3    0    0 -0.12174625091E+02 -0.21868303223E+02 -0.92513343359E+01  0.26683915923E+02  0.00000000000E+00 0. -1.
</event>
<event>
 7    1  0.6593656E-013  0.5930194E+02  0.7816164E-02  0.1266605E+00
        -11   -1    0    0    0    0  0.00000000000E+00  0.00000000000E+00  0.45593999997E+02  0.45594000000E+02  0.51100000000E-03 0. -1.
         11   -1    0    0    0    0 -0.00000000000E+00 -0.00000000000E+00 -0.45593999997E+02  0.45594000000E+02  0.51100000000E-03 0.  1.
    9900012    2    1    2    0    0  0.43043101929E+01 -0.24345669396E+02 -0.20136588928E+02  0.59301938496E+02  0.49999989911E+02 0.  0.
         12    1    1    2    0    0 -0.43043101929E+01  0.24345669396E+02  0.20136588928E+02  0.31886061504E+02  0.00000000000E+00 0. -1.
         11    1    3    3    0    0  0.10684452557E+02 -0.64642462437E+00  0.29725134048E+01  0.11109060601E+02  0.51100000000E-03 0. -1.
        -11    1    3    3    0    0  0.10166298993E+02 -0.10751818764E+02  0.25650856521E+01  0.15017819635E+02  0.51100000000E-03 0.  1.
        -12    1    3    3    0    0 -0.16546441357E+02 -0.12947426008E+02 -0.25674187985E+02  0.33175058259E+02  0.00000000000E+00 0.  1.
</event>
<event>
 7    1  0.6593656E-013  0.5930194E+02  0.7816164E-02  0.1266605E+00
        -11   -1    0    0    0    0  0.00000000000E+00  0.00000000000E+00  0.45593999997E+02  0.45594000000E+02  0.51100000000E-03 0. -1.
         11   -1    0    0    0    0 -0.00000000000E+00 -0.00000000000E+00 -0.45593999997E+02  0.45594000000E+02  0.51100000000E-03 0.  1.
    9900012    2    1    2    0    0  0.22472318775E+02 -0.22432448793E+02  0.29156936110E+01  0.59301935031E+02  0.49999983593E+02 0.  0.
         12    1    1    2    0    0 -0.22472318775E+02  0.22432448793E+02 -0.29156936110E+01  0.31886064969E+02  0.00000000000E+00 0. -1.
         11    1    3    3    0    0  0.24795425573E+01 -0.70700363900E+01  0.44646508423E+01  0.87216198756E+01  0.51100000000E-03 0. -1.
        -11    1    3    3    0    0 -0.25069138187E+00 -0.19549724292E+02  0.14556423978E+02  0.24375070161E+02  0.51100000000E-03 0.  1.
         12    1    3    3    0    0  0.20243467599E+02  0.41873118896E+01 -0.16105381210E+02  0.26205244994E+02  0.00000000000E+00 0. -1.
</event>
<event>
 7    1  0.6593656E-013  0.5930198E+02  0.7816164E-02  0.1266605E+00
        -11   -1    0    0    0    0  0.00000000000E+00  0.00000000000E+00  0.45593999997E+02  0.45594000000E+02  0.51100000000E-03 0. -1.
         11   -1    0    0    0    0 -0.00000000000E+00 -0.00000000000E+00 -0.45593999997E+02  0.45594000000E+02  0.51100000000E-03 0.  1.
    9900012    2    1    2    0    0  0.68832231113E+01  0.15802626204E+02 -0.26825674452E+02  0.59301975395E+02  0.50000057206E+02 0.  0.
         12    1    1    2    0    0 -0.68832231113E+01 -0.15802626204E+02  0.26825674452E+02  0.31886024605E+02  0.00000000000E+00 0. -1.
         11    1    3    3    0    0 -0.48301145765E+01  0.40359762141E+01 -0.14291981427E+01  0.64545889424E+01  0.51100000000E-03 0. -1.
        -11    1    3    3    0    0 -0.29630570370E+01 -0.13222378584E+02  0.10805499958E+01  0.13593328915E+02  0.51100000000E-03 0.  1.
        -12    1    3    3    0    0  0.14676394725E+02  0.24989028574E+02 -0.26477026305E+02  0.39254057537E+02  0.00000000000E+00 0.  1.
</event>
<event>
 7    1  0.6593656E-013  0.5930194E+02  0.7816164E-02  0.1266605E+00
        -11   -1    0    0    0    0  0.00000000000E+00  0.00000000000E+00  0.45593999997E+02  0.45594000000E+02  0.51100000000E-03 0.  1.
         11   -1    0    0    0    0 -0.00000000000E+00 -0.00000000000E+00 -0.45593999997E+02  0.45594000000E+02  0.51100000000E-03 0. -1.
    9900012    2    1    2    0    0  0.10023535985E+02 -0.23801573999E+02  0.18701188124E+02  0.59301942926E+02  0.49999997991E+02 0.  0.
         12    1    1    2    0    0 -0.10023535985E+02  0.23801573999E+02 -0.18701188124E+02  0.31886057074E+02  0.00000000000E+00 0. -1.
         11    1    3    3    0    0  0.15923876854E+02 -0.18452890978E+01  0.69876706585E+01  0.17487209251E+02  0.51100000000E-03 0. -1.
        -11    1    3    3    0    0  0.91751330942E+01  0.37345717192E+01  0.28497009444E+00  0.99101615243E+01  0.51100000000E-03 0.  1.
         12    1    3    3    0    0 -0.15075473963E+02 -0.25690856620E+02  0.11428547371E+02  0.31904572150E+02  0.00000000000E+00 0. -1.
</event>
<event>
 7    1  0.6593656E-013  0.5930194E+02  0.7816164E-02  0.1266605E+00
        -11   -1    0    0    0    0  0.00000000000E+00  0.00000000000E+00  0.45593999997E+02  0.45594000000E+02  0.51100000000E-03 0. -1.
         11   -1    0    0    0    0 -0.00000000000E+00 -0.00000000000E+00 -0.45593999997E+02  0.45594000000E+02  0.51100000000E-03 0.  1.
    9900012    2    1    2    0    0 -0.81665154950E+01 -0.23587731298E+02 -0.19840560523E+02  0.59301939018E+02  0.49999990863E+02 0.  0.
         12    1    1    2    0    0  0.81665154950E+01  0.23587731298E+02  0.19840560523E+02  0.31886060982E+02  0.00000000000E+00 0. -1.
         11    1    3    3    0    0 -0.99359689478E+01  0.62562944010E+01 -0.48461328255E+01  0.12702350262E+02  0.51100000000E-03 0. -1.
        -11    1    3    3    0    0  0.63073874559E+01  0.54357392957E+01 -0.10453592708E+01  0.83918516715E+01  0.51100000000E-03 0.  1.
        -12    1    3    3    0    0 -0.45379340031E+01 -0.35279764995E+02 -0.13949068427E+02  0.38207737084E+02  0.00000000000E+00 0.  1.
</event>
<event>
 7    1  0.6593656E-013  0.5930195E+02  0.7816164E-02  0.1266605E+00
        -11   -1    0    0    0    0  0.00000000000E+00  0.00000000000E+00  0.45593999997E+02  0.45594000000E+02  0.51100000000E-03 0. -1.
         11   -1    0    0    0    0 -0.00000000000E+00 -0.00000000000E+00 -0.45593999997E+02  0.45594000000E+02  0.51100000000E-03 0.  1.
    9900012    2    1    2    0    0 -0.57388333253E+01 -0.22844505149E+02 -0.21492201300E+02  0.59301947561E+02  0.50000006444E+02 0.  0.
         12    1    1    2    0    0  0.57388333253E+01  0.22844505149E+02  0.21492201300E+02  0.31886052439E+02  0.00000000000E+00 0. -1.
         11    1    3    3    0    0  0.16172508754E+02 -0.53762666308E+01 -0.70510685378E+01  0.18443748266E+02  0.51100000000E-03 0. -1.
        -11    1    3    3    0    0 -0.18997310679E+01  0.61959813051E+01  0.40727942631E+00  0.64934612693E+01  0.51100000000E-03 0.  1.
        -12    1    3    3    0    0 -0.20011611012E+02 -0.23664219823E+02 -0.14848412188E+02  0.34364738026E+02  0.00000000000E+00 0.  1.
</event>
<event>
 7    1  0.6593656E-013  0.5930200E+02  0.7816164E-02  0.1266605E+00
        -11   -1    0    0    0    0  0.00000000000E+00  0.00000000000E+00  0.45593999997E+02  0.45594000000E+02  0.51100000000E-03 0.  1.
         11   -1    0    0    0    0 -0.00000000000E+00 -0.00000000000E+00 -0.45593999997E+02  0.45594000000E+02  0.51100000000E-03 0. -1.
    9900012    2    1    2    0    0  0.23093593446E+02  0.19841485382E+02  0.94719856640E+01  0.59301998169E+02  0.50000098740E+02 0.  0.
         12    1    1    2    0    0 -0.23093593446E+02 -0.19841485382E+02 -0.94719856640E+01  0.31886001831E+02  0.00000000000E+00 0. -1.
         11    1    3    3    0    0 -0.61485399775E+01  0.17582590389E+02  0.10429393127E+02  0.21347699406E+02  0.51100000000E-03 0. -1.
        -11    1    3    3    0    0  0.40558491529E+01 -0.21819741987E+00  0.96832002340E+01  0.10500566151E+02  0.51100000000E-03 0.  1.
         12    1    3    3    0    0  0.25186284270E+02  0.24770924123E+01 -0.10640607697E+02  0.27453732612E+02  0.00000000000E+00 0. -1.
</event>
<event>
 7    1  0.6593656E-013  0.5930194E+02  0.7816164E-02  0.1266605E+00
        -11   -1    0    0    0    0  0.00000000000E+00  0.00000000000E+00  0.45593999997E+02  0.45594000000E+02  0.51100000000E-03 0.  1.
         11   -1    0    0    0    0 -0.00000000000E+00 -0.00000000000E+00 -0.45593999997E+02  0.45594000000E+02  0.51100000000E-03 0. -1.
    9900012    2    1    2    0    0 -0.64171748538E+01  0.30479751957E+02  0.68209749239E+01  0.59301935467E+02  0.49999984388E+02 0.  0.
         12    1    1    2    0    0  0.64171748538E+01 -0.30479751957E+02 -0.68209749239E+01  0.31886064533E+02  0.00000000000E+00 0. -1.
         11    1    3    3    0    0  0.12109864577E+01  0.62383522176E+01  0.12631106676E+02  0.14139603343E+02  0.51100000000E-03 0. -1.
        -11    1    3    3    0    0  0.95958144945E+01  0.12178063328E+02 -0.15575798433E+02  0.21977042096E+02  0.51100000000E-03 0.  1.
         12    1    3    3    0    0 -0.17223975806E+02  0.12063336411E+02  0.97656666807E+01  0.23185290027E+02  0.00000000000E+00 0. -1.
</event>
<event>
 7    1  0.6593656E-013  0.5930192E+02  0.7816164E-02  0.1266605E+00
        -11   -1    0    0    0    0  0.00000000000E+00  0.00000000000E+00  0.45593999997E+02  0.45594000000E+02  0.51100000000E-03 0.  1.
         11   -1    0    0    0    0 -0.00000000000E+00 -0.00000000000E+00 -0.45593999997E+02  0.45594000000E+02  0.51100000000E-03 0. -1.
    9900012    2    1    2    0    0 -0.61437371717E+01 -0.28473348555E+02 -0.12970941152E+02  0.59301915281E+02  0.49999947573E+02 0.  0.
         12    1    1    2    0    0  0.61437371717E+01  0.28473348555E+02  0.12970941152E+02  0.31886084719E+02  0.00000000000E+00 0. -1.
         11    1    3    3    0    0 -0.14413990911E+02 -0.37405631134E+01 -0.51178410584E+01  0.15746340646E+02  0.51100000000E-03 0. -1.
        -11    1    3    3    0    0  0.32711217626E+01 -0.21994431890E+02  0.10316437372E+02  0.24512938462E+02  0.51100000000E-03 0.  1.
         12    1    3    3    0    0  0.49991319766E+01 -0.27383535513E+01 -0.18169537465E+02  0.19042636173E+02  0.00000000000E+00 0. -1.
</event>
<event>
 7    1  0.6593656E-013  0.5930195E+02  0.7816164E-02  0.1266605E+00
        -11   -1    0    0    0    0  0.00000000000E+00  0.00000000000E+00  0.45593999997E+02  0.45594000000E+02  0.51100000000E-03 0.  1.
         11   -1    0    0    0    0 -0.00000000000E+00 -0.00000000000E+00 -0.45593999997E+02  0.45594000000E+02  0.51100000000E-03 0. -1.
    9900012    2    1    2    0    0 -0.72177634230E+01  0.22671443246E+02  0.21228045352E+02  0.59301947295E+02  0.50000005958E+02 0.  0.
         12    1    1    2    0    0  0.72177634230E+01 -0.22671443246E+02 -0.21228045352E+02  0.31886052705E+02  0.00000000000E+00 0. -1.
         11    1    3    3    0    0  0.10366475843E+02  0.21414349050E+02  0.24116268253E+01  0.23913471325E+02  0.51100000000E-03 0. -1.
        -11    1    3    3    0    0 -0.19763974013E+01  0.98607476813E+01  0.86722417626E+00  0.10094184938E+02  0.51100000000E-03 0.  1.
        -12    1    3    3    0    0 -0.15607841864E+02 -0.86036534855E+01  0.17949194350E+02  0.25294291032E+02  0.00000000000E+00 0.  1.
</event>
<event>
 7    1  0.6593656E-013  0.5930195E+02  0.7816164E-02  0.1266605E+00
        -11   -1    0    0    0    0  0.00000000000E+00  0.00000000000E+00  0.45593999997E+02  0.45594000000E+02  0.51100000000E-03 0. -1.
         11   -1    0    0    0    0 -0.00000000000E+00 -0.00000000000E+00 -0.45593999997E+02  0.45594000000E+02  0.51100000000E-03 0.  1.
    9900012    2    1    2    0    0  0.78038422112E+00  0.51210727728E+01 -0.31462455265E+02  0.59301945413E+02  0.50000002526E+02 0.  0.
         12    1    1    2    0    0 -0.78038422112E+00 -0.51210727728E+01  0.31462455265E+02  0.31886054587E+02  0.00000000000E+00 0. -1.
         11    1    3    3    0    0 -0.17827522227E+02 -0.39208872941E+00  0.25170547599E+01  0.18008604811E+02  0.51100000000E-03 0. -1.
        -11    1    3    3    0    0  0.73054424470E+01  0.57562559125E+01 -0.58764990324E+01  0.11001691352E+02  0.51100000000E-03 0.  1.
        -12    1    3    3    0    0  0.11302464001E+02 -0.24309441031E+00 -0.28103010992E+02  0.30291649249E+02  0.00000000000E+00 0.  1.
</event>
<event>
 7    1  0.6593656E-013  0.5930182E+02  0.7816164E-02  0.1266605E+00
        -11   -1    0    0    0    0  0.00000000000E+00  0.00000000000E+00  0.45593999997E+02  0.45594000000E+02  0.51100000000E-03 0.  1.
         11   -1    0    0    0    0 -0.00000000000E+00 -0.00000000000E+00 -0.45593999997E+02  0.45594000000E+02  0.51100000000E-03 0. -1.
    9900012    2    1    2    0    0 -0.19843770095E+02  0.67202461895E+01  0.24037291599E+02  0.59301822621E+02  0.49999778582E+02 0.  0.
         12    1    1    2    0    0  0.19843770095E+02 -0.67202461895E+01 -0.24037291599E+02  0.31886177379E+02  0.00000000000E+00 0. -1.
         11    1    3    3    0    0 -0.11630828382E+02  0.16393059552E+02 -0.54084211127E+01  0.20814888650E+02  0.51100000000E-03 0. -1.
        -11    1    3    3    0    0  0.28563856609E+01  0.50766470462E+01  0.10748884987E+02  0.12225784760E+02  0.51100000000E-03 0.  1.
         12    1    3    3    0    0 -0.11069327374E+02 -0.14749460409E+02  0.18696827725E+02  0.26261149211E+02  0.00000000000E+00 0. -1.
</event>
<event>
 7    1  0.6593656E-013  0.5930192E+02  0.7816164E-02  0.1266605E+00
        -11   -1    0    0    0    0  0.00000000000E+00  0.00000000000E+00  0.45593999997E+02  0.45594000000E+02  0.51100000000E-03 0.  1.
         11   -1    0    0    0    0 -0.00000000000E+00 -0.00000000000E+00 -0.45593999997E+02  0.45594000000E+02  0.51100000000E-03 0. -1.
    9900012    2    1    2    0    0 -0.27188895807E+02  0.90641621795E+00  0.16633227191E+02  0.59301923221E+02  0.49999962054E+02 0.  0.
         12    1    1    2    0    0  0.27188895807E+02 -0.90641621795E+00 -0.16633227191E+02  0.31886076779E+02  0.00000000000E+00 0. -1.
         11    1    3    3    0    0  0.67186184861E+01  0.11829692298E+01  0.38598552771E+01  0.78382226034E+01  0.51100000000E-03 0. -1.
        -11    1    3    3    0    0 -0.30032349376E+02  0.14885759202E+02  0.46772318892E+01  0.33843822693E+02  0.51100000000E-03 0.  1.
         12    1    3    3    0    0 -0.38751649167E+01 -0.15162312214E+02  0.80961400247E+01  0.17619877925E+02  0.00000000000E+00 0. -1.
</event>
<event>
 7    1  0.6593656E-013  0.5930185E+02  0.7816164E-02  0.1266605E+00
        -11   -1    0    0    0    0  0.00000000000E+00  0.00000000000E+00  0.45593999997E+02  0.45594000000E+02  0.51100000000E-03 0.  1.
         11   -1    0    0    0    0 -0.00000000000E+00 -0.00000000000E+00 -0.45593999997E+02  0.45594000000E+02  0.51100000000E-03 0. -1.
    9900012    2    1    2    0    0  0.30590628079E+02  0.89685073789E+01  0.71110902496E+00  0.59301853684E+02  0.49999835234E+02 0.  0.
         12    1    1    2    0    0 -0.30590628079E+02 -0.89685073789E+01 -0.71110902496E+00  0.31886146316E+02  0.00000000000E+00 0. -1.
         11    1    3    3    0    0 -0.16364974394E+01 -0.22530407044E+01  0.40659853817E+01  0.49281389662E+01  0.51100000000E-03 0. -1.
        -11    1    3    3    0    0  0.80687354566E+00  0.67113142501E+01  0.15879623654E+02  0.17258482886E+02  0.51100000000E-03 0.  1.
         12    1    3    3    0    0  0.31420251972E+02  0.45102338332E+01 -0.19234500011E+02  0.37115231831E+02  0.00000000000E+00 0. -1.
</event>
<event>
 7    1  0.6593656E-013  0.5930196E+02  0.7816164E-02  0.1266605E+00
        -11   -1    0    0    0    0  0.00000000000E+00  0.00000000000E+00  0.45593999997E+02  0.45594000000E+02  0.51100000000E-03 0. -1.
         11   -1    0    0    0    0 -0.00000000000E+00 -0.00000000000E+00 -0.45593999997E+02  0.45594000000E+02  0.51100000000E-03 0.  1.
    9900012    2    1    2    0    0  0.16645253703E+02  0.27165000510E+02  0.13106847904E+01  0.59301958882E+02  0.50000027091E+02 0.  0.
         12    1    1    2    0    0 -0.16645253703E+02 -0.27165000510E+02 -0.13106847904E+01  0.31886041118E+02  0.00000000000E+00 0. -1.
         11    1    3    3    0    0 -0.11170227149E+02  0.10837708075E+01 -0.60378471254E+00  0.11238909643E+02  0.51100000000E-03 0. -1.
        -11    1    3    3    0    0 -0.24082148067E+01 -0.10834698505E+01 -0.60963034130E+01  0.66436677398E+01  0.51100000000E-03 0.  1.
        -12    1    3    3    0    0  0.30223695659E+02  0.27164699553E+02  0.80107729159E+01  0.41419381499E+02  0.00000000000E+00 0.  1.
</event>
<event>
 7    1  0.6593656E-013  0.5930195E+02  0.7816164E-02  0.1266605E+00
        -11   -1    0    0    0    0  0.00000000000E+00  0.00000000000E+00  0.45593999997E+02  0.45594000000E+02  0.51100000000E-03 0. -1.
         11   -1    0    0    0    0 -0.00000000000E+00 -0.00000000000E+00 -0.45593999997E+02  0.45594000000E+02  0.51100000000E-03 0.  1.
    9900012    2    1    2    0    0 -0.29680714297E+02 -0.11546640273E+02  0.15653040023E+01  0.59301954785E+02  0.50000019620E+02 0.  0.
         12    1    1    2    0    0  0.29680714297E+02  0.11546640273E+02 -0.15653040023E+01  0.31886045215E+02  0.00000000000E+00 0. -1.
         11    1    3    3    0    0  0.33502461839E+01  0.32804704615E+01  0.26690793061E+01  0.53953332191E+01  0.51100000000E-03 0. -1.
        -11    1    3    3    0    0 -0.50789681506E+01  0.38910123207E+01  0.15223446505E+02  0.16513304276E+02  0.51100000000E-03 0.  1.
        -12    1    3    3    0    0 -0.27951992331E+02 -0.18718123055E+02 -0.16327221809E+02  0.37393317290E+02  0.00000000000E+00 0.  1.
</event>
<event>
 7    1  0.6593656E-013  0.5930191E+02  0.7816164E-02  0.1266605E+00
        -11   -1    0    0    0    0  0.00000000000E+00  0.00000000000E+00  0.45593999997E+02  0.45594000000E+02  0.51100000000E-03 0.  1.
         11   -1    0    0    0    0 -0.00000000000E+00 -0.00000000000E+00 -0.45593999997E+02  0.45594000000E+02  0.51100000000E-03 0. -1.
    9900012    2    1    2    0    0 -0.25590648587E+02  0.13145812545E+02  0.13748784983E+02  0.59301909442E+02  0.49999936924E+02 0.  0.
         12    1    1    2    0    0  0.25590648587E+02 -0.13145812545E+02 -0.13748784983E+02  0.31886090558E+02  0.00000000000E+00 0. -1.
         11    1    3    3    0    0  0.48978377203E+01  0.16001935114E+02  0.78699780962E+00  0.16753211857E+02  0.51100000000E-03 0. -1.
        -11    1    3    3    0    0  0.38633646875E+01 -0.34225355470E+01  0.51993918101E+01  0.73261867118E+01  0.51100000000E-03 0.  1.
        -12    1    3    3    0    0 -0.34351850994E+02  0.56641297816E+00  0.77623953637E+01  0.35222510873E+02  0.00000000000E+00 0.  1.
</event>
<event>
 7    1  0.6593656E-013  0.5930195E+02  0.7816164E-02  0.1266605E+00
        -11   -1    0    0    0    0  0.00000000000E+00  0.00000000000E+00  0.45593999997E+02  0.45594000000E+02  0.51100000000E-03 0. -1.
         11   -1    0    0    0    0 -0.00000000000E+00 -0.00000000000E+00 -0.45593999997E+02  0.45594000000E+02  0.51100000000E-03 0.  1.
    9900012    2    1    2    0    0 -0.19094596959E+02  0.25428284764E+02  0.23491925682E+01  0.59301952820E+02  0.50000016035E+02 0.  0.
         12    1    1    2    0    0  0.19094596959E+02 -0.25428284764E+02 -0.23491925682E+01  0.31886047180E+02  0.00000000000E+00 0. -1.
         11    1    3    3    0    0 -0.27629733057E+01  0.12366262716E+02  0.22982621252E+00  0.12673251177E+02  0.51100000000E-03 0.  1.
        -11    1    3    3    0    0  0.69618434764E+01  0.84161127272E+01  0.15807974258E+02  0.19214324563E+02  0.51100000000E-03 0. -1.
        -12    1    3    3    0    0 -0.23293467130E+02  0.46459093202E+01 -0.13688607902E+02  0.27414377079E+02  0.00000000000E+00 0.  1.
</event>
<event>
 7    1  0.6593656E-013  0.5930190E+02  0.7816164E-02  0.1266605E+00
        -11   -1    0    0    0    0  0.00000000000E+00  0.00000000000E+00  0.45593999997E+02  0.45594000000E+02  0.51100000000E-03 0. -1.
         11   -1    0    0    0    0 -0.00000000000E+00 -0.00000000000E+00 -0.45593999997E+02  0.45594000000E+02  0.51100000000E-03 0.  1.
    9900012    2    1    2    0    0  0.71849507980E+01  0.14288472551E+02 -0.27585130860E+02  0.59301899417E+02  0.49999918641E+02 0.  0.
         12    1    1    2    0    0 -0.71849507980E+01 -0.14288472551E+02  0.27585130860E+02  0.31886100583E+02  0.00000000000E+00 0. -1.
         11    1    3    3    0    0  0.12048146266E+02 -0.80633713612E-01 -0.13729642623E+01  0.12126391111E+02  0.51100000000E-03 0. -1.
        -11    1    3    3    0    0 -0.60951031204E+00  0.26427864198E+02 -0.17493640229E+02  0.31699068718E+02  0.51100000000E-03 0.  1.
         12    1    3    3    0    0 -0.42536851563E+01 -0.12058757933E+02 -0.87185263681E+01  0.15476439588E+02  0.00000000000E+00 0. -1.
</event>
<event>
 7    1  0.6593656E-013  0.5930200E+02  0.7816164E-02  0.1266605E+00
        -11   -1    0    0    0    0  0.00000000000E+00  0.00000000000E+00  0.45593999997E+02  0.45594000000E+02  0.51100000000E-03 0. -1.
         11   -1    0    0    0    0 -0.00000000000E+00 -0.00000000000E+00 -0.45593999997E+02  0.45594000000E+02  0.51100000000E-03 0.  1.
    9900012    2    1    2    0    0 -0.10938448474E+01  0.22571262208E+02 -0.22495752509E+02  0.59301995937E+02  0.50000094669E+02 0.  0.
         12    1    1    2    0    0  0.10938448474E+01 -0.22571262208E+02  0.22495752509E+02  0.31886004063E+02  0.00000000000E+00 0. -1.
         11    1    3    3    0    0 -0.47580347035E+01  0.58651764009E+01  0.31048615112E+01  0.81657426924E+01  0.51100000000E-03 0. -1.
        -11    1    3    3    0    0  0.10472293044E+02  0.26748541756E+02 -0.26350036240E+02  0.38980479958E+02  0.51100000000E-03 0.  1.
         12    1    3    3    0    0 -0.68081031884E+01 -0.10042455949E+02  0.74942221992E+00  0.12155773286E+02  0.00000000000E+00 0. -1.
</event>
<event>
 7    1  0.6593656E-013  0.5930194E+02  0.7816164E-02  0.1266605E+00
        -11   -1    0    0    0    0  0.00000000000E+00  0.00000000000E+00  0.45593999997E+02  0.45594000000E+02  0.51100000000E-03 0.  1.
         11   -1    0    0    0    0 -0.00000000000E+00 -0.00000000000E+00 -0.45593999997E+02  0.45594000000E+02  0.51100000000E-03 0. -1.
    9900012    2    1    2    0    0 -0.85995375752E+01 -0.22975491030E+02  0.20368978730E+02  0.59301944598E+02  0.50000001041E+02 0.  0.
         12    1    1    2    0    0  0.85995375752E+01  0.22975491030E+02 -0.20368978730E+02  0.31886055402E+02  0.00000000000E+00 0. -1.
         11    1    3    3    0    0 -0.13337378950E+01 -0.57162128650E+01 -0.44174985016E+01  0.73463078865E+01  0.51100000000E-03 0.  1.
        -11    1    3    3    0    0 -0.23726861271E+02 -0.86988133413E+01  0.21357747239E+02  0.33087560603E+02  0.51100000000E-03 0. -1.
         12    1    3    3    0    0  0.16461061590E+02 -0.85604648233E+01  0.34287299932E+01  0.18868076109E+02  0.00000000000E+00 0. -1.
</event>
<event>
 7    1  0.6593656E-013  0.5930172E+02  0.7816164E-02  0.1266606E+00
        -11   -1    0    0    0    0  0.00000000000E+00  0.00000000000E+00  0.45593999997E+02  0.45594000000E+02  0.51100000000E-03 0.  1.
         11   -1    0    0    0    0 -0.00000000000E+00 -0.00000000000E+00 -0.45593999997E+02  0.45594000000E+02  0.51100000000E-03 0. -1.
    9900012    2    1    2    0    0 -0.83082259603E+01 -0.13424135734E+02  0.27703810446E+02  0.59301715299E+02  0.49999582852E+02 0.  0.
         12    1    1    2    0    0  0.83082259603E+01  0.13424135734E+02 -0.27703810446E+02  0.31886284701E+02  0.00000000000E+00 0. -1.
         11    1    3    3    0    0 -0.23754385809E+02 -0.49709428352E+01  0.18494228681E+01  0.24339299148E+02  0.51100000000E-03 0. -1.
        -11    1    3    3    0    0 -0.18095769959E+01  0.99206604337E+00 -0.45366708254E+00  0.21129548081E+01  0.51100000000E-03 0.  1.
        -12    1    3    3    0    0  0.17255736844E+02 -0.94452589417E+01  0.26308054660E+02  0.32849461343E+02  0.00000000000E+00 0.  1.
</event>
<event>
 7    1  0.6593656E-013  0.5930188E+02  0.7816164E-02  0.1266605E+00
        -11   -1    0    0    0    0  0.00000000000E+00  0.00000000000E+00  0.45593999997E+02  0.45594000000E+02  0.51100000000E-03 0.  1.
         11   -1    0    0    0    0 -0.00000000000E+00 -0.00000000000E+00 -0.45593999997E+02  0.45594000000E+02  0.51100000000E-03 0. -1.
    9900012    2    1    2    0    0 -0.92619154218E+00  0.10239897768E+02  0.30182961639E+02  0.59301882168E+02  0.49999887183E+02 0.  0.
         12    1    1    2    0    0  0.92619154218E+00 -0.10239897768E+02 -0.30182961639E+02  0.31886117832E+02  0.00000000000E+00 0. -1.
         11    1    3    3    0    0 -0.21937106335E+02  0.39448589050E+01  0.29473724677E+02  0.36952658804E+02  0.51100000000E-03 0.  1.
        -11    1    3    3    0    0  0.95069891235E+01  0.50241949619E+01 -0.10954920826E-01  0.10752929716E+02  0.51100000000E-03 0. -1.
        -12    1    3    3    0    0  0.11503925669E+02  0.12708439012E+01  0.72019188272E+00  0.11596293648E+02  0.00000000000E+00 0.  1.
</event>
<event>
 7    1  0.6593656E-013  0.5930194E+02  0.7816164E-02  0.1266605E+00
        -11   -1    0    0    0    0  0.00000000000E+00  0.00000000000E+00  0.45593999997E+02  0.45594000000E+02  0.51100000000E-03 0.  1.
         11   -1    0    0    0    0 -0.00000000000E+00 -0.00000000000E+00 -0.45593999997E+02  0.45594000000E+02  0.51100000000E-03 0. -1.
    9900012    2    1    2    0    0  0.43440271485E+00  0.18873181989E+02  0.25696992616E+02  0.59301935118E+02  0.49999983752E+02 0.  0.
         12    1    1    2    0    0 -0.43440271485E+00 -0.18873181989E+02 -0.25696992616E+02  0.31886064882E+02  0.00000000000E+00 0. -1.
         11    1    3    3    0    0 -0.82536804237E+01 -0.10106412205E+01  0.78224274550E+01  0.11416435861E+02  0.51100000000E-03 0. -1.
        -11    1    3    3    0    0 -0.13477562229E+02  0.15694206452E+02  0.30958535692E+01  0.20917387728E+02  0.51100000000E-03 0.  1.
        -12    1    3    3    0    0  0.22165645368E+02  0.41896167582E+01  0.14778711592E+02  0.26968111529E+02  0.00000000000E+00 0.  1.
</event>
<event>
 7    1  0.6593656E-013  0.5930197E+02  0.7816164E-02  0.1266605E+00
        -11   -1    0    0    0    0  0.00000000000E+00  0.00000000000E+00  0.45593999997E+02  0.45594000000E+02  0.51100000000E-03 0.  1.
         11   -1    0    0    0    0 -0.00000000000E+00 -0.00000000000E+00 -0.45593999997E+02  0.45594000000E+02  0.51100000000E-03 0. -1.
    9900012    2    1    2    0    0 -0.57687686878E+01  0.35703039959E+01  0.31155945233E+02  0.59301973497E+02  0.50000053745E+02 0.  0.
         12    1    1    2    0    0  0.57687686878E+01 -0.35703039959E+01 -0.31155945233E+02  0.31886026503E+02  0.00000000000E+00 0. -1.
         11    1    3    3    0    0  0.87595392712E+01 -0.40646756436E+01  0.11315571700E+02  0.14875929534E+02  0.51100000000E-03 0. -1.
        -11    1    3    3    0    0 -0.27163939802E+01  0.20763985672E+02  0.54328382358E+01  0.21634177331E+02  0.51100000000E-03 0.  1.
         12    1    3    3    0    0 -0.11811913979E+02 -0.13129006032E+02  0.14407535297E+02  0.22791866632E+02  0.00000000000E+00 0. -1.
</event>
<event>
 7    1  0.6593656E-013  0.5930195E+02  0.7816164E-02  0.1266605E+00
        -11   -1    0    0    0    0  0.00000000000E+00  0.00000000000E+00  0.45593999997E+02  0.45594000000E+02  0.51100000000E-03 0. -1.
         11   -1    0    0    0    0 -0.00000000000E+00 -0.00000000000E+00 -0.45593999997E+02  0.45594000000E+02  0.51100000000E-03 0.  1.
    9900012    2    1    2    0    0  0.63182003108E+00  0.29183016256E+02 -0.12832491737E+02  0.59301945391E+02  0.50000002486E+02 0.  0.
         12    1    1    2    0    0 -0.63182003108E+00 -0.29183016256E+02  0.12832491737E+02  0.31886054609E+02  0.00000000000E+00 0. -1.
         11    1    3    3    0    0 -0.89916056017E+01  0.16114160521E+02  0.74818275556E+01  0.19912129078E+02  0.51100000000E-03 0. -1.
        -11    1    3    3    0    0 -0.70932198593E+01  0.26619659383E+01  0.36196418065E+01  0.83965253348E+01  0.51100000000E-03 0.  1.
        -12    1    3    3    0    0  0.16716645492E+02  0.10406889797E+02 -0.23933961099E+02  0.30993290978E+02  0.00000000000E+00 0.  1.
</event>
<event>
 7    1  0.6593656E-013  0.5930209E+02  0.7816164E-02  0.1266604E+00
        -11   -1    0    0    0    0  0.00000000000E+00  0.00000000000E+00  0.45593999997E+02  0.45594000000E+02  0.51100000000E-03 0.  1.
         11   -1    0    0    0    0 -0.00000000000E+00 -0.00000000000E+00 -0.45593999997E+02  0.45594000000E+02  0.51100000000E-03 0. -1.
    9900012    2    1    2    0    0 -0.13130680679E+02 -0.27765022126E+02  0.85673957721E+01  0.59302086197E+02  0.50000259282E+02 0.  0.
         12    1    1    2    0    0  0.13130680679E+02  0.27765022126E+02 -0.85673957721E+01  0.31885913803E+02  0.00000000000E+00 0. -1.
         11    1    3    3    0    0 -0.11104679355E+02 -0.16272819688E+02  0.22594849276E+01  0.19829872329E+02  0.51100000000E-03 0. -1.
        -11    1    3    3    0    0  0.25597987916E+01 -0.59978944177E+01  0.21613623992E+02  0.22576006060E+02  0.51100000000E-03 0.  1.
         12    1    3    3    0    0 -0.45858001151E+01 -0.54943080201E+01 -0.15305713148E+02  0.16896207807E+02  0.00000000000E+00 0. -1.
</event>
<event>
 7    1  0.6593656E-013  0.5930182E+02  0.7816164E-02  0.1266605E+00
        -11   -1    0    0    0    0  0.00000000000E+00  0.00000000000E+00  0.45593999997E+02  0.45594000000E+02  0.51100000000E-03 0. -1.
         11   -1    0    0    0    0 -0.00000000000E+00 -0.00000000000E+00 -0.45593999997E+02  0.45594000000E+02  0.51100000000E-03 0.  1.
    9900012    2    1    2    0    0  0.11741891966E+02  0.29599983068E+02 -0.16423067565E+01  0.59301824374E+02  0.49999781779E+02 0.  0.
         12    1    1    2    0    0 -0.11741891966E+02 -0.29599983068E+02  0.16423067565E+01  0.31886175626E+02  0.00000000000E+00 0. -1.
         11    1    3    3    0    0 -0.94045518245E+01  0.21187727405E+01  0.67670967291E+00  0.96639913694E+01  0.51100000000E-03 0.  1.
        -11    1    3    3    0    0  0.23007852605E+02  0.33750021101E+02  0.33497498202E+01  0.40983484844E+02  0.51100000000E-03 0. -1.
         12    1    3    3    0    0 -0.18614088139E+01 -0.62688107736E+01 -0.56687662496E+01  0.86543481603E+01  0.00000000000E+00 0. -1.
</event>
<event>
 7    1  0.6593656E-013  0.5930192E+02  0.7816164E-02  0.1266605E+00
        -11   -1    0    0    0    0  0.00000000000E+00  0.00000000000E+00  0.45593999997E+02  0.45594000000E+02  0.51100000000E-03 0. -1.
         11   -1    0    0    0    0 -0.00000000000E+00 -0.00000000000E+00 -0.45593999997E+02  0.45594000000E+02  0.51100000000E-03 0.  1.
    9900012    2    1    2    0    0  0.22902621190E+02 -0.21687935351E+02  0.46717614314E+01  0.59301922285E+02  0.49999960346E+02 0.  0.
         12    1    1    2    0    0 -0.22902621190E+02  0.21687935351E+02 -0.46717614314E+01  0.31886077715E+02  0.00000000000E+00 0. -1.
         11    1    3    3    0    0  0.61109154306E+00 -0.10001951945E+02  0.12517679846E+01  0.10098484983E+02  0.51100000000E-03 0. -1.
        -11    1    3    3    0    0  0.37942727360E+01 -0.21649446318E+02  0.13610737747E+02  0.25852412146E+02  0.51100000000E-03 0.  1.
         12    1    3    3    0    0  0.18497256911E+02  0.99634629130E+01 -0.10190744300E+02  0.23351025156E+02  0.00000000000E+00 0. -1.
</event>
<event>
 7    1  0.6593656E-013  0.5930189E+02  0.7816164E-02  0.1266605E+00
        -11   -1    0    0    0    0  0.00000000000E+00  0.00000000000E+00  0.45593999997E+02  0.45594000000E+02  0.51100000000E-03 0.  1.
         11   -1    0    0    0    0 -0.00000000000E+00 -0.00000000000E+00 -0.45593999997E+02  0.45594000000E+02  0.51100000000E-03 0. -1.
    9900012    2    1    2    0    0  0.16154013506E+02 -0.25649443871E+02  0.98933108666E+01  0.59301894512E+02  0.49999909695E+02 0.  0.
         12    1    1    2    0    0 -0.16154013506E+02  0.25649443871E+02 -0.98933108666E+01  0.31886105488E+02  0.00000000000E+00 0. -1.
         11    1    3    3    0    0 -0.83627922609E+01 -0.14061107894E+02  0.47920025040E+01  0.17047414404E+02  0.51100000000E-03 0. -1.
        -11    1    3    3    0    0  0.16650108734E+02 -0.15003044472E+02  0.16613965736E+02  0.27898769185E+02  0.51100000000E-03 0.  1.
        -12    1    3    3    0    0  0.78666970334E+01  0.34147084944E+01 -0.11512657374E+02  0.14355710923E+02  0.00000000000E+00 0.  1.
</event>
<event>
 7    1  0.6593656E-013  0.5930194E+02  0.7816164E-02  0.1266605E+00
        -11   -1    0    0    0    0  0.00000000000E+00  0.00000000000E+00  0.45593999997E+02  0.45594000000E+02  0.51100000000E-03 0. -1.
         11   -1    0    0    0    0 -0.00000000000E+00 -0.00000000000E+00 -0.45593999997E+02  0.45594000000E+02  0.51100000000E-03 0.  1.
    9900012    2    1    2    0    0 -0.22614067130E+02 -0.22448914934E+02  0.11708549458E+01  0.59301941680E+02  0.49999995718E+02 0.  0.
         12    1    1    2    0    0  0.22614067130E+02  0.22448914934E+02 -0.11708549458E+01  0.31886058320E+02  0.00000000000E+00 0. -1.
         11    1    3    3    0    0  0.15245381148E+01 -0.61073697910E+01  0.91591397045E+01  0.11113686275E+02  0.51100000000E-03 0. -1.
        -11    1    3    3    0    0 -0.33629011352E+01 -0.24149613714E+02 -0.89488887115E+01  0.25972977419E+02  0.51100000000E-03 0.  1.
        -12    1    3    3    0    0 -0.20775704110E+02  0.78080685705E+01  0.96060395275E+00  0.22215277986E+02  0.00000000000E+00 0.  1.
</event>
<event>
 7    1  0.6593656E-013  0.5930196E+02  0.7816164E-02  0.1266605E+00
        -11   -1    0    0    0    0  0.00000000000E+00  0.00000000000E+00  0.45593999997E+02  0.45594000000E+02  0.51100000000E-03 0. -1.
         11   -1    0    0    0    0 -0.00000000000E+00 -0.00000000000E+00 -0.45593999997E+02  0.45594000000E+02  0.51100000000E-03 0.  1.
    9900012    2    1    2    0    0 -0.23732059236E+02 -0.13146237424E+01 -0.21255127973E+02  0.59301963302E+02  0.50000035152E+02 0.  0.
         12    1    1    2    0    0  0.23732059236E+02  0.13146237424E+01  0.21255127973E+02  0.31886036698E+02  0.00000000000E+00 0. -1.
         11    1    3    3    0    0 -0.12086621052E+02 -0.60624257467E+01  0.75309882707E+01  0.15477570836E+02  0.51100000000E-03 0. -1.
        -11    1    3    3    0    0  0.41302335734E+00  0.10789613325E+02  0.12786007919E+01  0.10872955636E+02  0.51100000000E-03 0.  1.
        -12    1    3    3    0    0 -0.12058461541E+02 -0.60418113212E+01 -0.30064717036E+02  0.32951436831E+02  0.00000000000E+00 0.  1.
</event>
<event>
 7    1  0.6593656E-013  0.5930192E+02  0.7816164E-02  0.1266605E+00
        -11   -1    0    0    0    0  0.00000000000E+00  0.00000000000E+00  0.45593999997E+02  0.45594000000E+02  0.51100000000E-03 0.  1.
         11   -1    0    0    0    0 -0.00000000000E+00 -0.00000000000E+00 -0.45593999997E+02  0.45594000000E+02  0.51100000000E-03 0. -1.
    9900012    2    1    2    0    0  0.28072687257E+01  0.19067768172E+02  0.25401995104E+02  0.59301923164E+02  0.49999961949E+02 0.  0.
         12    1    1    2    0    0 -0.28072687257E+01 -0.19067768172E+02 -0.25401995104E+02  0.31886076836E+02  0.00000000000E+00 0. -1.
         11    1    3    3    0    0 -0.32816869671E+01  0.78841853339E+01 -0.81891434231E+01  0.11831818034E+02  0.51100000000E-03 0. -1.
        -11    1    3    3    0    0 -0.13855225816E+01  0.11143645570E+02 -0.17342642856E+01  0.11362578153E+02  0.51100000000E-03 0.  1.
         12    1    3    3    0    0  0.74744782744E+01  0.39937268147E-01  0.35325402812E+02  0.36107526976E+02  0.00000000000E+00 0. -1.
</event>
<event>
 7    1  0.6593656E-013  0.5930194E+02  0.7816164E-02  0.1266605E+00
        -11   -1    0    0    0    0  0.00000000000E+00  0.00000000000E+00  0.45593999997E+02  0.45594000000E+02  0.51100000000E-03 0.  1.
         11   -1    0    0    0    0 -0.00000000000E+00 -0.00000000000E+00 -0.45593999997E+02  0.45594000000E+02  0.51100000000E-03 0. -1.
    9900012    2    1    2    0    0  0.13779243662E+02 -0.70019858373E+01  0.27889521576E+02  0.59301940737E+02  0.49999993999E+02 0.  0.
         12    1    1    2    0    0 -0.13779243662E+02  0.70019858373E+01 -0.27889521576E+02  0.31886059263E+02  0.00000000000E+00 0. -1.
         11    1    3    3    0    0 -0.61930844922E+01  0.43374324679E+01 -0.45856538837E+01  0.88428410448E+01  0.51100000000E-03 0. -1.
        -11    1    3    3    0    0  0.80549649931E+01 -0.81087623842E+01 -0.38753870856E+01  0.12068683183E+02  0.51100000000E-03 0.  1.
         12    1    3    3    0    0  0.11917363161E+02 -0.32306559210E+01  0.36350562546E+02  0.38390416509E+02  0.00000000000E+00 0. -1.
</event>
<event>
 7    1  0.7159530E-013  0.5930195E+02  0.7816164E-02  0.1266605E+00
        -11   -1    0    0    0    0  0.00000000000E+00  0.00000000000E+00  0.45593999997E+02  0.45594000000E+02  0.51100000000E-03 0. -1.
         11   -1    0    0    0    0 -0.00000000000E+00 -0.00000000000E+00 -0.45593999997E+02  0.45594000000E+02  0.51100000000E-03 0.  1.
    9900012    2    1    2    0    0  0.19400960254E+02  0.14137578021E+02 -0.20986939723E+02  0.59301952737E+02  0.50000015884E+02 0.  0.
         12    1    1    2    0    0 -0.19400960254E+02 -0.14137578021E+02  0.20986939723E+02  0.31886047263E+02  0.00000000000E+00 0. -1.
         11    1    3    3    0    0 -0.10005838926E+01  0.95640708819E+01  0.71827859572E+01  0.12002709458E+02  0.51100000000E-03 0. -1.
        -11    1    3    3    0    0  0.20683363164E+02  0.15196642130E+02 -0.12980561064E+02  0.28761683010E+02  0.51100000000E-03 0.  1.
        -12    1    3    3    0    0 -0.28181901683E+00 -0.10623134991E+02 -0.15189164617E+02  0.18537560269E+02  0.00000000000E+00 0.  1.
</event>
<event>
 7    1  0.6593656E-013  0.5930192E+02  0.7816164E-02  0.1266605E+00
        -11   -1    0    0    0    0  0.00000000000E+00  0.00000000000E+00  0.45593999997E+02  0.45594000000E+02  0.51100000000E-03 0.  1.
         11   -1    0    0    0    0 -0.00000000000E+00 -0.00000000000E+00 -0.45593999997E+02  0.45594000000E+02  0.51100000000E-03 0. -1.
    9900012    2    1    2    0    0 -0.28711413827E+02 -0.55715525529E+01 -0.12701762717E+02  0.59301917489E+02  0.49999951600E+02 0.  0.
         12    1    1    2    0    0  0.28711413827E+02  0.55715525529E+01  0.12701762717E+02  0.31886082511E+02  0.00000000000E+00 0. -1.
         11    1    3    3    0    0 -0.38600414008E+01 -0.55335318443E+01 -0.56978229473E+01  0.88309161975E+01  0.51100000000E-03 0. -1.
        -11    1    3    3    0    0 -0.16962973039E+02 -0.21342811786E+02 -0.40220291540E+01  0.27557844401E+02  0.51100000000E-03 0.  1.
        -12    1    3    3    0    0 -0.78883993867E+01  0.21304791078E+02 -0.29819106157E+01  0.22913156890E+02  0.00000000000E+00 0.  1.
</event>
<event>
 7    1  0.6593656E-013  0.5930194E+02  0.7816164E-02  0.1266605E+00
        -11   -1    0    0    0    0  0.00000000000E+00  0.00000000000E+00  0.45593999997E+02  0.45594000000E+02  0.51100000000E-03 0.  1.
         11   -1    0    0    0    0 -0.00000000000E+00 -0.00000000000E+00 -0.45593999997E+02  0.45594000000E+02  0.51100000000E-03 0. -1.
    9900012    2    1    2    0    0  0.46085702282E+01 -0.31171459849E+02  0.48807988104E+01  0.59301936811E+02  0.49999986838E+02 0.  0.
         12    1    1    2    0    0 -0.46085702282E+01  0.31171459849E+02 -0.48807988104E+01  0.31886063189E+02  0.00000000000E+00 0. -1.
         11    1    3    3    0    0 -0.13303588547E+02 -0.26715890262E+02  0.25544132597E+01  0.29954119718E+02  0.51100000000E-03 0. -1.
        -11    1    3    3    0    0  0.53959398819E+01 -0.11043124321E+02  0.73703424238E+01  0.14331388966E+02  0.51100000000E-03 0.  1.
         12    1    3    3    0    0  0.12516218894E+02  0.65875547335E+01 -0.50439568731E+01  0.15016428127E+02  0.00000000000E+00 0. -1.
</event>
<event>
 7    1  0.6593656E-013  0.5930186E+02  0.7816164E-02  0.1266605E+00
        -11   -1    0    0    0    0  0.00000000000E+00  0.00000000000E+00  0.45593999997E+02  0.45594000000E+02  0.51100000000E-03 0. -1.
         11   -1    0    0    0    0 -0.00000000000E+00 -0.00000000000E+00 -0.45593999997E+02  0.45594000000E+02  0.51100000000E-03 0.  1.
    9900012    2    1    2    0    0 -0.21947687731E+02 -0.18694659728E+02 -0.13621106727E+02  0.59301861200E+02  0.49999848942E+02 0.  0.
         12    1    1    2    0    0  0.21947687731E+02  0.18694659728E+02  0.13621106727E+02  0.31886138800E+02  0.00000000000E+00 0. -1.
         11    1    3    3    0    0 -0.12557806344E+02 -0.43157415766E+00  0.12347067545E+02  0.17616322932E+02  0.51100000000E-03 0. -1.
        -11    1    3    3    0    0 -0.36678410416E+01  0.58062859555E+01 -0.17999405321E+01  0.70997042673E+01  0.51100000000E-03 0.  1.
        -12    1    3    3    0    0 -0.57220403457E+01 -0.24069371526E+02 -0.24168233740E+02  0.34585834000E+02  0.00000000000E+00 0.  1.
</event>
<event>
 7    1  0.6593656E-013  0.5930196E+02  0.7816164E-02  0.1266605E+00
        -11   -1    0    0    0    0  0.00000000000E+00  0.00000000000E+00  0.45593999997E+02  0.45594000000E+02  0.51100000000E-03 0.  1.
         11   -1    0    0    0    0 -0.00000000000E+00 -0.00000000000E+00 -0.45593999997E+02  0.45594000000E+02  0.51100000000E-03 0. -1.
    9900012    2    1    2    0    0  0.40528900819E+01 -0.31447875553E+02  0.33652258339E+01  0.59301960112E+02  0.50000029334E+02 0.  0.
         12    1    1    2    0    0 -0.40528900819E+01  0.31447875553E+02 -0.33652258339E+01  0.31886039888E+02  0.00000000000E+00 0. -1.
         11    1    3    3    0    0 -0.10939520888E+02 -0.29873037354E+01 -0.11191089527E+01  0.11395152740E+02  0.51100000000E-03 0. -1.
        -11    1    3    3    0    0 -0.17739187869E+00 -0.21348845209E+02  0.16755515274E+02  0.27139490637E+02  0.51100000000E-03 0.  1.
         12    1    3    3    0    0  0.15169802848E+02 -0.71117266083E+01 -0.12271180488E+02  0.20767316735E+02  0.00000000000E+00 0. -1.
</event>
<event>
 7    1  0.6593656E-013  0.5930194E+02  0.7816164E-02  0.1266605E+00
        -11   -1    0    0    0    0  0.00000000000E+00  0.00000000000E+00  0.45593999997E+02  0.45594000000E+02  0.51100000000E-03 0.  1.
         11   -1    0    0    0    0 -0.00000000000E+00 -0.00000000000E+00 -0.45593999997E+02  0.45594000000E+02  0.51100000000E-03 0. -1.
    9900012    2    1    2    0    0 -0.29358258325E+01 -0.21548182967E+02  0.23319032185E+02  0.59301944670E+02  0.50000001171E+02 0.  0.
         12    1    1    2    0    0  0.29358258325E+01  0.21548182967E+02 -0.23319032185E+02  0.31886055330E+02  0.00000000000E+00 0. -1.
         11    1    3    3    0    0  0.18018068635E+01  0.11001673909E+01 -0.87267324057E+01  0.89784595005E+01  0.51100000000E-03 0. -1.
        -11    1    3    3    0    0  0.42184460131E+01 -0.69474263149E+01 -0.46882560535E+01  0.93830572976E+01  0.51100000000E-03 0.  1.
        -12    1    3    3    0    0 -0.89560787091E+01 -0.15700924043E+02  0.36734020644E+02  0.40940427872E+02  0.00000000000E+00 0.  1.
</event>
<event>
 7    1  0.6593656E-013  0.5930195E+02  0.7816164E-02  0.1266605E+00
        -11   -1    0    0    0    0  0.00000000000E+00  0.00000000000E+00  0.45593999997E+02  0.45594000000E+02  0.51100000000E-03 0.  1.
         11   -1    0    0    0    0 -0.00000000000E+00 -0.00000000000E+00 -0.45593999997E+02  0.45594000000E+02  0.51100000000E-03 0. -1.
    9900012    2    1    2    0    0 -0.44694710196E+00  0.47435290355E+01  0.31528067756E+02  0.59301954684E+02  0.50000019435E+02 0.  0.
         12    1    1    2    0    0  0.44694710196E+00 -0.47435290355E+01 -0.31528067756E+02  0.31886045316E+02  0.00000000000E+00 0. -1.
         11    1    3    3    0    0 -0.65605497963E+01 -0.46106289694E+01 -0.11039291679E+01  0.80942802640E+01  0.51100000000E-03 0. -1.
        -11    1    3    3    0    0 -0.45672263121E+01  0.15744275246E+02  0.11901881229E+00  0.16393777019E+02  0.51100000000E-03 0.  1.
        -12    1    3    3    0    0  0.10680829006E+02 -0.63901172406E+01  0.32512978112E+02  0.34813897402E+02  0.00000000000E+00 0.  1.
</event>
<event>
 7    1  0.6593656E-013  0.5930213E+02  0.7816164E-02  0.1266604E+00
        -11   -1    0    0    0    0  0.00000000000E+00  0.00000000000E+00  0.45593999997E+02  0.45594000000E+02  0.51100000000E-03 0. -1.
         11   -1    0    0    0    0 -0.00000000000E+00 -0.00000000000E+00 -0.45593999997E+02  0.45594000000E+02  0.51100000000E-03 0.  1.
    9900012    2    1    2    0    0 -0.20379545909E+02 -0.10664429302E+02  0.22082857637E+02  0.59302132516E+02  0.50000343755E+02 0.  0.
         12    1    1    2    0    0  0.20379545909E+02  0.10664429302E+02 -0.22082857637E+02  0.31885867484E+02  0.00000000000E+00 0. -1.
         11    1    3    3    0    0 -0.10600870732E+02 -0.14338572101E+02  0.16677325649E+02  0.24415288269E+02  0.51100000000E-03 0. -1.
        -11    1    3    3    0    0  0.14251494964E+01 -0.13532356178E+02 -0.17875613713E+00  0.13608367604E+02  0.51100000000E-03 0.  1.
         12    1    3    3    0    0 -0.11203824673E+02  0.17206498978E+02  0.55842881261E+01  0.21278476643E+02  0.00000000000E+00 0. -1.
</event>
<event>
 7    1  0.6593656E-013  0.5930198E+02  0.7816164E-02  0.1266605E+00
        -11   -1    0    0    0    0  0.00000000000E+00  0.00000000000E+00  0.45593999997E+02  0.45594000000E+02  0.51100000000E-03 0.  1.
         11   -1    0    0    0    0 -0.00000000000E+00 -0.00000000000E+00 -0.45593999997E+02  0.45594000000E+02  0.51100000000E-03 0. -1.
    9900012    2    1    2    0    0 -0.25338108258E+02 -0.63200395652E+01  0.18296332203E+02  0.59301977948E+02  0.50000061862E+02 0.  0.
         12    1    1    2    0    0  0.25338108258E+02  0.63200395652E+01 -0.18296332203E+02  0.31886022052E+02  0.00000000000E+00 0. -1.
         11    1    3    3    0    0 -0.41627147762E+01 -0.58565579723E+01  0.14163258259E+02  0.15881604149E+02  0.51100000000E-03 0.  1.
        -11    1    3    3    0    0  0.63213417376E+01 -0.25277136288E+01 -0.10261992313E+02  0.12314917136E+02  0.51100000000E-03 0. -1.
         12    1    3    3    0    0 -0.27496735220E+02  0.20642320359E+01  0.14395066258E+02  0.31105456663E+02  0.00000000000E+00 0. -1.
</event>
<event>
 7    1  0.6593656E-013  0.5930194E+02  0.7816164E-02  0.1266605E+00
        -11   -1    0    0    0    0  0.00000000000E+00  0.00000000000E+00  0.45593999997E+02  0.45594000000E+02  0.51100000000E-03 0. -1.
         11   -1    0    0    0    0 -0.00000000000E+00 -0.00000000000E+00 -0.45593999997E+02  0.45594000000E+02  0.51100000000E-03 0.  1.
    9900012    2    1    2    0    0  0.85441000516E+01 -0.20289961621E+01 -0.30652931433E+02  0.59301942286E+02  0.49999996823E+02 0.  0.
         12    1    1    2    0    0 -0.85441000516E+01  0.20289961621E+01  0.30652931433E+02  0.31886057714E+02  0.00000000000E+00 0. -1.
         11    1    3    3    0    0  0.14038556862E+02  0.15827303505E+02 -0.13373241781E+02  0.25028547920E+02  0.51100000000E-03 0. -1.
        -11    1    3    3    0    0  0.44799817908E+01 -0.89948664571E+01 -0.18315507007E+02  0.20891042497E+02  0.51100000000E-03 0.  1.
        -12    1    3    3    0    0 -0.99744386015E+01 -0.88614332099E+01  0.10358173542E+01  0.13382351869E+02  0.00000000000E+00 0.  1.
</event>
<event>
 7    1  0.6593656E-013  0.5930194E+02  0.7816164E-02  0.1266605E+00
        -11   -1    0    0    0    0  0.00000000000E+00  0.00000000000E+00  0.45593999997E+02  0.45594000000E+02  0.51100000000E-03 0. -1.
         11   -1    0    0    0    0 -0.00000000000E+00 -0.00000000000E+00 -0.45593999997E+02  0.45594000000E+02  0.51100000000E-03 0.  1.
    9900012    2    1    2    0    0  0.31489228400E+02 -0.48111430096E+01 -0.14149568002E+01  0.59301941840E+02  0.49999996009E+02 0.  0.
         12    1    1    2    0    0 -0.31489228400E+02  0.48111430096E+01  0.14149568002E+01  0.31886058160E+02  0.00000000000E+00 0. -1.
         11    1    3    3    0    0  0.39896081731E+01 -0.19679413644E+01  0.42421065782E+01  0.61469695843E+01  0.51100000000E-03 0. -1.
        -11    1    3    3    0    0  0.96356005062E+01 -0.99075175236E+01  0.17991687961E+02  0.22687100664E+02  0.51100000000E-03 0.  1.
        -12    1    3    3    0    0  0.17864019720E+02  0.70643158785E+01 -0.23648751339E+02  0.30467871591E+02  0.00000000000E+00 0.  1.
</event>
<event>
 7    1  0.6593656E-013  0.5930195E+02  0.7816164E-02  0.1266605E+00
        -11   -1    0    0    0    0  0.00000000000E+00  0.00000000000E+00  0.45593999997E+02  0.45594000000E+02  0.51100000000E-03 0. -1.
         11   -1    0    0    0    0 -0.00000000000E+00 -0.00000000000E+00 -0.45593999997E+02  0.45594000000E+02  0.51100000000E-03 0.  1.
    9900012    2    1    2    0    0  0.18830442234E+02 -0.22580929496E+02 -0.12338395249E+02  0.59301954009E+02  0.50000018203E+02 0.  0.
         12    1    1    2    0    0 -0.18830442234E+02  0.22580929496E+02  0.12338395249E+02  0.31886045991E+02  0.00000000000E+00 0. -1.
         11    1    3    3    0    0  0.11339272039E+02 -0.75035028647E+00 -0.13112393799E+01  0.11439469607E+02  0.51100000000E-03 0. -1.
        -11    1    3    3    0    0  0.18093300802E+02  0.55337578976E+00 -0.14044966315E+02  0.22911456473E+02  0.51100000000E-03 0.  1.
        -12    1    3    3    0    0 -0.10602130607E+02 -0.22383954999E+02  0.30178104454E+01  0.24951027929E+02  0.00000000000E+00 0.  1.
</event>
<event>
 7    1  0.6593656E-013  0.5930194E+02  0.7816164E-02  0.1266605E+00
        -11   -1    0    0    0    0  0.00000000000E+00  0.00000000000E+00  0.45593999997E+02  0.45594000000E+02  0.51100000000E-03 0. -1.
         11   -1    0    0    0    0 -0.00000000000E+00 -0.00000000000E+00 -0.45593999997E+02  0.45594000000E+02  0.51100000000E-03 0.  1.
    9900012    2    1    2    0    0 -0.30392459009E+02 -0.85849325525E+01 -0.43952439099E+01  0.59301940341E+02  0.49999993277E+02 0.  0.
         12    1    1    2    0    0  0.30392459009E+02  0.85849325525E+01  0.43952439099E+01  0.31886059659E+02  0.00000000000E+00 0. -1.
         11    1    3    3    0    0  0.71917567605E+01 -0.51540700755E+01 -0.70942696896E+01  0.11340831818E+02  0.51100000000E-03 0. -1.
        -11    1    3    3    0    0 -0.14122246411E+02 -0.89645531344E+01 -0.11204569199E+02  0.20133142521E+02  0.51100000000E-03 0.  1.
         12    1    3    3    0    0 -0.23461969358E+02  0.55336906573E+01  0.13903594978E+02  0.27827966002E+02  0.00000000000E+00 0. -1.
</event>
<event>
 7    1  0.6593656E-013  0.5930229E+02  0.7816164E-02  0.1266604E+00
        -11   -1    0    0    0    0  0.00000000000E+00  0.00000000000E+00  0.45593999997E+02  0.45594000000E+02  0.51100000000E-03 0. -1.
         11   -1    0    0    0    0 -0.00000000000E+00 -0.00000000000E+00 -0.45593999997E+02  0.45594000000E+02  0.51100000000E-03 0.  1.
    9900012    2    1    2    0    0 -0.27026299749E+02 -0.13517839257E+02  0.10175737568E+02  0.59302290170E+02  0.50000631277E+02 0.  0.
         12    1    1    2    0    0  0.27026299749E+02  0.13517839257E+02 -0.10175737568E+02  0.31885709830E+02  0.00000000000E+00 0. -1.
         11    1    3    3    0    0 -0.99290612025E+01  0.25811170896E+01 -0.40558666041E+01  0.11031703221E+02  0.51100000000E-03 0. -1.
        -11    1    3    3    0    0 -0.12469640552E+02 -0.68489210424E+01 -0.12918646716E+02  0.19216947941E+02  0.51100000000E-03 0.  1.
        -12    1    3    3    0    0 -0.46275979940E+01 -0.92500353046E+01  0.27150250888E+02  0.29053639008E+02  0.00000000000E+00 0.  1.
</event>
<event>
 7    1  0.6593656E-013  0.5930193E+02  0.7816164E-02  0.1266605E+00
        -11   -1    0    0    0    0  0.00000000000E+00  0.00000000000E+00  0.45593999997E+02  0.45594000000E+02  0.51100000000E-03 0.  1.
         11   -1    0    0    0    0 -0.00000000000E+00 -0.00000000000E+00 -0.45593999997E+02  0.45594000000E+02  0.51100000000E-03 0. -1.
    9900012    2    1    2    0    0 -0.72901616505E+01  0.18509943063E+02  0.24919005641E+02  0.59301932647E+02  0.49999979245E+02 0.  0.
         12    1    1    2    0    0  0.72901616505E+01 -0.18509943063E+02 -0.24919005641E+02  0.31886067353E+02  0.00000000000E+00 0. -1.
         11    1    3    3    0    0  0.40117535205E+01  0.49839668638E+01  0.13820051393E+02  0.15229179649E+02  0.51100000000E-03 0. -1.
        -11    1    3    3    0    0  0.12349800135E+02  0.88133279516E+01  0.12864035274E+02  0.19891599150E+02  0.51100000000E-03 0.  1.
         12    1    3    3    0    0 -0.23651715306E+02  0.47126482479E+01 -0.17650810266E+01  0.24181153848E+02  0.00000000000E+00 0. -1.
</event>
<event>
 7    1  0.6593656E-013  0.5930194E+02  0.7816164E-02  0.1266605E+00
        -11   -1    0    0    0    0  0.00000000000E+00  0.00000000000E+00  0.45593999997E+02  0.45594000000E+02  0.51100000000E-03 0.  1.
         11   -1    0    0    0    0 -0.00000000000E+00 -0.00000000000E+00 -0.45593999997E+02  0.45594000000E+02  0.51100000000E-03 0. -1.
    9900012    2    1    2    0    0  0.25982521921E+02 -0.16439752028E+02  0.84477140402E+01  0.59301940905E+02  0.49999994305E+02 0.  0.
         12    1    1    2    0    0 -0.25982521921E+02  0.16439752028E+02 -0.84477140402E+01  0.31886059095E+02  0.00000000000E+00 0. -1.
         11    1    3    3    0    0  0.32373530384E+02 -0.18805099859E+02  0.39771195305E+01  0.37649631210E+02  0.51100000000E-03 0. -1.
        -11    1    3    3    0    0  0.34769701440E+01  0.12131958957E+01 -0.61128085545E+01  0.71363572184E+01  0.51100000000E-03 0.  1.
        -12    1    3    3    0    0 -0.98679786075E+01  0.11521519358E+01  0.10583403064E+02  0.14515952476E+02  0.00000000000E+00 0.  1.
</event>
<event>
 7    1  0.6593656E-013  0.5930195E+02  0.7816164E-02  0.1266605E+00
        -11   -1    0    0    0    0  0.00000000000E+00  0.00000000000E+00  0.45593999997E+02  0.45594000000E+02  0.51100000000E-03 0. -1.
         11   -1    0    0    0    0 -0.00000000000E+00 -0.00000000000E+00 -0.45593999997E+02  0.45594000000E+02  0.51100000000E-03 0.  1.
    9900012    2    1    2    0    0 -0.44217913543E+01 -0.29865824809E+02 -0.10256740624E+02  0.59301945705E+02  0.50000003059E+02 0.  0.
         12    1    1    2    0    0  0.44217913543E+01  0.29865824809E+02  0.10256740624E+02  0.31886054295E+02  0.00000000000E+00 0. -1.
         11    1    3    3    0    0 -0.13709942087E+02 -0.85112959857E+01 -0.16655808077E+02  0.23190959755E+02  0.51100000000E-03 0. -1.
        -11    1    3    3    0    0  0.24648727114E-01  0.63378799388E+01  0.10461522022E+01  0.64236877547E+01  0.51100000000E-03 0.  1.
         12    1    3    3    0    0  0.92635020060E+01 -0.27692408762E+02  0.53529152511E+01  0.29687298195E+02  0.00000000000E+00 0. -1.
</event>
<event>
 7    1  0.6593656E-013  0.5930189E+02  0.7816164E-02  0.1266605E+00
        -11   -1    0    0    0    0  0.00000000000E+00  0.00000000000E+00  0.45593999997E+02  0.45594000000E+02  0.51100000000E-03 0.  1.
         11   -1    0    0    0    0 -0.00000000000E+00 -0.00000000000E+00 -0.45593999997E+02  0.45594000000E+02  0.51100000000E-03 0. -1.
    9900012    2    1    2    0    0  0.13591385225E+02  0.20827818581E+01  0.28769082126E+02  0.59301893010E+02  0.49999906956E+02 0.  0.
         12    1    1    2    0    0 -0.13591385225E+02 -0.20827818581E+01 -0.28769082126E+02  0.31886106990E+02  0.00000000000E+00 0. -1.
         11    1    3    3    0    0 -0.21601489252E+01 -0.33911482643E+00 -0.81118769106E+01  0.84014159234E+01  0.51100000000E-03 0. -1.
        -11    1    3    3    0    0  0.76535420591E+01  0.15923497171E+02  0.11657483607E+02  0.21166752054E+02  0.51100000000E-03 0.  1.
        -12    1    3    3    0    0  0.80979920906E+01 -0.13501600486E+02  0.25223475429E+02  0.29733725033E+02  0.00000000000E+00 0.  1.
</event>
<event>
 7    1  0.6593656E-013  0.5930194E+02  0.7816164E-02  0.1266605E+00
        -11   -1    0    0    0    0  0.00000000000E+00  0.00000000000E+00  0.45593999997E+02  0.45594000000E+02  0.51100000000E-03 0. -1.
         11   -1    0    0    0    0 -0.00000000000E+00 -0.00000000000E+00 -0.45593999997E+02  0.45594000000E+02  0.51100000000E-03 0.  1.
    9900012    2    1    2    0    0  0.41916480808E+01 -0.18783695763E+02 -0.25422895238E+02  0.59301941253E+02  0.49999994939E+02 0.  0.
         12    1    1    2    0    0 -0.41916480808E+01  0.18783695763E+02  0.25422895238E+02  0.31886058747E+02  0.00000000000E+00 0. -1.
         11    1    3    3    0    0  0.70177498559E+01  0.79177508264E+01 -0.16215040513E+02  0.19361485746E+02  0.51100000000E-03 0. -1.
        -11    1    3    3    0    0  0.89894446188E+01  0.11912835206E+00 -0.51282192238E+01  0.10350021197E+02  0.51100000000E-03 0.  1.
        -12    1    3    3    0    0 -0.11815546394E+02 -0.26820574942E+02 -0.40796355014E+01  0.29590434309E+02  0.00000000000E+00 0.  1.
</event>
<event>
 7    1  0.6593656E-013  0.5930205E+02  0.7816164E-02  0.1266604E+00
        -11   -1    0    0    0    0  0.00000000000E+00  0.00000000000E+00  0.45593999997E+02  0.45594000000E+02  0.51100000000E-03 0.  1.
         11   -1    0    0    0    0 -0.00000000000E+00 -0.00000000000E+00 -0.45593999997E+02  0.45594000000E+02  0.51100000000E-03 0. -1.
    9900012    2    1    2    0    0  0.14266906178E+02 -0.61057142276E+00  0.28509581803E+02  0.59302052249E+02  0.50000197370E+02 0.  0.
         12    1    1    2    0    0 -0.14266906178E+02  0.61057142276E+00 -0.28509581803E+02  0.31885947751E+02  0.00000000000E+00 0. -1.
         11    1    3    3    0    0 -0.14655391584E+02  0.67988947223E+01  0.14322818818E+02  0.21590475008E+02  0.51100000000E-03 0. -1.
        -11    1    3    3    0    0 -0.12229078775E+01  0.28400282996E+01  0.15052539528E+01  0.34390484357E+01  0.51100000000E-03 0.  1.
        -12    1    3    3    0    0  0.30145205639E+02 -0.10249494445E+02  0.12681509033E+02  0.34272528806E+02  0.00000000000E+00 0.  1.
</event>
<event>
 7    1  0.6593656E-013  0.5930199E+02  0.7816164E-02  0.1266605E+00
        -11   -1    0    0    0    0  0.00000000000E+00  0.00000000000E+00  0.45593999997E+02  0.45594000000E+02  0.51100000000E-03 0.  1.
         11   -1    0    0    0    0 -0.00000000000E+00 -0.00000000000E+00 -0.45593999997E+02  0.45594000000E+02  0.51100000000E-03 0. -1.
    9900012    2    1    2    0    0 -0.10093697500E+02 -0.15964654638E+02  0.25689779526E+02  0.59301988976E+02  0.50000081974E+02 0.  0.
         12    1    1    2    0    0  0.10093697500E+02  0.15964654638E+02 -0.25689779526E+02  0.31886011024E+02  0.00000000000E+00 0. -1.
         11    1    3    3    0    0 -0.73002661001E+01 -0.30204647522E+01  0.15968311517E+01  0.80602085854E+01  0.51100000000E-03 0. -1.
        -11    1    3    3    0    0 -0.86189524425E+01  0.14533408559E+02  0.65315731825E+01  0.18115401018E+02  0.51100000000E-03 0.  1.
         12    1    3    3    0    0  0.58255210422E+01 -0.27477598444E+02  0.17561375192E+02  0.33126379372E+02  0.00000000000E+00 0. -1.
</event>
<event>
 7    1  0.6593656E-013  0.5930193E+02  0.7816164E-02  0.1266605E+00
        -11   -1    0    0    0    0  0.00000000000E+00  0.00000000000E+00  0.45593999997E+02  0.45594000000E+02  0.51100000000E-03 0.  1.
         11   -1    0    0    0    0 -0.00000000000E+00 -0.00000000000E+00 -0.45593999997E+02  0.45594000000E+02  0.51100000000E-03 0. -1.
    9900012    2    1    2    0    0 -0.27223492796E+02 -0.15260376530E+02 -0.65363464211E+01  0.59301929744E+02  0.49999973950E+02 0.  0.
         12    1    1    2    0    0  0.27223492796E+02  0.15260376530E+02  0.65363464211E+01  0.31886070256E+02  0.00000000000E+00 0. -1.
         11    1    3    3    0    0 -0.41827771863E+01 -0.19158482821E+01 -0.42048221138E+00  0.46198382203E+01  0.51100000000E-03 0. -1.
        -11    1    3    3    0    0 -0.13664591419E+02 -0.98343851180E+01  0.20335083811E+02  0.26399845135E+02  0.51100000000E-03 0.  1.
         12    1    3    3    0    0 -0.93761241907E+01 -0.35101431295E+01 -0.26450948021E+02  0.28282246389E+02  0.00000000000E+00 0. -1.
</event>
<event>
 7    1  0.6593656E-013  0.5930194E+02  0.7816164E-02  0.1266605E+00
        -11   -1    0    0    0    0  0.00000000000E+00  0.00000000000E+00  0.45593999997E+02  0.45594000000E+02  0.51100000000E-03 0. -1.
         11   -1    0    0    0    0 -0.00000000000E+00 -0.00000000000E+00 -0.45593999997E+02  0.45594000000E+02  0.51100000000E-03 0.  1.
    9900012    2    1    2    0    0  0.31182879643E+02 -0.43563381970E+01 -0.50369863308E+01  0.59301938835E+02  0.49999990529E+02 0.  0.
         12    1    1    2    0    0 -0.31182879643E+02  0.43563381970E+01  0.50369863308E+01  0.31886061165E+02  0.00000000000E+00 0. -1.
         11    1    3    3    0    0  0.11851343900E+01  0.13054464803E+02  0.62896435933E+01  0.14539023750E+02  0.51100000000E-03 0.  1.
        -11    1    3    3    0    0  0.44585032745E+00  0.57332474495E+01 -0.19645296367E+01  0.60768647991E+01  0.51100000000E-03 0. -1.
        -12    1    3    3    0    0  0.29551894926E+02 -0.23144050449E+02 -0.93621002874E+01  0.38686050286E+02  0.00000000000E+00 0.  1.
</event>
<event>
 7    1  0.6593656E-013  0.5930196E+02  0.7816164E-02  0.1266605E+00
        -11   -1    0    0    0    0  0.00000000000E+00  0.00000000000E+00  0.45593999997E+02  0.45594000000E+02  0.51100000000E-03 0.  1.
         11   -1    0    0    0    0 -0.00000000000E+00 -0.00000000000E+00 -0.45593999997E+02  0.45594000000E+02  0.51100000000E-03 0. -1.
    9900012    2    1    2    0    0 -0.11330904354E+02 -0.13873921990E+02  0.26378859424E+02  0.59301963410E+02  0.50000035349E+02 0.  0.
         12    1    1    2    0    0  0.11330904354E+02  0.13873921990E+02 -0.26378859424E+02  0.31886036590E+02  0.00000000000E+00 0. -1.
         11    1    3    3    0    0 -0.90997501689E+01 -0.19979183908E+02  0.14322882762E+02  0.26212939813E+02  0.51100000000E-03 0. -1.
        -11    1    3    3    0    0 -0.15159980960E+02  0.51207685210E+00  0.11421669224E+02  0.18987937580E+02  0.51100000000E-03 0.  1.
         12    1    3    3    0    0  0.12928826774E+02  0.55931850661E+01  0.63430743853E+00  0.14101086018E+02  0.00000000000E+00 0. -1.
</event>
<event>
 7    1  0.6593656E-013  0.5930191E+02  0.7816164E-02  0.1266605E+00
        -11   -1    0    0    0    0  0.00000000000E+00  0.00000000000E+00  0.45593999997E+02  0.45594000000E+02  0.51100000000E-03 0. -1.
         11   -1    0    0    0    0 -0.00000000000E+00 -0.00000000000E+00 -0.45593999997E+02  0.45594000000E+02  0.51100000000E-03 0.  1.
    9900012    2    1    2    0    0  0.26351868160E+02 -0.17572779638E+02 -0.36741506963E+01  0.59301907059E+02  0.49999932578E+02 0.  0.
         12    1    1    2    0    0 -0.26351868160E+02  0.17572779638E+02  0.36741506963E+01  0.31886092941E+02  0.00000000000E+00 0. -1.
         11    1    3    3    0    0  0.39784294834E+01  0.78225845858E+01  0.13851041855E+01  0.88847760029E+01  0.51100000000E-03 0. -1.
        -11    1    3    3    0    0 -0.73007618237E+01 -0.92951217485E+01 -0.10990214064E+02  0.16139554422E+02  0.51100000000E-03 0.  1.
         12    1    3    3    0    0  0.29674200500E+02 -0.16100242475E+02  0.59309591817E+01  0.34277576634E+02  0.00000000000E+00 0. -1.
</event>
<event>
 7    1  0.6593656E-013  0.5930195E+02  0.7816164E-02  0.1266605E+00
        -11   -1    0    0    0    0  0.00000000000E+00  0.00000000000E+00  0.45593999997E+02  0.45594000000E+02  0.51100000000E-03 0.  1.
         11   -1    0    0    0    0 -0.00000000000E+00 -0.00000000000E+00 -0.45593999997E+02  0.45594000000E+02  0.51100000000E-03 0. -1.
    9900012    2    1    2    0    0  0.16912629396E+02  0.19787647400E+02  0.18415543446E+02  0.59301948769E+02  0.50000008647E+02 0.  0.
         12    1    1    2    0    0 -0.16912629396E+02 -0.19787647400E+02 -0.18415543446E+02  0.31886051231E+02  0.00000000000E+00 0. -1.
         11    1    3    3    0    0 -0.90680046773E+01  0.27985780556E+01  0.45943659956E+01  0.10543668580E+02  0.51100000000E-03 0. -1.
        -11    1    3    3    0    0  0.10312853613E+02  0.26444241815E+02  0.97430192310E+01  0.30009653427E+02  0.51100000000E-03 0.  1.
        -12    1    3    3    0    0  0.15667780460E+02 -0.94551724705E+01  0.40781582190E+01  0.18748626762E+02  0.00000000000E+00 0.  1.
</event>
<event>
 7    1  0.6593656E-013  0.5930194E+02  0.7816164E-02  0.1266605E+00
        -11   -1    0    0    0    0  0.00000000000E+00  0.00000000000E+00  0.45593999997E+02  0.45594000000E+02  0.51100000000E-03 0. -1.
         11   -1    0    0    0    0 -0.00000000000E+00 -0.00000000000E+00 -0.45593999997E+02  0.45594000000E+02  0.51100000000E-03 0.  1.
    9900012    2    1    2    0    0 -0.25510962074E+02  0.35947287983E+01  0.18788008893E+02  0.59301944439E+02  0.50000000750E+02 0.  0.
         12    1    1    2    0    0  0.25510962074E+02 -0.35947287983E+01 -0.18788008893E+02  0.31886055561E+02  0.00000000000E+00 0. -1.
         11    1    3    3    0    0 -0.31754465724E+02  0.25928613285E+01 -0.29267361300E+01  0.31994293365E+02  0.51100000000E-03 0. -1.
        -11    1    3    3    0    0 -0.20287170405E+01 -0.25607354919E+01 -0.52908606111E+00  0.33095303913E+01  0.51100000000E-03 0.  1.
         12    1    3    3    0    0  0.82722206903E+01  0.35626029617E+01  0.22243831084E+02  0.23998120683E+02  0.00000000000E+00 0. -1.
</event>
<event>
 7    1  0.6593656E-013  0.5930194E+02  0.7816164E-02  0.1266605E+00
        -11   -1    0    0    0    0  0.00000000000E+00  0.00000000000E+00  0.45593999997E+02  0.45594000000E+02  0.51100000000E-03 0. -1.
         11   -1    0    0    0    0 -0.00000000000E+00 -0.00000000000E+00 -0.45593999997E+02  0.45594000000E+02  0.51100000000E-03 0.  1.
    9900012    2    1    2    0    0  0.83152703495E+01  0.48193286386E+01 -0.30403144213E+02  0.59301939918E+02  0.49999992504E+02 0.  0.
         12    1    1    2    0    0 -0.83152703495E+01 -0.48193286386E+01  0.30403144213E+02  0.31886060082E+02  0.00000000000E+00 0. -1.
         11    1    3    3    0    0  0.58050287644E+00 -0.59324027701E+01 -0.48036600858E+01  0.76554253113E+01  0.51100000000E-03 0. -1.
        -11    1    3    3    0    0 -0.64689038575E+01 -0.12702159578E+02 -0.18440974296E+02  0.23307962337E+02  0.51100000000E-03 0.  1.
         12    1    3    3    0    0  0.14203671331E+02  0.23453890987E+02 -0.71585098314E+01  0.28338552269E+02  0.00000000000E+00 0. -1.
</event>
<event>
 7    1  0.6593656E-013  0.5930195E+02  0.7816164E-02  0.1266605E+00
        -11   -1    0    0    0    0  0.00000000000E+00  0.00000000000E+00  0.45593999997E+02  0.45594000000E+02  0.51100000000E-03 0.  1.
         11   -1    0    0    0    0 -0.00000000000E+00 -0.00000000000E+00 -0.45593999997E+02  0.45594000000E+02  0.51100000000E-03 0. -1.
    9900012    2    1    2    0    0  0.65091301513E+01 -0.42046593892E+01  0.30930123414E+02  0.59301945520E+02  0.50000002722E+02 0.  0.
         12    1    1    2    0    0 -0.65091301513E+01  0.42046593892E+01 -0.30930123414E+02  0.31886054480E+02  0.00000000000E+00 0. -1.
         11    1    3    3    0    0 -0.13624635892E+01 -0.18359505968E+02  0.21843944755E+00  0.18411286823E+02  0.51100000000E-03 0. -1.
        -11    1    3    3    0    0 -0.67811637019E+01  0.35718147566E+01  0.15400876313E+02  0.17202587982E+02  0.51100000000E-03 0.  1.
        -12    1    3    3    0    0  0.14652757442E+02  0.10583031822E+02  0.15310807653E+02  0.23688070715E+02  0.00000000000E+00 0.  1.
</event>
<event>
 7    1  0.6593656E-013  0.5930197E+02  0.7816164E-02  0.1266605E+00
        -11   -1    0    0    0    0  0.00000000000E+00  0.00000000000E+00  0.45593999997E+02  0.45594000000E+02  0.51100000000E-03 0. -1.
         11   -1    0    0    0    0 -0.00000000000E+00 -0.00000000000E+00 -0.45593999997E+02  0.45594000000E+02  0.51100000000E-03 0.  1.
    9900012    2    1    2    0    0  0.19683369383E+02  0.67467438111E+01 -0.24161230933E+02  0.59301973868E+02  0.50000054421E+02 0.  0.
         12    1    1    2    0    0 -0.19683369383E+02 -0.67467438111E+01  0.24161230933E+02  0.31886026132E+02  0.00000000000E+00 0. -1.
         11    1    3    3    0    0 -0.12369724378E+02  0.56910205155E+00 -0.21411284476E+01  0.12566558384E+02  0.51100000000E-03 0. -1.
        -11    1    3    3    0    0  0.23578022635E+01  0.74466488045E+01  0.25030272042E+01  0.82022530672E+01  0.51100000000E-03 0.  1.
        -12    1    3    3    0    0  0.29695291498E+02 -0.12690070450E+01 -0.24523129689E+02  0.38533162416E+02  0.00000000000E+00 0.  1.
</event>
<event>
 7    1  0.6593656E-013  0.5930195E+02  0.7816164E-02  0.1266605E+00
        -11   -1    0    0    0    0  0.00000000000E+00  0.00000000000E+00  0.45593999997E+02  0.45594000000E+02  0.51100000000E-03 0.  1.
         11   -1    0    0    0    0 -0.00000000000E+00 -0.00000000000E+00 -0.45593999997E+02  0.45594000000E+02  0.51100000000E-03 0. -1.
    9900012    2    1    2    0    0  0.15381874201E+02  0.12451723413E+02  0.25001456782E+02  0.59301948016E+02  0.50000007274E+02 0.  0.
         12    1    1    2    0    0 -0.15381874201E+02 -0.12451723413E+02 -0.25001456782E+02  0.31886051984E+02  0.00000000000E+00 0. -1.
         11    1    3    3    0    0  0.14833913954E+01  0.47524035110E+01 -0.16043356312E+01  0.52306483577E+01  0.51100000000E-03 0. -1.
        -11    1    3    3    0    0 -0.87271140643E+01  0.93434444334E+01 -0.61814939295E+01  0.14201173939E+02  0.51100000000E-03 0.  1.
        -12    1    3    3    0    0  0.22625596870E+02 -0.16441245314E+01  0.32787286343E+02  0.39870125720E+02  0.00000000000E+00 0.  1.
</event>
<event>
 7    1  0.6593656E-013  0.5930192E+02  0.7816164E-02  0.1266605E+00
        -11   -1    0    0    0    0  0.00000000000E+00  0.00000000000E+00  0.45593999997E+02  0.45594000000E+02  0.51100000000E-03 0.  1.
         11   -1    0    0    0    0 -0.00000000000E+00 -0.00000000000E+00 -0.45593999997E+02  0.45594000000E+02  0.51100000000E-03 0. -1.
    9900012    2    1    2    0    0 -0.45579308139E+01 -0.25065123181E+02  0.19175157652E+02  0.59301924601E+02  0.49999964571E+02 0.  0.
         12    1    1    2    0    0  0.45579308139E+01  0.25065123181E+02 -0.19175157652E+02  0.31886075399E+02  0.00000000000E+00 0. -1.
         11    1    3    3    0    0  0.66665666087E+01  0.44123186685E+01  0.12091445752E+02  0.14495334664E+02  0.51100000000E-03 0. -1.
        -11    1    3    3    0    0  0.83225721816E+01 -0.20443695219E+02  0.73710467261E+01  0.23271059538E+02  0.51100000000E-03 0.  1.
         12    1    3    3    0    0 -0.19547069604E+02 -0.90337466300E+01 -0.28733482635E+00  0.21535530400E+02  0.00000000000E+00 0. -1.
</event>
<event>
 7    1  0.6593656E-013  0.5930198E+02  0.7816164E-02  0.1266605E+00
        -11   -1    0    0    0    0  0.00000000000E+00  0.00000000000E+00  0.45593999997E+02  0.45594000000E+02  0.51100000000E-03 0. -1.
         11   -1    0    0    0    0 -0.00000000000E+00 -0.00000000000E+00 -0.45593999997E+02  0.45594000000E+02  0.51100000000E-03 0.  1.
    9900012    2    1    2    0    0  0.15547731158E+02  0.17906305769E+02  0.21315504258E+02  0.59301977165E+02  0.50000060435E+02 0.  0.
         12    1    1    2    0    0 -0.15547731158E+02 -0.17906305769E+02 -0.21315504258E+02  0.31886022835E+02  0.00000000000E+00 0. -1.
         11    1    3    3    0    0  0.15986915058E+02  0.98470094739E+01  0.26878242490E+02  0.32786963389E+02  0.51100000000E-03 0. -1.
        -11    1    3    3    0    0  0.41636224835E+01 -0.32043993645E+00  0.85230278344E+01  0.94910714709E+01  0.51100000000E-03 0.  1.
        -12    1    3    3    0    0 -0.46028063836E+01  0.83797362311E+01 -0.14085766067E+02  0.17023942305E+02  0.00000000000E+00 0.  1.
</event>
<event>
 7    1  0.6593656E-013  0.5930196E+02  0.7816164E-02  0.1266605E+00
        -11   -1    0    0    0    0  0.00000000000E+00  0.00000000000E+00  0.45593999997E+02  0.45594000000E+02  0.51100000000E-03 0.  1.
         11   -1    0    0    0    0 -0.00000000000E+00 -0.00000000000E+00 -0.45593999997E+02  0.45594000000E+02  0.51100000000E-03 0. -1.
    9900012    2    1    2    0    0 -0.26572104538E+01 -0.22619235062E+02  0.22316568830E+02  0.59301955929E+02  0.50000021704E+02 0.  0.
         12    1    1    2    0    0  0.26572104538E+01  0.22619235062E+02 -0.22316568830E+02  0.31886044071E+02  0.00000000000E+00 0. -1.
         11    1    3    3    0    0  0.23292449227E+01  0.67120511825E+01 -0.35137159268E-02  0.71047185443E+01  0.51100000000E-03 0. -1.
        -11    1    3    3    0    0  0.20197629911E+01 -0.42660985556E+00  0.22360444460E+02  0.22455531951E+02  0.51100000000E-03 0.  1.
         12    1    3    3    0    0 -0.70062183676E+01 -0.28904676389E+02 -0.40361914516E-01  0.29741705433E+02  0.00000000000E+00 0. -1.
</event>
<event>
 7    1  0.6593656E-013  0.5930199E+02  0.7816164E-02  0.1266605E+00
        -11   -1    0    0    0    0  0.00000000000E+00  0.00000000000E+00  0.45593999997E+02  0.45594000000E+02  0.51100000000E-03 0. -1.
         11   -1    0    0    0    0 -0.00000000000E+00 -0.00000000000E+00 -0.45593999997E+02  0.45594000000E+02  0.51100000000E-03 0.  1.
    9900012    2    1    2    0    0  0.30710300121E+02 -0.54352028977E+01  0.66373029492E+01  0.59301988106E+02  0.50000080388E+02 0.  0.
         12    1    1    2    0    0 -0.30710300121E+02  0.54352028977E+01 -0.66373029492E+01  0.31886011894E+02  0.00000000000E+00 0. -1.
         11    1    3    3    0    0  0.57000981238E+01 -0.80262086892E+01  0.77288827382E+01  0.12515860865E+02  0.51100000000E-03 0. -1.
        -11    1    3    3    0    0 -0.51726003159E+01 -0.66503859153E+01 -0.10858522348E+02  0.13743759845E+02  0.51100000000E-03 0.  1.
         12    1    3    3    0    0  0.30182802313E+02  0.92413917068E+01  0.97669425589E+01  0.33042367396E+02  0.00000000000E+00 0. -1.
</event>
<event>
 7    1  0.6593656E-013  0.5930195E+02  0.7816164E-02  0.1266605E+00
        -11   -1    0    0    0    0  0.00000000000E+00  0.00000000000E+00  0.45593999997E+02  0.45594000000E+02  0.51100000000E-03 0. -1.
         11   -1    0    0    0    0 -0.00000000000E+00 -0.00000000000E+00 -0.45593999997E+02  0.45594000000E+02  0.51100000000E-03 0.  1.
    9900012    2    1    2    0    0 -0.21011035929E+02 -0.20981295083E+02 -0.11620757194E+02  0.59301947063E+02  0.50000005536E+02 0.  0.
         12    1    1    2    0    0  0.21011035929E+02  0.20981295083E+02  0.11620757194E+02  0.31886052937E+02  0.00000000000E+00 0. -1.
         11    1    3    3    0    0 -0.21706389792E+01 -0.93349447182E+01 -0.11007816382E+02  0.14595372151E+02  0.51100000000E-03 0. -1.
        -11    1    3    3    0    0 -0.27837729129E+02 -0.11695399523E+02 -0.98995810801E+01  0.31776142605E+02  0.51100000000E-03 0.  1.
         12    1    3    3    0    0  0.89973321790E+01  0.49049158162E-01  0.92866402686E+01  0.12930432307E+02  0.00000000000E+00 0. -1.
</event>
<event>
 7    1  0.6593656E-013  0.5930201E+02  0.7816164E-02  0.1266605E+00
        -11   -1    0    0    0    0  0.00000000000E+00  0.00000000000E+00  0.45593999997E+02  0.45594000000E+02  0.51100000000E-03 0. -1.
         11   -1    0    0    0    0 -0.00000000000E+00 -0.00000000000E+00 -0.45593999997E+02  0.45594000000E+02  0.51100000000E-03 0.  1.
    9900012    2    1    2    0    0  0.18328187513E+02 -0.23327405892E+02 -0.11688713445E+02  0.59302010206E+02  0.50000120693E+02 0.  0.
         12    1    1    2    0    0 -0.18328187513E+02  0.23327405892E+02  0.11688713445E+02  0.31885989794E+02  0.00000000000E+00 0. -1.
         11    1    3    3    0    0 -0.14999499217E+01  0.16963569995E+01 -0.21724370544E+01  0.31379865923E+01  0.51100000000E-03 0. -1.
        -11    1    3    3    0    0 -0.12838249272E+02 -0.14888589662E+01  0.42640961758E+01  0.13609550391E+02  0.51100000000E-03 0.  1.
        -12    1    3    3    0    0  0.32666386706E+02 -0.23534903925E+02 -0.13780372566E+02  0.42554473223E+02  0.00000000000E+00 0.  1.
</event>
<event>
 7    1  0.6593656E-013  0.5930195E+02  0.7816164E-02  0.1266605E+00
        -11   -1    0    0    0    0  0.00000000000E+00  0.00000000000E+00  0.45593999997E+02  0.45594000000E+02  0.51100000000E-03 0. -1.
         11   -1    0    0    0    0 -0.00000000000E+00 -0.00000000000E+00 -0.45593999997E+02  0.45594000000E+02  0.51100000000E-03 0.  1.
    9900012    2    1    2    0    0  0.22970319214E+02  0.21286814476E+02 -0.59963357397E+01  0.59301951678E+02  0.50000013952E+02 0.  0.
         12    1    1    2    0    0 -0.22970319214E+02 -0.21286814476E+02  0.59963357397E+01  0.31886048322E+02  0.00000000000E+00 0. -1.
         11    1    3    3    0    0  0.15746668892E+02  0.10831721483E+02  0.51507644265E+01  0.19794295793E+02  0.51100000000E-03 0. -1.
        -11    1    3    3    0    0  0.15694682958E+02  0.14746391443E+02 -0.17778095564E+02  0.27925612184E+02  0.51100000000E-03 0.  1.
         12    1    3    3    0    0 -0.84710326369E+01 -0.42912984504E+01  0.66309953974E+01  0.11582043701E+02  0.00000000000E+00 0. -1.
</event>
<event>
 7    1  0.6593656E-013  0.5930194E+02  0.7816164E-02  0.1266605E+00
        -11   -1    0    0    0    0  0.00000000000E+00  0.00000000000E+00  0.45593999997E+02  0.45594000000E+02  0.51100000000E-03 0.  1.
         11   -1    0    0    0    0 -0.00000000000E+00 -0.00000000000E+00 -0.45593999997E+02  0.45594000000E+02  0.51100000000E-03 0. -1.
    9900012    2    1    2    0    0 -0.22987085823E+02 -0.23262148673E+01  0.21975063037E+02  0.59301940574E+02  0.49999993700E+02 0.  0.
         12    1    1    2    0    0  0.22987085823E+02  0.23262148673E+01 -0.21975063037E+02  0.31886059426E+02  0.00000000000E+00 0. -1.
         11    1    3    3    0    0 -0.16288149049E+02 -0.82255406454E+00  0.31805430884E+01  0.16616144235E+02  0.51100000000E-03 0. -1.
        -11    1    3    3    0    0  0.32803752653E+00 -0.67002412340E+01 -0.10308383564E+02  0.12298927318E+02  0.51100000000E-03 0.  1.
        -12    1    3    3    0    0 -0.70269743007E+01  0.51965804313E+01  0.29102903513E+02  0.30386869020E+02  0.00000000000E+00 0.  1.
</event>
<event>
 7    1  0.6593656E-013  0.5930195E+02  0.7816164E-02  0.1266605E+00
        -11   -1    0    0    0    0  0.00000000000E+00  0.00000000000E+00  0.45593999997E+02  0.45594000000E+02  0.51100000000E-03 0.  1.
         11   -1    0    0    0    0 -0.00000000000E+00 -0.00000000000E+00 -0.45593999997E+02  0.45594000000E+02  0.51100000000E-03 0. -1.
    9900012    2    1    2    0    0  0.30469829444E+02  0.91988218530E+01  0.19213243795E+01  0.59301947921E+02  0.50000007100E+02 0.  0.
         12    1    1    2    0    0 -0.30469829444E+02 -0.91988218530E+01 -0.19213243795E+01  0.31886052079E+02  0.00000000000E+00 0. -1.
         11    1    3    3    0    0  0.12517313623E+02  0.17658560414E+01 -0.17939572980E+02  0.21946062673E+02  0.51100000000E-03 0. -1.
        -11    1    3    3    0    0 -0.18273701071E+01  0.11330511310E+02  0.73825421241E+01  0.13646307065E+02  0.51100000000E-03 0.  1.
        -12    1    3    3    0    0  0.19779885928E+02 -0.38975454980E+01  0.12478355235E+02  0.23709578183E+02  0.00000000000E+00 0.  1.
</event>
<event>
 7    1  0.6593656E-013  0.5930193E+02  0.7816164E-02  0.1266605E+00
        -11   -1    0    0    0    0  0.00000000000E+00  0.00000000000E+00  0.45593999997E+02  0.45594000000E+02  0.51100000000E-03 0. -1.
         11   -1    0    0    0    0 -0.00000000000E+00 -0.00000000000E+00 -0.45593999997E+02  0.45594000000E+02  0.51100000000E-03 0.  1.
    9900012    2    1    2    0    0 -0.22916037502E+02 -0.20501839697E+02 -0.84410626865E+01  0.59301925531E+02  0.49999966267E+02 0.  0.
         12    1    1    2    0    0  0.22916037502E+02  0.20501839697E+02  0.84410626865E+01  0.31886074469E+02  0.00000000000E+00 0. -1.
         11    1    3    3    0    0  0.11121267419E+02  0.18106940146E+00 -0.14954448837E+02  0.18637352694E+02  0.51100000000E-03 0.  1.
        -11    1    3    3    0    0 -0.74647135890E+01 -0.22453210025E+01  0.11125971651E+01  0.78740896669E+01  0.51100000000E-03 0. -1.
        -12    1    3    3    0    0 -0.26572591332E+02 -0.18437588096E+02  0.54007889858E+01  0.32790483171E+02  0.00000000000E+00 0.  1.
</event>
<event>
 7    1  0.6593656E-013  0.5930196E+02  0.7816164E-02  0.1266605E+00
        -11   -1    0    0    0    0  0.00000000000E+00  0.00000000000E+00  0.45593999997E+02  0.45594000000E+02  0.51100000000E-03 0. -1.
         11   -1    0    0    0    0 -0.00000000000E+00 -0.00000000000E+00 -0.45593999997E+02  0.45594000000E+02  0.51100000000E-03 0.  1.
    9900012    2    1    2    0    0  0.26637449840E+02 -0.60646637838E+01 -0.16443412550E+02  0.59301957645E+02  0.50000024834E+02 0.  0.
         12    1    1    2    0    0 -0.26637449840E+02  0.60646637838E+01  0.16443412550E+02  0.31886042355E+02  0.00000000000E+00 0. -1.
         11    1    3    3    0    0  0.23632130158E+02  0.17724015186E+01 -0.10004472119E+02  0.25723694244E+02  0.51100000000E-03 0. -1.
        -11    1    3    3    0    0  0.10097283735E+02 -0.13624357902E+02  0.61276888976E+01  0.18031273903E+02  0.51100000000E-03 0.  1.
         12    1    3    3    0    0 -0.70919640522E+01  0.57872925998E+01 -0.12566629329E+02  0.15546989498E+02  0.00000000000E+00 0. -1.
</event>
<event>
 7    1  0.6593656E-013  0.5930193E+02  0.7816164E-02  0.1266605E+00
        -11   -1    0    0    0    0  0.00000000000E+00  0.00000000000E+00  0.45593999997E+02  0.45594000000E+02  0.51100000000E-03 0. -1.
         11   -1    0    0    0    0 -0.00000000000E+00 -0.00000000000E+00 -0.45593999997E+02  0.45594000000E+02  0.51100000000E-03 0.  1.
    9900012    2    1    2    0    0 -0.97352755962E+01 -0.27881375679E+02 -0.12023923092E+02  0.59301930515E+02  0.49999975357E+02 0.  0.
         12    1    1    2    0    0  0.97352755962E+01  0.27881375679E+02  0.12023923092E+02  0.31886069485E+02  0.00000000000E+00 0. -1.
         11    1    3    3    0    0  0.66678382990E+01  0.23745343743E+01 -0.71940196457E+00  0.71144936941E+01  0.51100000000E-03 0. -1.
        -11    1    3    3    0    0  0.10387568339E+02 -0.17414540286E+02 -0.95846793999E+01  0.22428416547E+02  0.51100000000E-03 0.  1.
        -12    1    3    3    0    0 -0.26790682234E+02 -0.12841369767E+02 -0.17198417276E+01  0.29759020274E+02  0.00000000000E+00 0.  1.
</event>
<event>
 7    1  0.6593656E-013  0.5930195E+02  0.7816164E-02  0.1266605E+00
        -11   -1    0    0    0    0  0.00000000000E+00  0.00000000000E+00  0.45593999997E+02  0.45594000000E+02  0.51100000000E-03 0. -1.
         11   -1    0    0    0    0 -0.00000000000E+00 -0.00000000000E+00 -0.45593999997E+02  0.45594000000E+02  0.51100000000E-03 0.  1.
    9900012    2    1    2    0    0 -0.12233595881E+02  0.21585929746E+02 -0.20027648917E+02  0.59301953642E+02  0.50000017535E+02 0.  0.
         12    1    1    2    0    0  0.12233595881E+02 -0.21585929746E+02  0.20027648917E+02  0.31886046358E+02  0.00000000000E+00 0. -1.
         11    1    3    3    0    0  0.39099501934E+01  0.20711268474E+02 -0.95758464717E+01  0.23150403630E+02  0.51100000000E-03 0. -1.
        -11    1    3    3    0    0 -0.81468162604E+01 -0.38603240892E+01 -0.20542319562E+02  0.22433448476E+02  0.51100000000E-03 0.  1.
         12    1    3    3    0    0 -0.79967298144E+01  0.47349853612E+01  0.10090517117E+02  0.13718101537E+02  0.00000000000E+00 0. -1.
</event>
<event>
 7    1  0.6593656E-013  0.5930194E+02  0.7816164E-02  0.1266605E+00
        -11   -1    0    0    0    0  0.00000000000E+00  0.00000000000E+00  0.45593999997E+02  0.45594000000E+02  0.51100000000E-03 0. -1.
         11   -1    0    0    0    0 -0.00000000000E+00 -0.00000000000E+00 -0.45593999997E+02  0.45594000000E+02  0.51100000000E-03 0.  1.
    9900012    2    1    2    0    0  0.30822218236E+02 -0.49482355793E+01 -0.64981955827E+01  0.59301941633E+02  0.49999995632E+02 0.  0.
         12    1    1    2    0    0 -0.30822218236E+02  0.49482355793E+01  0.64981955827E+01  0.31886058367E+02  0.00000000000E+00 0. -1.
         11    1    3    3    0    0  0.44320464425E+01 -0.67418964888E+01 -0.21123712726E+02  0.22612108339E+02  0.51100000000E-03 0.  1.
        -11    1    3    3    0    0  0.28244420673E+01  0.24703766003E+01  0.12462753703E+02  0.13015393335E+02  0.51100000000E-03 0. -1.
         12    1    3    3    0    0  0.23565729727E+02 -0.67671569073E+00  0.21627634398E+01  0.23674439959E+02  0.00000000000E+00 0. -1.
</event>
<event>
 7    1  0.6593656E-013  0.5930194E+02  0.7816164E-02  0.1266605E+00
        -11   -1    0    0    0    0  0.00000000000E+00  0.00000000000E+00  0.45593999997E+02  0.45594000000E+02  0.51100000000E-03 0.  1.
         11   -1    0    0    0    0 -0.00000000000E+00 -0.00000000000E+00 -0.45593999997E+02  0.45594000000E+02  0.51100000000E-03 0. -1.
    9900012    2    1    2    0    0 -0.28512985731E+01 -0.36680146705E+01  0.31545786999E+02  0.59301938585E+02  0.49999990074E+02 0.  0.
         12    1    1    2    0    0  0.28512985731E+01  0.36680146705E+01 -0.31545786999E+02  0.31886061415E+02  0.00000000000E+00 0. -1.
         11    1    3    3    0    0  0.12229952215E+00  0.55605966454E+01  0.16765902451E+01  0.58091434254E+01  0.51100000000E-03 0. -1.
        -11    1    3    3    0    0 -0.19508383048E+02  0.40663911072E+01  0.45157124437E+01  0.20432919638E+02  0.51100000000E-03 0.  1.
         12    1    3    3    0    0  0.16534784953E+02 -0.13295002423E+02  0.25353484310E+02  0.33059875522E+02  0.00000000000E+00 0. -1.
</event>
<event>
 7    1  0.6593656E-013  0.5930186E+02  0.7816164E-02  0.1266605E+00
        -11   -1    0    0    0    0  0.00000000000E+00  0.00000000000E+00  0.45593999997E+02  0.45594000000E+02  0.51100000000E-03 0. -1.
         11   -1    0    0    0    0 -0.00000000000E+00 -0.00000000000E+00 -0.45593999997E+02  0.45594000000E+02  0.51100000000E-03 0.  1.
    9900012    2    1    2    0    0 -0.15320109027E+02  0.81391492017E+01 -0.26753957017E+02  0.59301863414E+02  0.49999852980E+02 0.  0.
         12    1    1    2    0    0  0.15320109027E+02 -0.81391492017E+01  0.26753957017E+02  0.31886136586E+02  0.00000000000E+00 0. -1.
         11    1    3    3    0    0  0.71556243065E+01  0.27603231483E+01 -0.35663884759E+01  0.84582190868E+01  0.51100000000E-03 0.  1.
        -11    1    3    3    0    0 -0.11688570679E+02 -0.72752629574E+01  0.76926864449E+01  0.15771162310E+02  0.51100000000E-03 0. -1.
         12    1    3    3    0    0 -0.10787162655E+02  0.12654089011E+02 -0.30880254986E+02  0.35072482017E+02  0.00000000000E+00 0. -1.
</event>
<event>
 7    1  0.6593656E-013  0.5930188E+02  0.7816164E-02  0.1266605E+00
        -11   -1    0    0    0    0  0.00000000000E+00  0.00000000000E+00  0.45593999997E+02  0.45594000000E+02  0.51100000000E-03 0.  1.
         11   -1    0    0    0    0 -0.00000000000E+00 -0.00000000000E+00 -0.45593999997E+02  0.45594000000E+02  0.51100000000E-03 0. -1.
    9900012    2    1    2    0    0  0.20478225810E+02  0.21260773648E+02  0.12055972117E+02  0.59301879319E+02  0.49999881986E+02 0.  0.
         12    1    1    2    0    0 -0.20478225810E+02 -0.21260773648E+02 -0.12055972117E+02  0.31886120681E+02  0.00000000000E+00 0. -1.
         11    1    3    3    0    0 -0.96233805245E+01  0.11858114483E+02  0.14485104644E+02  0.21048576879E+02  0.51100000000E-03 0. -1.
        -11    1    3    3    0    0  0.61246104174E+01 -0.58075188178E+01  0.36823557014E+01  0.92085759679E+01  0.51100000000E-03 0.  1.
        -12    1    3    3    0    0  0.23976995917E+02  0.15210177982E+02 -0.61114882287E+01  0.29044726472E+02  0.00000000000E+00 0.  1.
</event>
<event>
 7    1  0.6593656E-013  0.5930195E+02  0.7816164E-02  0.1266605E+00
        -11   -1    0    0    0    0  0.00000000000E+00  0.00000000000E+00  0.45593999997E+02  0.45594000000E+02  0.51100000000E-03 0.  1.
         11   -1    0    0    0    0 -0.00000000000E+00 -0.00000000000E+00 -0.45593999997E+02  0.45594000000E+02  0.51100000000E-03 0. -1.
    9900012    2    1    2    0    0  0.22128084224E+02  0.22867476892E+02  0.20362806872E+01  0.59301952113E+02  0.50000014745E+02 0.  0.
         12    1    1    2    0    0 -0.22128084224E+02 -0.22867476892E+02 -0.20362806872E+01  0.31886047887E+02  0.00000000000E+00 0. -1.
         11    1    3    3    0    0  0.45029816023E+01 -0.26075685071E+00 -0.70864020890E+01  0.84001150155E+01  0.51100000000E-03 0. -1.
        -11    1    3    3    0    0  0.28164729645E+02  0.85544342582E+01  0.13512171175E+02  0.32388410143E+02  0.51100000000E-03 0.  1.
         12    1    3    3    0    0 -0.10539627023E+02  0.14573799484E+02 -0.43894883986E+01  0.18513426955E+02  0.00000000000E+00 0. -1.
</event>
<event>
 7    1  0.6593656E-013  0.5930194E+02  0.7816164E-02  0.1266605E+00
        -11   -1    0    0    0    0  0.00000000000E+00  0.00000000000E+00  0.45593999997E+02  0.45594000000E+02  0.51100000000E-03 0. -1.
         11   -1    0    0    0    0 -0.00000000000E+00 -0.00000000000E+00 -0.45593999997E+02  0.45594000000E+02  0.51100000000E-03 0.  1.
    9900012    2    1    2    0    0  0.26613618890E+02 -0.17301714134E+02  0.30144087979E+01  0.59301942188E+02  0.49999996645E+02 0.  0.
         12    1    1    2    0    0 -0.26613618890E+02  0.17301714134E+02 -0.30144087979E+01  0.31886057812E+02  0.00000000000E+00 0. -1.
         11    1    3    3    0    0 -0.31408951857E+01 -0.83614351754E+01  0.13266287049E+02  0.15992910713E+02  0.51100000000E-03 0. -1.
        -11    1    3    3    0    0  0.52593224407E+01  0.38321123859E+01  0.79143205363E+01  0.10246073769E+02  0.51100000000E-03 0.  1.
        -12    1    3    3    0    0  0.24495191635E+02 -0.12772391345E+02 -0.18166198787E+02  0.33062957706E+02  0.00000000000E+00 0.  1.
</event>
<event>
 7    1  0.6593656E-013  0.5930195E+02  0.7816164E-02  0.1266605E+00
        -11   -1    0    0    0    0  0.00000000000E+00  0.00000000000E+00  0.45593999997E+02  0.45594000000E+02  0.51100000000E-03 0.  1.
         11   -1    0    0    0    0 -0.00000000000E+00 -0.00000000000E+00 -0.45593999997E+02  0.45594000000E+02  0.51100000000E-03 0. -1.
    9900012    2    1    2    0    0  0.53470269427E+01  0.10099026779E+02  0.29768087429E+02  0.59301951826E+02  0.50000014222E+02 0.  0.
         12    1    1    2    0    0 -0.53470269427E+01 -0.10099026779E+02 -0.29768087429E+02  0.31886048174E+02  0.00000000000E+00 0. -1.
         11    1    3    3    0    0  0.20804256136E+02  0.97759612335E+01  0.46901071450E+01  0.23460255683E+02  0.51100000000E-03 0. -1.
        -11    1    3    3    0    0 -0.62800710900E+01  0.86569802261E+01  0.40588389280E+01  0.11439264541E+02  0.51100000000E-03 0.  1.
        -12    1    3    3    0    0 -0.91771581034E+01 -0.83339146804E+01  0.21019141356E+02  0.24402431602E+02  0.00000000000E+00 0.  1.
</event>
<event>
 7    1  0.6593656E-013  0.5930199E+02  0.7816164E-02  0.1266605E+00
        -11   -1    0    0    0    0  0.00000000000E+00  0.00000000000E+00  0.45593999997E+02  0.45594000000E+02  0.51100000000E-03 0.  1.
         11   -1    0    0    0    0 -0.00000000000E+00 -0.00000000000E+00 -0.45593999997E+02  0.45594000000E+02  0.51100000000E-03 0. -1.
    9900012    2    1    2    0    0  0.22823409575E+02 -0.20052695818E+02  0.96798190033E+01  0.59301991624E+02  0.50000086805E+02 0.  0.
         12    1    1    2    0    0 -0.22823409575E+02  0.20052695818E+02 -0.96798190033E+01  0.31886008376E+02  0.00000000000E+00 0. -1.
         11    1    3    3    0    0  0.26381343723E+02 -0.90591062633E+01 -0.37652056272E+01  0.28146393670E+02  0.51100000000E-03 0. -1.
        -11    1    3    3    0    0  0.31600190133E+01  0.68462849272E+01  0.86964097761E+01  0.11510207675E+02  0.51100000000E-03 0.  1.
        -12    1    3    3    0    0 -0.67179531614E+01 -0.17839874481E+02  0.47486148544E+01  0.19645390279E+02  0.00000000000E+00 0.  1.
</event>
<event>
 7    1  0.6593656E-013  0.5930195E+02  0.7816164E-02  0.1266605E+00
        -11   -1    0    0    0    0  0.00000000000E+00  0.00000000000E+00  0.45593999997E+02  0.45594000000E+02  0.51100000000E-03 0.  1.
         11   -1    0    0    0    0 -0.00000000000E+00 -0.00000000000E+00 -0.45593999997E+02  0.45594000000E+02  0.51100000000E-03 0. -1.
    9900012    2    1    2    0    0 -0.66776434506E+01  0.19324884467E+02  0.24467899144E+02  0.59301950225E+02  0.50000011303E+02 0.  0.
         12    1    1    2    0    0  0.66776434506E+01 -0.19324884467E+02 -0.24467899144E+02  0.31886049775E+02  0.00000000000E+00 0. -1.
         11    1    3    3    0    0 -0.76088727379E+01  0.24130238728E+02  0.15681226629E+02  0.29766831109E+02  0.51100000000E-03 0. -1.
        -11    1    3    3    0    0  0.10411195738E+02  0.35939327258E+01 -0.38269420025E+01  0.11659967173E+02  0.51100000000E-03 0.  1.
        -12    1    3    3    0    0 -0.94799664506E+01 -0.83992869869E+01  0.12613614517E+02  0.17875151943E+02  0.00000000000E+00 0.  1.
</event>
<event>
 7    1  0.6593656E-013  0.5930194E+02  0.7816164E-02  0.1266605E+00
        -11   -1    0    0    0    0  0.00000000000E+00  0.00000000000E+00  0.45593999997E+02  0.45594000000E+02  0.51100000000E-03 0.  1.
         11   -1    0    0    0    0 -0.00000000000E+00 -0.00000000000E+00 -0.45593999997E+02  0.45594000000E+02  0.51100000000E-03 0. -1.
    9900012    2    1    2    0    0  0.14168637777E+01  0.31213984198E+02  0.63561541069E+01  0.59301937096E+02  0.49999987358E+02 0.  0.
         12    1    1    2    0    0 -0.14168637777E+01 -0.31213984198E+02 -0.63561541069E+01  0.31886062904E+02  0.00000000000E+00 0. -1.
         11    1    3    3    0    0  0.11244104529E+02  0.12470770115E+01  0.11403360866E+02  0.16063054723E+02  0.51100000000E-03 0. -1.
        -11    1    3    3    0    0  0.13177904318E+01 -0.10285740294E+01  0.77303555489E+01  0.79090412396E+01  0.51100000000E-03 0.  1.
        -12    1    3    3    0    0 -0.11145031184E+02  0.30995481216E+02 -0.12777562308E+02  0.35329841133E+02  0.00000000000E+00 0.  1.
</event>
<event>
 7    1  0.6593656E-013  0.5930194E+02  0.7816164E-02  0.1266605E+00
        -11   -1    0    0    0    0  0.00000000000E+00  0.00000000000E+00  0.45593999997E+02  0.45594000000E+02  0.51100000000E-03 0.  1.
         11   -1    0    0    0    0 -0.00000000000E+00 -0.00000000000E+00 -0.45593999997E+02  0.45594000000E+02  0.51100000000E-03 0. -1.
    9900012    2    1    2    0    0  0.13521789852E+02  0.22201735180E+01  0.28791546218E+02  0.59301935569E+02  0.49999984574E+02 0.  0.
         12    1    1    2    0    0 -0.13521789852E+02 -0.22201735180E+01 -0.28791546218E+02  0.31886064431E+02  0.00000000000E+00 0. -1.
         11    1    3    3    0    0  0.59002364183E+01  0.33068475798E+00 -0.39985651336E+00  0.59230083314E+01  0.51100000000E-03 0. -1.
        -11    1    3    3    0    0  0.23391682624E+02  0.36863330106E+01  0.46198597081E+01  0.24126810212E+02  0.51100000000E-03 0.  1.
        -12    1    3    3    0    0 -0.15770129190E+02 -0.17968442505E+01  0.24571543023E+02  0.29252117026E+02  0.00000000000E+00 0.  1.
</event>
<event>
 7    1  0.6593656E-013  0.5930194E+02  0.7816164E-02  0.1266605E+00
        -11   -1    0    0    0    0  0.00000000000E+00  0.00000000000E+00  0.45593999997E+02  0.45594000000E+02  0.51100000000E-03 0.  1.
         11   -1    0    0    0    0 -0.00000000000E+00 -0.00000000000E+00 -0.45593999997E+02  0.45594000000E+02  0.51100000000E-03 0. -1.
    9900012    2    1    2    0    0  0.26697764953E+01 -0.21938792081E+02  0.22984397469E+02  0.59301939856E+02  0.49999992392E+02 0.  0.
         12    1    1    2    0    0 -0.26697764953E+01  0.21938792081E+02 -0.22984397469E+02  0.31886060144E+02  0.00000000000E+00 0. -1.
         11    1    3    3    0    0 -0.28993789692E+01  0.36722852627E+00  0.17437469469E+02  0.17680684289E+02  0.51100000000E-03 0. -1.
        -11    1    3    3    0    0  0.94751091455E+00 -0.23178848635E+02  0.17315297529E+02  0.28947820812E+02  0.51100000000E-03 0.  1.
         12    1    3    3    0    0  0.46216445500E+01  0.87282802866E+00 -0.11768369529E+02  0.12673434755E+02  0.00000000000E+00 0. -1.
</event>
<event>
 7    1  0.6593656E-013  0.5930193E+02  0.7816164E-02  0.1266605E+00
        -11   -1    0    0    0    0  0.00000000000E+00  0.00000000000E+00  0.45593999997E+02  0.45594000000E+02  0.51100000000E-03 0. -1.
         11   -1    0    0    0    0 -0.00000000000E+00 -0.00000000000E+00 -0.45593999997E+02  0.45594000000E+02  0.51100000000E-03 0.  1.
    9900012    2    1    2    0    0 -0.25508836988E+02 -0.95176981509E+00 -0.19107975411E+02  0.59301931654E+02  0.49999977434E+02 0.  0.
         12    1    1    2    0    0  0.25508836988E+02  0.95176981509E+00  0.19107975411E+02  0.31886068346E+02  0.00000000000E+00 0. -1.
         11    1    3    3    0    0  0.36189672170E+01 -0.42735305790E+01  0.27669726465E+01  0.62462889155E+01  0.51100000000E-03 0. -1.
        -11    1    3    3    0    0  0.64468960001E+01 -0.25861521552E+01  0.45890578521E+01  0.83252689588E+01  0.51100000000E-03 0.  1.
        -12    1    3    3    0    0 -0.35574700205E+02  0.59079129191E+01 -0.26464005909E+02  0.44730373780E+02  0.00000000000E+00 0.  1.
</event>
<event>
 7    1  0.6593656E-013  0.5930197E+02  0.7816164E-02  0.1266605E+00
        -11   -1    0    0    0    0  0.00000000000E+00  0.00000000000E+00  0.45593999997E+02  0.45594000000E+02  0.51100000000E-03 0. -1.
         11   -1    0    0    0    0 -0.00000000000E+00 -0.00000000000E+00 -0.45593999997E+02  0.45594000000E+02  0.51100000000E-03 0.  1.
    9900012    2    1    2    0    0  0.30368935275E+02  0.84834276540E+01 -0.47411401028E+01  0.59301965691E+02  0.50000039509E+02 0.  0.
         12    1    1    2    0    0 -0.30368935275E+02 -0.84834276540E+01  0.47411401028E+01  0.31886034309E+02  0.00000000000E+00 0. -1.
         11    1    3    3    0    0  0.56065642403E+01  0.15533140560E+02 -0.15647072922E+02  0.22749569436E+02  0.51100000000E-03 0. -1.
        -11    1    3    3    0    0  0.55928647814E+01  0.43115707974E+01 -0.54419620640E+01  0.89154209419E+01  0.51100000000E-03 0.  1.
         12    1    3    3    0    0  0.19169506253E+02 -0.11361283703E+02  0.16347894883E+02  0.27636975313E+02  0.00000000000E+00 0. -1.
</event>
<event>
 7    1  0.6593656E-013  0.5930195E+02  0.7816164E-02  0.1266605E+00
        -11   -1    0    0    0    0  0.00000000000E+00  0.00000000000E+00  0.45593999997E+02  0.45594000000E+02  0.51100000000E-03 0.  1.
         11   -1    0    0    0    0 -0.00000000000E+00 -0.00000000000E+00 -0.45593999997E+02  0.45594000000E+02  0.51100000000E-03 0. -1.
    9900012    2    1    2    0    0 -0.22696639831E+02 -0.13562671043E+02  0.17822368207E+02  0.59301947972E+02  0.50000007193E+02 0.  0.
         12    1    1    2    0    0  0.22696639831E+02  0.13562671043E+02 -0.17822368207E+02  0.31886052028E+02  0.00000000000E+00 0. -1.
         11    1    3    3    0    0 -0.30990021741E+01 -0.13774104120E+02  0.11656075350E+02  0.18308300074E+02  0.51100000000E-03 0. -1.
        -11    1    3    3    0    0 -0.94917265877E+01 -0.16839712019E+02  0.83418684575E+01  0.21053634938E+02  0.51100000000E-03 0.  1.
         12    1    3    3    0    0 -0.10105911069E+02  0.17051145096E+02 -0.21755756001E+01  0.19940012959E+02  0.00000000000E+00 0. -1.
</event>
<event>
 7    1  0.6593656E-013  0.5930195E+02  0.7816164E-02  0.1266605E+00
        -11   -1    0    0    0    0  0.00000000000E+00  0.00000000000E+00  0.45593999997E+02  0.45594000000E+02  0.51100000000E-03 0.  1.
         11   -1    0    0    0    0 -0.00000000000E+00 -0.00000000000E+00 -0.45593999997E+02  0.45594000000E+02  0.51100000000E-03 0. -1.
    9900012    2    1    2    0    0 -0.84359114929E+01 -0.29043331825E+02  0.10101497267E+02  0.59301953314E+02  0.50000016936E+02 0.  0.
         12    1    1    2    0    0  0.84359114929E+01  0.29043331825E+02 -0.10101497267E+02  0.31886046686E+02  0.00000000000E+00 0. -1.
         11    1    3    3    0    0  0.78482692098E+01 -0.25021690015E+01  0.15399240489E+02  0.17464042694E+02  0.51100000000E-03 0. -1.
        -11    1    3    3    0    0 -0.10516790028E+02 -0.20928243210E+02  0.92741562768E+01  0.25191351914E+02  0.51100000000E-03 0.  1.
         12    1    3    3    0    0 -0.57673906743E+01 -0.56129196138E+01 -0.14571899499E+02  0.16646558707E+02  0.00000000000E+00 0. -1.
</event>
<event>
 7    1  0.6593656E-013  0.5930195E+02  0.7816164E-02  0.1266605E+00
        -11   -1    0    0    0    0  0.00000000000E+00  0.00000000000E+00  0.45593999997E+02  0.45594000000E+02  0.51100000000E-03 0. -1.
         11   -1    0    0    0    0 -0.00000000000E+00 -0.00000000000E+00 -0.45593999997E+02  0.45594000000E+02  0.51100000000E-03 0.  1.
    9900012    2    1    2    0    0  0.28338012911E+02 -0.14617349517E+02 -0.10029541626E+00  0.59301953807E+02  0.50000017835E+02 0.  0.
         12    1    1    2    0    0 -0.28338012911E+02  0.14617349517E+02  0.10029541626E+00  0.31886046193E+02  0.00000000000E+00 0. -1.
         11    1    3    3    0    0  0.75805617458E+01 -0.71346158560E+01 -0.57126704658E+01  0.11874437414E+02  0.51100000000E-03 0. -1.
        -11    1    3    3    0    0  0.73291977541E+01 -0.50269750317E+01 -0.18044566866E+02  0.20114522399E+02  0.51100000000E-03 0.  1.
         12    1    3    3    0    0  0.13428253411E+02 -0.24557586298E+01  0.23656941915E+02  0.27312993994E+02  0.00000000000E+00 0. -1.
</event>
<event>
 7    1  0.6593656E-013  0.5930194E+02  0.7816164E-02  0.1266605E+00
        -11   -1    0    0    0    0  0.00000000000E+00  0.00000000000E+00  0.45593999997E+02  0.45594000000E+02  0.51100000000E-03 0.  1.
         11   -1    0    0    0    0 -0.00000000000E+00 -0.00000000000E+00 -0.45593999997E+02  0.45594000000E+02  0.51100000000E-03 0. -1.
    9900012    2    1    2    0    0 -0.26577089305E+02 -0.16165872846E+02  0.70030981597E+01  0.59301944981E+02  0.50000001739E+02 0.  0.
         12    1    1    2    0    0  0.26577089305E+02  0.16165872846E+02 -0.70030981597E+01  0.31886055019E+02  0.00000000000E+00 0. -1.
         11    1    3    3    0    0 -0.36545006070E+01 -0.94100607872E+01  0.80449054441E+00  0.10126787447E+02  0.51100000000E-03 0. -1.
        -11    1    3    3    0    0 -0.11228880214E+00 -0.45339538587E+01  0.21268175970E+02  0.21746371093E+02  0.51100000000E-03 0.  1.
        -12    1    3    3    0    0 -0.22810299896E+02 -0.22218582003E+01 -0.15069568355E+02  0.27428786441E+02  0.00000000000E+00 0.  1.
</event>
<event>
 7    1  0.6593656E-013  0.5930194E+02  0.7816164E-02  0.1266605E+00
        -11   -1    0    0    0    0  0.00000000000E+00  0.00000000000E+00  0.45593999997E+02  0.45594000000E+02  0.51100000000E-03 0. -1.
         11   -1    0    0    0    0 -0.00000000000E+00 -0.00000000000E+00 -0.45593999997E+02  0.45594000000E+02  0.51100000000E-03 0.  1.
    9900012    2    1    2    0    0 -0.23928224730E+02  0.20700431098E+02  0.39564018819E+01  0.59301938748E+02  0.49999990370E+02 0.  0.
         12    1    1    2    0    0  0.23928224730E+02 -0.20700431098E+02 -0.39564018819E+01  0.31886061252E+02  0.00000000000E+00 0. -1.
         11    1    3    3    0    0  0.10295125159E+02  0.12022386285E+02  0.11369570505E+01  0.15868838824E+02  0.51100000000E-03 0. -1.
        -11    1    3    3    0    0 -0.26069193095E+02  0.12562484481E+02 -0.73245566665E+01  0.29850761725E+02  0.51100000000E-03 0.  1.
         12    1    3    3    0    0 -0.81541567934E+01 -0.38844396687E+01  0.10144001498E+02  0.13582338199E+02  0.00000000000E+00 0. -1.
</event>
<event>
 7    1  0.6593656E-013  0.5930194E+02  0.7816164E-02  0.1266605E+00
        -11   -1    0    0    0    0  0.00000000000E+00  0.00000000000E+00  0.45593999997E+02  0.45594000000E+02  0.51100000000E-03 0.  1.
         11   -1    0    0    0    0 -0.00000000000E+00 -0.00000000000E+00 -0.45593999997E+02  0.45594000000E+02  0.51100000000E-03 0. -1.
    9900012    2    1    2    0    0  0.29682297790E+02  0.53345505881E+01  0.10354935435E+02  0.59301938470E+02  0.49999989863E+02 0.  0.
         12    1    1    2    0    0 -0.29682297790E+02 -0.53345505881E+01 -0.10354935435E+02  0.31886061530E+02  0.00000000000E+00 0. -1.
         11    1    3    3    0    0  0.29084512545E+02  0.61825858354E+01  0.11696885279E+02  0.31952313892E+02  0.51100000000E-03 0. -1.
        -11    1    3    3    0    0  0.79970016131E+01 -0.10353104137E+02  0.46656375025E+01  0.13889095494E+02  0.51100000000E-03 0.  1.
         12    1    3    3    0    0 -0.73992163681E+01  0.95050688902E+01 -0.60075873467E+01  0.13460529083E+02  0.00000000000E+00 0. -1.
</event>
<event>
 7    1  0.6593656E-013  0.5930195E+02  0.7816164E-02  0.1266605E+00
        -11   -1    0    0    0    0  0.00000000000E+00  0.00000000000E+00  0.45593999997E+02  0.45594000000E+02  0.51100000000E-03 0.  1.
         11   -1    0    0    0    0 -0.00000000000E+00 -0.00000000000E+00 -0.45593999997E+02  0.45594000000E+02  0.51100000000E-03 0. -1.
    9900012    2    1    2    0    0 -0.14458242556E+02 -0.28168190565E+02  0.37725915847E+01  0.59301949997E+02  0.50000010887E+02 0.  0.
         12    1    1    2    0    0  0.14458242556E+02  0.28168190565E+02 -0.37725915847E+01  0.31886050003E+02  0.00000000000E+00 0. -1.
         11    1    3    3    0    0 -0.25366432189E+02 -0.84769453726E+01  0.99250156785E+01  0.28527537948E+02  0.51100000000E-03 0. -1.
        -11    1    3    3    0    0  0.67340519756E+01  0.22001400693E+01  0.14430445070E+01  0.72298305682E+01  0.51100000000E-03 0.  1.
         12    1    3    3    0    0  0.41741376578E+01 -0.21891385262E+02 -0.75954686009E+01  0.23544581481E+02  0.00000000000E+00 0. -1.
</event>
<event>
 7    1  0.6593656E-013  0.5930195E+02  0.7816164E-02  0.1266605E+00
        -11   -1    0    0    0    0  0.00000000000E+00  0.00000000000E+00  0.45593999997E+02  0.45594000000E+02  0.51100000000E-03 0.  1.
         11   -1    0    0    0    0 -0.00000000000E+00 -0.00000000000E+00 -0.45593999997E+02  0.45594000000E+02  0.51100000000E-03 0. -1.
    9900012    2    1    2    0    0  0.73168380363E+01 -0.27871285850E+02  0.13651938653E+02  0.59301950970E+02  0.50000012660E+02 0.  0.
         12    1    1    2    0    0 -0.73168380363E+01  0.27871285850E+02 -0.13651938653E+02  0.31886049030E+02  0.00000000000E+00 0. -1.
         11    1    3    3    0    0  0.13669969043E+02 -0.79272130357E+01 -0.46608974121E+01  0.16475215479E+02  0.51100000000E-03 0.  1.
        -11    1    3    3    0    0 -0.19721804364E+01  0.27420232807E+01 -0.74746657183E+01  0.82023664395E+01  0.51100000000E-03 0. -1.
        -12    1    3    3    0    0 -0.43809505702E+01 -0.22686096095E+02  0.25787501784E+02  0.34624369051E+02  0.00000000000E+00 0.  1.
</event>
<event>
 7    1  0.6593656E-013  0.5930197E+02  0.7816164E-02  0.1266605E+00
        -11   -1    0    0    0    0  0.00000000000E+00  0.00000000000E+00  0.45593999997E+02  0.45594000000E+02  0.51100000000E-03 0.  1.
         11   -1    0    0    0    0 -0.00000000000E+00 -0.00000000000E+00 -0.45593999997E+02  0.45594000000E+02  0.51100000000E-03 0. -1.
    9900012    2    1    2    0    0  0.24967101084E+02  0.17153047561E+02  0.99566998055E+01  0.59301967820E+02  0.50000043392E+02 0.  0.
         12    1    1    2    0    0 -0.24967101084E+02 -0.17153047561E+02 -0.99566998055E+01  0.31886032180E+02  0.00000000000E+00 0. -1.
         11    1    3    3    0    0 -0.34077965262E+01  0.10090396307E+02 -0.11529485176E+02  0.15695802098E+02  0.51100000000E-03 0. -1.
        -11    1    3    3    0    0  0.86281845054E+01  0.14068435385E+02  0.60345021168E+01  0.17572184216E+02  0.51100000000E-03 0.  1.
        -12    1    3    3    0    0  0.19746713104E+02 -0.70057841319E+01  0.15451682865E+02  0.26033981507E+02  0.00000000000E+00 0.  1.
</event>
<event>
 7    1  0.6593656E-013  0.5930195E+02  0.7816164E-02  0.1266605E+00
        -11   -1    0    0    0    0  0.00000000000E+00  0.00000000000E+00  0.45593999997E+02  0.45594000000E+02  0.51100000000E-03 0.  1.
         11   -1    0    0    0    0 -0.00000000000E+00 -0.00000000000E+00 -0.45593999997E+02  0.45594000000E+02  0.51100000000E-03 0. -1.
    9900012    2    1    2    0    0 -0.24249031352E+02 -0.15353136083E+02 -0.13891937542E+02  0.59301949166E+02  0.50000009371E+02 0.  0.
         12    1    1    2    0    0  0.24249031352E+02  0.15353136083E+02  0.13891937542E+02  0.31886050834E+02  0.00000000000E+00 0. -1.
         11    1    3    3    0    0 -0.87958580838E+01 -0.12663754103E+02 -0.57383320418E+01  0.16451937342E+02  0.51100000000E-03 0. -1.
        -11    1    3    3    0    0 -0.23606683414E+02  0.16784732223E+01 -0.17703359289E+02  0.29555062250E+02  0.51100000000E-03 0.  1.
        -12    1    3    3    0    0  0.81535101457E+01 -0.43678552014E+01  0.95497537891E+01  0.13294949575E+02  0.00000000000E+00 0.  1.
</event>
<event>
 7    1  0.6593656E-013  0.5930191E+02  0.7816164E-02  0.1266605E+00
        -11   -1    0    0    0    0  0.00000000000E+00  0.00000000000E+00  0.45593999997E+02  0.45594000000E+02  0.51100000000E-03 0. -1.
         11   -1    0    0    0    0 -0.00000000000E+00 -0.00000000000E+00 -0.45593999997E+02  0.45594000000E+02  0.51100000000E-03 0.  1.
    9900012    2    1    2    0    0 -0.25098364912E+02 -0.17935102356E+02 -0.80701243763E+01  0.59301910161E+02  0.49999938235E+02 0.  0.
         12    1    1    2    0    0  0.25098364912E+02  0.17935102356E+02  0.80701243763E+01  0.31886089839E+02  0.00000000000E+00 0. -1.
         11    1    3    3    0    0 -0.21688956488E+01 -0.16025615631E+02  0.62677350944E+01  0.17343845253E+02  0.51100000000E-03 0. -1.
        -11    1    3    3    0    0 -0.99335136780E+01 -0.16480865178E+02 -0.10953381788E+02  0.22142045611E+02  0.51100000000E-03 0.  1.
         12    1    3    3    0    0 -0.12995955585E+02  0.14571378453E+02 -0.33844776830E+01  0.19816019297E+02  0.00000000000E+00 0. -1.
</event>
<event>
 7    1  0.6593656E-013  0.5930190E+02  0.7816164E-02  0.1266605E+00
        -11   -1    0    0    0    0  0.00000000000E+00  0.00000000000E+00  0.45593999997E+02  0.45594000000E+02  0.51100000000E-03 0.  1.
         11   -1    0    0    0    0 -0.00000000000E+00 -0.00000000000E+00 -0.45593999997E+02  0.45594000000E+02  0.51100000000E-03 0. -1.
    9900012    2    1    2    0    0 -0.24312860311E+02  0.12982270622E+02  0.16033370278E+02  0.59301898177E+02  0.49999916379E+02 0.  0.
         12    1    1    2    0    0  0.24312860311E+02 -0.12982270622E+02 -0.16033370278E+02  0.31886101823E+02  0.00000000000E+00 0. -1.
         11    1    3    3    0    0 -0.68236844653E+01 -0.99644539196E+01 -0.20658394732E+01  0.12252375467E+02  0.51100000000E-03 0. -1.
        -11    1    3    3    0    0  0.29281049104E+01  0.12044990923E+02  0.20315014433E+02  0.23798222967E+02  0.51100000000E-03 0.  1.
         12    1    3    3    0    0 -0.20417280756E+02  0.10901733619E+02 -0.22158046813E+01  0.23251299743E+02  0.00000000000E+00 0. -1.
</event>
<event>
 7    1  0.6593656E-013  0.5930196E+02  0.7816164E-02  0.1266605E+00
        -11   -1    0    0    0    0  0.00000000000E+00  0.00000000000E+00  0.45593999997E+02  0.45594000000E+02  0.51100000000E-03 0. -1.
         11   -1    0    0    0    0 -0.00000000000E+00 -0.00000000000E+00 -0.45593999997E+02  0.45594000000E+02  0.51100000000E-03 0.  1.
    9900012    2    1    2    0    0  0.49599364426E+01 -0.27060784849E+02 -0.16119315292E+02  0.59301962748E+02  0.50000034141E+02 0.  0.
         12    1    1    2    0    0 -0.49599364426E+01  0.27060784849E+02  0.16119315292E+02  0.31886037252E+02  0.00000000000E+00 0. -1.
         11    1    3    3    0    0  0.23991258346E+01 -0.60957893290E+01 -0.17684009943E+02  0.18858384348E+02  0.51100000000E-03 0. -1.
        -11    1    3    3    0    0 -0.68862656176E+01 -0.24974925012E+02 -0.72637275497E+01  0.26905933764E+02  0.51100000000E-03 0.  1.
         12    1    3    3    0    0  0.94470762256E+01  0.40099294917E+01  0.88284222001E+01  0.13537644636E+02  0.00000000000E+00 0. -1.
</event>
<event>
 7    1  0.6593656E-013  0.5930194E+02  0.7816164E-02  0.1266605E+00
        -11   -1    0    0    0    0  0.00000000000E+00  0.00000000000E+00  0.45593999997E+02  0.45594000000E+02  0.51100000000E-03 0.  1.
         11   -1    0    0    0    0 -0.00000000000E+00 -0.00000000000E+00 -0.45593999997E+02  0.45594000000E+02  0.51100000000E-03 0. -1.
    9900012    2    1    2    0    0 -0.38318638371E+01 -0.68018416426E+01  0.30915571466E+02  0.59301940518E+02  0.49999993600E+02 0.  0.
         12    1    1    2    0    0  0.38318638371E+01  0.68018416426E+01 -0.30915571466E+02  0.31886059482E+02  0.00000000000E+00 0. -1.
         11    1    3    3    0    0 -0.63610664756E+01 -0.45562076106E+01  0.41047119539E+02  0.41786220423E+02  0.51100000000E-03 0. -1.
        -11    1    3    3    0    0 -0.31575728542E+01 -0.34458921141E+00  0.21589414982E+01  0.38405776529E+01  0.51100000000E-03 0.  1.
         12    1    3    3    0    0  0.56867754927E+01 -0.19010448205E+01 -0.12290489571E+02  0.13675142442E+02  0.00000000000E+00 0. -1.
</event>
<event>
 7    1  0.6593656E-013  0.5930194E+02  0.7816164E-02  0.1266605E+00
        -11   -1    0    0    0    0  0.00000000000E+00  0.00000000000E+00  0.45593999997E+02  0.45594000000E+02  0.51100000000E-03 0.  1.
         11   -1    0    0    0    0 -0.00000000000E+00 -0.00000000000E+00 -0.45593999997E+02  0.45594000000E+02  0.51100000000E-03 0. -1.
    9900012    2    1    2    0    0  0.18112504574E+02  0.21388493427E+02  0.15204935272E+02  0.59301944589E+02  0.50000001024E+02 0.  0.
         12    1    1    2    0    0 -0.18112504574E+02 -0.21388493427E+02 -0.15204935272E+02  0.31886055411E+02  0.00000000000E+00 0. -1.
         11    1    3    3    0    0 -0.30199847063E+01 -0.19593870664E+01  0.50309131858E+01  0.61862422396E+01  0.51100000000E-03 0. -1.
        -11    1    3    3    0    0  0.57617967700E+01 -0.29525606404E+01  0.20068093167E+02  0.21086590051E+02  0.51100000000E-03 0.  1.
        -12    1    3    3    0    0  0.15370692510E+02  0.26300441134E+02 -0.98940710805E+01  0.32029112299E+02  0.00000000000E+00 0.  1.
</event>
<event>
 7    1  0.6593656E-013  0.5930162E+02  0.7816164E-02  0.1266606E+00
        -11   -1    0    0    0    0  0.00000000000E+00  0.00000000000E+00  0.45593999997E+02  0.45594000000E+02  0.51100000000E-03 0. -1.
         11   -1    0    0    0    0 -0.00000000000E+00 -0.00000000000E+00 -0.45593999997E+02  0.45594000000E+02  0.51100000000E-03 0.  1.
    9900012    2    1    2    0    0  0.15971139214E+02  0.25743463971E+02 -0.99467699937E+01  0.59301616412E+02  0.49999402504E+02 0.  0.
         12    1    1    2    0    0 -0.15971139214E+02 -0.25743463971E+02  0.99467699937E+01  0.31886383588E+02  0.00000000000E+00 0. -1.
         11    1    3    3    0    0 -0.13208893587E+01  0.12448690691E+02  0.82942947342E+01  0.15016989513E+02  0.51100000000E-03 0. -1.
        -11    1    3    3    0    0 -0.44908460252E+01  0.17550676833E+02 -0.71892014618E+01  0.19490473910E+02  0.51100000000E-03 0.  1.
        -12    1    3    3    0    0  0.21782874598E+02 -0.42559035537E+01 -0.11051863266E+02  0.24794152989E+02  0.00000000000E+00 0.  1.
</event>
<event>
 7    1  0.6593656E-013  0.5930195E+02  0.7816164E-02  0.1266605E+00
        -11   -1    0    0    0    0  0.00000000000E+00  0.00000000000E+00  0.45593999997E+02  0.45594000000E+02  0.51100000000E-03 0.  1.
         11   -1    0    0    0    0 -0.00000000000E+00 -0.00000000000E+00 -0.45593999997E+02  0.45594000000E+02  0.51100000000E-03 0. -1.
    9900012    2    1    2    0    0 -0.27946389023E+02 -0.34197625937E+01  0.14967447915E+02  0.59301953950E+02  0.50000018095E+02 0.  0.
         12    1    1    2    0    0  0.27946389023E+02  0.34197625937E+01 -0.14967447915E+02  0.31886046050E+02  0.00000000000E+00 0. -1.
         11    1    3    3    0    0 -0.55739787991E+01  0.10696278944E+01  0.12347838026E+02  0.13589792039E+02  0.51100000000E-03 0. -1.
        -11    1    3    3    0    0 -0.24776307823E+02 -0.16285161296E+02  0.10352140644E+02  0.31404437966E+02  0.51100000000E-03 0.  1.
         12    1    3    3    0    0  0.24038975994E+01  0.11795770808E+02 -0.77325307545E+01  0.14307723945E+02  0.00000000000E+00 0. -1.
</event>
<event>
 7    1  0.6593656E-013  0.5930197E+02  0.7816164E-02  0.1266605E+00
        -11   -1    0    0    0    0  0.00000000000E+00  0.00000000000E+00  0.45593999997E+02  0.45594000000E+02  0.51100000000E-03 0.  1.
         11   -1    0    0    0    0 -0.00000000000E+00 -0.00000000000E+00 -0.45593999997E+02  0.45594000000E+02  0.51100000000E-03 0. -1.
    9900012    2    1    2    0    0 -0.90787427534E+01  0.20289466095E+02  0.22861164781E+02  0.59301970778E+02  0.50000048787E+02 0.  0.
         12    1    1    2    0    0  0.90787427534E+01 -0.20289466095E+02 -0.22861164781E+02  0.31886029222E+02  0.00000000000E+00 0. -1.
         11    1    3    3    0    0  0.79443013864E+00 -0.62029078432E+01  0.11691767931E+01  0.63619304924E+01  0.51100000000E-03 0. -1.
        -11    1    3    3    0    0 -0.10099701335E+02  0.20837354697E+01 -0.90259667049E+01  0.13704524646E+02  0.51100000000E-03 0.  1.
        -12    1    3    3    0    0  0.22652844265E+00  0.24408638468E+02  0.30717954693E+02  0.39235515640E+02  0.00000000000E+00 0.  1.
</event>
<event>
 7    1  0.6593656E-013  0.5930210E+02  0.7816164E-02  0.1266604E+00
        -11   -1    0    0    0    0  0.00000000000E+00  0.00000000000E+00  0.45593999997E+02  0.45594000000E+02  0.51100000000E-03 0.  1.
         11   -1    0    0    0    0 -0.00000000000E+00 -0.00000000000E+00 -0.45593999997E+02  0.45594000000E+02  0.51100000000E-03 0. -1.
    9900012    2    1    2    0    0 -0.30711777575E+02 -0.50554006748E+01  0.69238904333E+01  0.59302100036E+02  0.50000284521E+02 0.  0.
         12    1    1    2    0    0  0.30711777575E+02  0.50554006748E+01 -0.69238904333E+01  0.31885899964E+02  0.00000000000E+00 0. -1.
         11    1    3    3    0    0 -0.16357135925E+02  0.10619608593E+02 -0.55923254187E+01  0.20288077440E+02  0.51100000000E-03 0. -1.
        -11    1    3    3    0    0 -0.16054300783E+02 -0.16689097881E+02 -0.30188632894E+01  0.23353374436E+02  0.51100000000E-03 0.  1.
        -12    1    3    3    0    0  0.16996591339E+01  0.10140886129E+01  0.15535079141E+02  0.15660648161E+02  0.00000000000E+00 0.  1.
</event>
<event>
 7    1  0.6593656E-013  0.5930193E+02  0.7816164E-02  0.1266605E+00
        -11   -1    0    0    0    0  0.00000000000E+00  0.00000000000E+00  0.45593999997E+02  0.45594000000E+02  0.51100000000E-03 0.  1.
         11   -1    0    0    0    0 -0.00000000000E+00 -0.00000000000E+00 -0.45593999997E+02  0.45594000000E+02  0.51100000000E-03 0. -1.
    9900012    2    1    2    0    0 -0.22916543204E+02 -0.20359371441E+02  0.87777941354E+01  0.59301927370E+02  0.49999969621E+02 0.  0.
         12    1    1    2    0    0  0.22916543204E+02  0.20359371441E+02 -0.87777941354E+01  0.31886072630E+02  0.00000000000E+00 0. -1.
         11    1    3    3    0    0 -0.14308678519E+02 -0.26273543634E+02 -0.44396638998E+01  0.30244801071E+02  0.51100000000E-03 0. -1.
        -11    1    3    3    0    0 -0.88650900382E+01 -0.17839091317E+00 -0.47669249392E+01  0.10067036224E+02  0.51100000000E-03 0.  1.
        -12    1    3    3    0    0  0.25722535341E+00  0.60925631062E+01  0.17984382974E+02  0.18990090075E+02  0.00000000000E+00 0.  1.
</event>
<event>
 7    1  0.6593656E-013  0.5930191E+02  0.7816164E-02  0.1266605E+00
        -11   -1    0    0    0    0  0.00000000000E+00  0.00000000000E+00  0.45593999997E+02  0.45594000000E+02  0.51100000000E-03 0.  1.
         11   -1    0    0    0    0 -0.00000000000E+00 -0.00000000000E+00 -0.45593999997E+02  0.45594000000E+02  0.51100000000E-03 0. -1.
    9900012    2    1    2    0    0  0.23141446905E+02 -0.21442964550E+02  0.46254886590E+01  0.59301914651E+02  0.49999946424E+02 0.  0.
         12    1    1    2    0    0 -0.23141446905E+02  0.21442964550E+02 -0.46254886590E+01  0.31886085349E+02  0.00000000000E+00 0. -1.
         11    1    3    3    0    0 -0.99792909712E+01  0.41184806441E+00 -0.31557260850E+01  0.10474467743E+02  0.51100000000E-03 0. -1.
        -11    1    3    3    0    0 -0.25501062611E+01 -0.40990376469E+01 -0.50310572782E+01  0.69725668998E+01  0.51100000000E-03 0.  1.
        -12    1    3    3    0    0  0.35670844137E+02 -0.17755774968E+02  0.12812272022E+02  0.41854880008E+02  0.00000000000E+00 0.  1.
</event>
<event>
 7    1  0.6593656E-013  0.5930190E+02  0.7816164E-02  0.1266605E+00
        -11   -1    0    0    0    0  0.00000000000E+00  0.00000000000E+00  0.45593999997E+02  0.45594000000E+02  0.51100000000E-03 0. -1.
         11   -1    0    0    0    0 -0.00000000000E+00 -0.00000000000E+00 -0.45593999997E+02  0.45594000000E+02  0.51100000000E-03 0.  1.
    9900012    2    1    2    0    0  0.31290766955E+01  0.14559598603E+02 -0.28194859852E+02  0.59301903429E+02  0.49999925959E+02 0.  0.
         12    1    1    2    0    0 -0.31290766955E+01 -0.14559598603E+02  0.28194859852E+02  0.31886096571E+02  0.00000000000E+00 0. -1.
         11    1    3    3    0    0 -0.67913449061E+01 -0.29048729734E+01  0.12692918967E+01  0.74947818384E+01  0.51100000000E-03 0. -1.
        -11    1    3    3    0    0 -0.56361800867E+01 -0.86833696456E+01 -0.14582100741E+01  0.10454368047E+02  0.51100000000E-03 0.  1.
        -12    1    3    3    0    0  0.15556601688E+02  0.26147841222E+02 -0.28005941674E+02  0.41352753544E+02  0.00000000000E+00 0.  1.
</event>
<event>
 7    1  0.6593656E-013  0.5930193E+02  0.7816164E-02  0.1266605E+00
        -11   -1    0    0    0    0  0.00000000000E+00  0.00000000000E+00  0.45593999997E+02  0.45594000000E+02  0.51100000000E-03 0. -1.
         11   -1    0    0    0    0 -0.00000000000E+00 -0.00000000000E+00 -0.45593999997E+02  0.45594000000E+02  0.51100000000E-03 0.  1.
    9900012    2    1    2    0    0  0.67079930991E+01 -0.27724030685E+01 -0.31048959844E+02  0.59301932547E+02  0.49999979062E+02 0.  0.
         12    1    1    2    0    0 -0.67079930991E+01  0.27724030685E+01  0.31048959844E+02  0.31886067453E+02  0.00000000000E+00 0. -1.
         11    1    3    3    0    0 -0.26468403583E+01  0.30413564995E+01  0.42204753559E+01  0.58367821383E+01  0.51100000000E-03 0. -1.
        -11    1    3    3    0    0 -0.86439444192E+01  0.10040504101E+02 -0.22952514341E+02  0.26501837909E+02  0.51100000000E-03 0.  1.
         12    1    3    3    0    0  0.17998777877E+02 -0.15854263669E+02 -0.12316920860E+02  0.26963312500E+02  0.00000000000E+00 0. -1.
</event>
<event>
 7    1  0.6593656E-013  0.5930195E+02  0.7816164E-02  0.1266605E+00
        -11   -1    0    0    0    0  0.00000000000E+00  0.00000000000E+00  0.45593999997E+02  0.45594000000E+02  0.51100000000E-03 0.  1.
         11   -1    0    0    0    0 -0.00000000000E+00 -0.00000000000E+00 -0.45593999997E+02  0.45594000000E+02  0.51100000000E-03 0. -1.
    9900012    2    1    2    0    0 -0.15989196746E+02 -0.14876340681E+02  0.23232742875E+02  0.59301948721E+02  0.50000008560E+02 0.  0.
         12    1    1    2    0    0  0.15989196746E+02  0.14876340681E+02 -0.23232742875E+02  0.31886051279E+02  0.00000000000E+00 0. -1.
         11    1    3    3    0    0 -0.25598471110E+02  0.45850160963E+01  0.13507453368E+02  0.29304528533E+02  0.51100000000E-03 0. -1.
        -11    1    3    3    0    0  0.56920046300E+01  0.17028716323E+00  0.81155718973E+01  0.99141526066E+01  0.51100000000E-03 0.  1.
         12    1    3    3    0    0  0.39172697341E+01 -0.19631643941E+02  0.16097176098E+01  0.20083267582E+02  0.00000000000E+00 0. -1.
</event>
<event>
 7    1  0.6593656E-013  0.5930193E+02  0.7816164E-02  0.1266605E+00
        -11   -1    0    0    0    0  0.00000000000E+00  0.00000000000E+00  0.45593999997E+02  0.45594000000E+02  0.51100000000E-03 0.  1.
         11   -1    0    0    0    0 -0.00000000000E+00 -0.00000000000E+00 -0.45593999997E+02  0.45594000000E+02  0.51100000000E-03 0. -1.
    9900012    2    1    2    0    0  0.25694993886E+02  0.11183891148E+02  0.15212143615E+02  0.59301930230E+02  0.49999974836E+02 0.  0.
         12    1    1    2    0    0 -0.25694993886E+02 -0.11183891148E+02 -0.15212143615E+02  0.31886069770E+02  0.00000000000E+00 0. -1.
         11    1    3    3    0    0  0.20595892358E+02 -0.98049540743E+01  0.66468590010E+01  0.23759390591E+02  0.51100000000E-03 0. -1.
        -11    1    3    3    0    0  0.13767116333E+02  0.48799872745E+01  0.91581348487E+01  0.17240046464E+02  0.51100000000E-03 0.  1.
         12    1    3    3    0    0 -0.86680148044E+01  0.16108857948E+02 -0.59285023450E+00  0.18302493175E+02  0.00000000000E+00 0. -1.
</event>
<event>
 7    1  0.6593656E-013  0.5930194E+02  0.7816164E-02  0.1266605E+00
        -11   -1    0    0    0    0  0.00000000000E+00  0.00000000000E+00  0.45593999997E+02  0.45594000000E+02  0.51100000000E-03 0.  1.
         11   -1    0    0    0    0 -0.00000000000E+00 -0.00000000000E+00 -0.45593999997E+02  0.45594000000E+02  0.51100000000E-03 0. -1.
    9900012    2    1    2    0    0 -0.13672533649E+02 -0.24083823976E+02  0.15803546257E+02  0.59301939911E+02  0.49999992492E+02 0.  0.
         12    1    1    2    0    0  0.13672533649E+02  0.24083823976E+02 -0.15803546257E+02  0.31886060089E+02  0.00000000000E+00 0. -1.
         11    1    3    3    0    0 -0.13719372388E+02 -0.14213254334E+02  0.13503955683E+02  0.23928948929E+02  0.51100000000E-03 0. -1.
        -11    1    3    3    0    0 -0.13027891878E+02  0.54912664222E+01 -0.31346572250E+01  0.14481230952E+02  0.51100000000E-03 0.  1.
         12    1    3    3    0    0  0.13074730617E+02 -0.15361836064E+02  0.54342477986E+01  0.20891760029E+02  0.00000000000E+00 0. -1.
</event>
<event>
 7    1  0.6593656E-013  0.5930195E+02  0.7816164E-02  0.1266605E+00
        -11   -1    0    0    0    0  0.00000000000E+00  0.00000000000E+00  0.45593999997E+02  0.45594000000E+02  0.51100000000E-03 0. -1.
         11   -1    0    0    0    0 -0.00000000000E+00 -0.00000000000E+00 -0.45593999997E+02  0.45594000000E+02  0.51100000000E-03 0.  1.
    9900012    2    1    2    0    0  0.85736271677E+01 -0.14626141223E+02 -0.27005357665E+02  0.59301946113E+02  0.50000003802E+02 0.  0.
         12    1    1    2    0    0 -0.85736271677E+01  0.14626141223E+02  0.27005357665E+02  0.31886053887E+02  0.00000000000E+00 0. -1.
         11    1    3    3    0    0  0.80972070816E+00  0.60663967077E+01 -0.18582669275E+02  0.19564570384E+02  0.51100000000E-03 0. -1.
        -11    1    3    3    0    0  0.12142935813E+02 -0.73907629542E+01 -0.17877601684E+02  0.22840378925E+02  0.51100000000E-03 0.  1.
        -12    1    3    3    0    0 -0.43790293532E+01 -0.13301774976E+02  0.94549132942E+01  0.16896996804E+02  0.00000000000E+00 0.  1.
</event>
<event>
 7    1  0.6593656E-013  0.5930196E+02  0.7816164E-02  0.1266605E+00
        -11   -1    0    0    0    0  0.00000000000E+00  0.00000000000E+00  0.45593999997E+02  0.45594000000E+02  0.51100000000E-03 0.  1.
         11   -1    0    0    0    0 -0.00000000000E+00 -0.00000000000E+00 -0.45593999997E+02  0.45594000000E+02  0.51100000000E-03 0. -1.
    9900012    2    1    2    0    0  0.32970242735E+01 -0.31024140714E+02 -0.65842201739E+01  0.59301958674E+02  0.50000026712E+02 0.  0.
         12    1    1    2    0    0 -0.32970242735E+01  0.31024140714E+02  0.65842201739E+01  0.31886041326E+02  0.00000000000E+00 0. -1.
         11    1    3    3    0    0 -0.14456119079E+01  0.95447307061E+01 -0.24568623264E+01  0.99613177237E+01  0.51100000000E-03 0. -1.
        -11    1    3    3    0    0  0.40849155832E+01 -0.12749726577E+02 -0.14414763067E+02  0.19673013436E+02  0.51100000000E-03 0.  1.
        -12    1    3    3    0    0  0.65772059822E+00 -0.27819144843E+02  0.10287405220E+02  0.29667627515E+02  0.00000000000E+00 0.  1.
</event>
<event>
 7    1  0.6593656E-013  0.5930186E+02  0.7816164E-02  0.1266605E+00
        -11   -1    0    0    0    0  0.00000000000E+00  0.00000000000E+00  0.45593999997E+02  0.45594000000E+02  0.51100000000E-03 0.  1.
         11   -1    0    0    0    0 -0.00000000000E+00 -0.00000000000E+00 -0.45593999997E+02  0.45594000000E+02  0.51100000000E-03 0. -1.
    9900012    2    1    2    0    0  0.27235355006E+02  0.77505231548E+01  0.14659158230E+02  0.59301857375E+02  0.49999841967E+02 0.  0.
         12    1    1    2    0    0 -0.27235355006E+02 -0.77505231548E+01 -0.14659158230E+02  0.31886142625E+02  0.00000000000E+00 0. -1.
         11    1    3    3    0    0  0.89572216543E+00  0.31628730425E+01  0.41510503818E+00  0.33133663447E+01  0.51100000000E-03 0. -1.
        -11    1    3    3    0    0  0.89907398365E+01  0.20628454160E+02  0.21650424309E+02  0.31226709671E+02  0.51100000000E-03 0.  1.
         12    1    3    3    0    0  0.17348893004E+02 -0.16040804048E+02 -0.74063711180E+01  0.24761781360E+02  0.00000000000E+00 0. -1.
</event>
<event>
 7    1  0.6593656E-013  0.5930195E+02  0.7816164E-02  0.1266605E+00
        -11   -1    0    0    0    0  0.00000000000E+00  0.00000000000E+00  0.45593999997E+02  0.45594000000E+02  0.51100000000E-03 0.  1.
         11   -1    0    0    0    0 -0.00000000000E+00 -0.00000000000E+00 -0.45593999997E+02  0.45594000000E+02  0.51100000000E-03 0. -1.
    9900012    2    1    2    0    0 -0.36930660098E-02 -0.27692349538E+02 -0.15806767095E+02  0.59301950973E+02  0.50000012666E+02 0.  0.
         12    1    1    2    0    0  0.36930660098E-02  0.27692349538E+02  0.15806767095E+02  0.31886049027E+02  0.00000000000E+00 0. -1.
         11    1    3    3    0    0  0.19499285542E+02 -0.69887264906E+01 -0.58682399663E+01  0.21529065822E+02  0.51100000000E-03 0. -1.
        -11    1    3    3    0    0 -0.58573172223E+01 -0.19034537057E+02  0.13835350189E+01  0.19963364832E+02  0.51100000000E-03 0.  1.
        -12    1    3    3    0    0 -0.13645661385E+02 -0.16690859902E+01 -0.11322062148E+02  0.17809520318E+02  0.00000000000E+00 0.  1.
</event>
<event>
 7    1  0.6593656E-013  0.5930188E+02  0.7816164E-02  0.1266605E+00
        -11   -1    0    0    0    0  0.00000000000E+00  0.00000000000E+00  0.45593999997E+02  0.45594000000E+02  0.51100000000E-03 0.  1.
         11   -1    0    0    0    0 -0.00000000000E+00 -0.00000000000E+00 -0.45593999997E+02  0.45594000000E+02  0.51100000000E-03 0. -1.
    9900012    2    1    2    0    0 -0.13414611050E+02 -0.11695781912E+02  0.26457158336E+02  0.59301884975E+02  0.49999892303E+02 0.  0.
         12    1    1    2    0    0  0.13414611050E+02  0.11695781912E+02 -0.26457158336E+02  0.31886115025E+02  0.00000000000E+00 0. -1.
         11    1    3    3    0    0 -0.57115114780E+01 -0.45069717754E+01 -0.10004480518E+02  0.12370278438E+02  0.51100000000E-03 0. -1.
        -11    1    3    3    0    0  0.84667465242E+01 -0.99222004808E+01  0.18139205626E+02  0.22342037510E+02  0.51100000000E-03 0.  1.
        -12    1    3    3    0    0 -0.16169846097E+02  0.27333903443E+01  0.18322433227E+02  0.24589569027E+02  0.00000000000E+00 0.  1.
</event>
<event>
 7    1  0.6593656E-013  0.5930194E+02  0.7816164E-02  0.1266605E+00
        -11   -1    0    0    0    0  0.00000000000E+00  0.00000000000E+00  0.45593999997E+02  0.45594000000E+02  0.51100000000E-03 0.  1.
         11   -1    0    0    0    0 -0.00000000000E+00 -0.00000000000E+00 -0.45593999997E+02  0.45594000000E+02  0.51100000000E-03 0. -1.
    9900012    2    1    2    0    0  0.28340064434E+02 -0.50458302719E+01  0.13715002474E+02  0.59301938028E+02  0.49999989057E+02 0.  0.
         12    1    1    2    0    0 -0.28340064434E+02  0.50458302719E+01 -0.13715002474E+02  0.31886061972E+02  0.00000000000E+00 0. -1.
         11    1    3    3    0    0  0.11109969100E+02 -0.36255274820E+01 -0.14793043270E+02  0.18852320610E+02  0.51100000000E-03 0. -1.
        -11    1    3    3    0    0  0.85386221908E+01 -0.10292939631E+02  0.58215943960E+01  0.14585734015E+02  0.51100000000E-03 0.  1.
         12    1    3    3    0    0  0.86914731424E+01  0.88726368414E+01  0.22686451348E+02  0.25863883403E+02  0.00000000000E+00 0. -1.
</event>
<event>
 7    1  0.6593656E-013  0.5930195E+02  0.7816164E-02  0.1266605E+00
        -11   -1    0    0    0    0  0.00000000000E+00  0.00000000000E+00  0.45593999997E+02  0.45594000000E+02  0.51100000000E-03 0.  1.
         11   -1    0    0    0    0 -0.00000000000E+00 -0.00000000000E+00 -0.45593999997E+02  0.45594000000E+02  0.51100000000E-03 0. -1.
    9900012    2    1    2    0    0 -0.31816706386E+02  0.19972798544E+01 -0.65419109813E+00  0.59301954493E+02  0.50000019086E+02 0.  0.
         12    1    1    2    0    0  0.31816706386E+02 -0.19972798544E+01  0.65419109813E+00  0.31886045507E+02  0.00000000000E+00 0. -1.
         11    1    3    3    0    0 -0.12741551206E+02 -0.16188208769E+01 -0.19239046426E+02  0.23132414829E+02  0.51100000000E-03 0. -1.
        -11    1    3    3    0    0 -0.14381180747E+02 -0.80659083463E+01  0.41249013752E+01  0.16996824666E+02  0.51100000000E-03 0.  1.
        -12    1    3    3    0    0 -0.46939744332E+01  0.11682009078E+02  0.14459953953E+02  0.19172714998E+02  0.00000000000E+00 0.  1.
</event>
<event>
 7    1  0.6593656E-013  0.5930196E+02  0.7816164E-02  0.1266605E+00
        -11   -1    0    0    0    0  0.00000000000E+00  0.00000000000E+00  0.45593999997E+02  0.45594000000E+02  0.51100000000E-03 0. -1.
         11   -1    0    0    0    0 -0.00000000000E+00 -0.00000000000E+00 -0.45593999997E+02  0.45594000000E+02  0.51100000000E-03 0.  1.
    9900012    2    1    2    0    0  0.24986480103E+01 -0.49255468213E+01 -0.31404065531E+02  0.59301959398E+02  0.50000028032E+02 0.  0.
         12    1    1    2    0    0 -0.24986480103E+01  0.49255468213E+01  0.31404065531E+02  0.31886040602E+02  0.00000000000E+00 0. -1.
         11    1    3    3    0    0 -0.47997316813E+01  0.49762779805E+01 -0.23841279997E+02  0.24823525110E+02  0.51100000000E-03 0.  1.
        -11    1    3    3    0    0 -0.10449867548E+02  0.20916305952E+01  0.22901013026E+01  0.10900422678E+02  0.51100000000E-03 0. -1.
        -12    1    3    3    0    0  0.17748247240E+02 -0.11993455397E+02 -0.98528868370E+01  0.23578011610E+02  0.00000000000E+00 0.  1.
</event>
<event>
 7    1  0.6593656E-013  0.5930188E+02  0.7816164E-02  0.1266605E+00
        -11   -1    0    0    0    0  0.00000000000E+00  0.00000000000E+00  0.45593999997E+02  0.45594000000E+02  0.51100000000E-03 0.  1.
         11   -1    0    0    0    0 -0.00000000000E+00 -0.00000000000E+00 -0.45593999997E+02  0.45594000000E+02  0.51100000000E-03 0. -1.
    9900012    2    1    2    0    0 -0.18720641217E+02 -0.13878830236E+02  0.21763272272E+02  0.59301884585E+02  0.49999891590E+02 0.  0.
         12    1    1    2    0    0  0.18720641217E+02  0.13878830236E+02 -0.21763272272E+02  0.31886115415E+02  0.00000000000E+00 0. -1.
         11    1    3    3    0    0  0.96735802506E+01 -0.80455669436E+01 -0.15527695146E+01  0.12677554801E+02  0.51100000000E-03 0. -1.
        -11    1    3    3    0    0  0.49138601478E+01 -0.46179441508E+01  0.18965061092E+01  0.70048672660E+01  0.51100000000E-03 0.  1.
        -12    1    3    3    0    0 -0.33308081616E+02 -0.12153191413E+01  0.21419535678E+02  0.39619462517E+02  0.00000000000E+00 0.  1.
</event>
<event>
 7    1  0.6593656E-013  0.5930194E+02  0.7816164E-02  0.1266605E+00
        -11   -1    0    0    0    0  0.00000000000E+00  0.00000000000E+00  0.45593999997E+02  0.45594000000E+02  0.51100000000E-03 0.  1.
         11   -1    0    0    0    0 -0.00000000000E+00 -0.00000000000E+00 -0.45593999997E+02  0.45594000000E+02  0.51100000000E-03 0. -1.
    9900012    2    1    2    0    0 -0.17180985895E+02  0.26782975000E+02  0.20509769540E+01  0.59301944543E+02  0.50000000939E+02 0.  0.
         12    1    1    2    0    0  0.17180985895E+02 -0.26782975000E+02 -0.20509769540E+01  0.31886055457E+02  0.00000000000E+00 0. -1.
         11    1    3    3    0    0 -0.51909829357E+01 -0.31556029497E+01 -0.68167592438E+01  0.91308455613E+01  0.51100000000E-03 0. -1.
        -11    1    3    3    0    0  0.10829198300E+02  0.28233694603E+01  0.95695139161E+01  0.14724759685E+02  0.51100000000E-03 0.  1.
        -12    1    3    3    0    0 -0.22819201259E+02  0.27115208489E+02 -0.70177771835E+00  0.35446339296E+02  0.00000000000E+00 0.  1.
</event>
<event>
 7    1  0.6593656E-013  0.5930194E+02  0.7816164E-02  0.1266605E+00
        -11   -1    0    0    0    0  0.00000000000E+00  0.00000000000E+00  0.45593999997E+02  0.45594000000E+02  0.51100000000E-03 0. -1.
         11   -1    0    0    0    0 -0.00000000000E+00 -0.00000000000E+00 -0.45593999997E+02  0.45594000000E+02  0.51100000000E-03 0.  1.
    9900012    2    1    2    0    0 -0.25869756461E+02  0.17074227755E+02 -0.74797735261E+01  0.59301944039E+02  0.50000000020E+02 0.  0.
         12    1    1    2    0    0  0.25869756461E+02 -0.17074227755E+02  0.74797735261E+01  0.31886055961E+02  0.00000000000E+00 0. -1.
         11    1    3    3    0    0  0.39162681195E+01  0.22148689243E+02 -0.11308586410E+02  0.25175101152E+02  0.51100000000E-03 0. -1.
        -11    1    3    3    0    0 -0.95728092214E+01  0.28685709583E+01 -0.43777451270E+01  0.10910180035E+02  0.51100000000E-03 0.  1.
        -12    1    3    3    0    0 -0.20213215359E+02 -0.79430324468E+01  0.82065580105E+01  0.23216662852E+02  0.00000000000E+00 0.  1.
</event>
<event>
 7    1  0.6593656E-013  0.5930196E+02  0.7816164E-02  0.1266605E+00
        -11   -1    0    0    0    0  0.00000000000E+00  0.00000000000E+00  0.45593999997E+02  0.45594000000E+02  0.51100000000E-03 0.  1.
         11   -1    0    0    0    0 -0.00000000000E+00 -0.00000000000E+00 -0.45593999997E+02  0.45594000000E+02  0.51100000000E-03 0. -1.
    9900012    2    1    2    0    0  0.17928459434E+01  0.20644496750E+02  0.24234481438E+02  0.59301958646E+02  0.50000026661E+02 0.  0.
         12    1    1    2    0    0 -0.17928459434E+01 -0.20644496750E+02 -0.24234481438E+02  0.31886041354E+02  0.00000000000E+00 0. -1.
         11    1    3    3    0    0 -0.44991173448E+01 -0.91246427005E+01 -0.24122191152E+00  0.10176411429E+02  0.51100000000E-03 0. -1.
        -11    1    3    3    0    0  0.14174426277E+02  0.51061373438E+01  0.27261205791E+01  0.15310739124E+02  0.51100000000E-03 0.  1.
        -12    1    3    3    0    0 -0.78824629889E+01  0.24663002107E+02  0.21749582770E+02  0.33814808093E+02  0.00000000000E+00 0.  1.
</event>
<event>
 7    1  0.6593656E-013  0.5930195E+02  0.7816164E-02  0.1266605E+00
        -11   -1    0    0    0    0  0.00000000000E+00  0.00000000000E+00  0.45593999997E+02  0.45594000000E+02  0.51100000000E-03 0.  1.
         11   -1    0    0    0    0 -0.00000000000E+00 -0.00000000000E+00 -0.45593999997E+02  0.45594000000E+02  0.51100000000E-03 0. -1.
    9900012    2    1    2    0    0  0.25725049518E+02  0.83282307217E+01  0.16899189211E+02  0.59301949827E+02  0.50000010576E+02 0.  0.
         12    1    1    2    0    0 -0.25725049518E+02 -0.83282307217E+01 -0.16899189211E+02  0.31886050173E+02  0.00000000000E+00 0. -1.
         11    1    3    3    0    0  0.30420542562E+02  0.80089545514E+01  0.29414191042E+02  0.43066778352E+02  0.51100000000E-03 0.  1.
        -11    1    3    3    0    0 -0.57076183394E+01  0.19185790573E+01 -0.33781057993E+01  0.69043067545E+01  0.51100000000E-03 0. -1.
        -12    1    3    3    0    0  0.10121252954E+01 -0.15993028871E+01 -0.91368960310E+01  0.93308647198E+01  0.00000000000E+00 0.  1.
</event>
<event>
 7    1  0.6593656E-013  0.5930197E+02  0.7816164E-02  0.1266605E+00
        -11   -1    0    0    0    0  0.00000000000E+00  0.00000000000E+00  0.45593999997E+02  0.45594000000E+02  0.51100000000E-03 0. -1.
         11   -1    0    0    0    0 -0.00000000000E+00 -0.00000000000E+00 -0.45593999997E+02  0.45594000000E+02  0.51100000000E-03 0.  1.
    9900012    2    1    2    0    0  0.29143948908E+02 -0.10033707069E+02  0.81654235834E+01  0.59301965787E+02  0.50000039684E+02 0.  0.
         12    1    1    2    0    0 -0.29143948908E+02  0.10033707069E+02 -0.81654235834E+01  0.31886034213E+02  0.00000000000E+00 0. -1.
         11    1    3    3    0    0 -0.98897629397E+01 -0.35798165432E+01 -0.10419517357E+01  0.10569208162E+02  0.51100000000E-03 0. -1.
        -11    1    3    3    0    0  0.50253291737E+01 -0.11149906066E+02  0.75267294284E+01  0.14360570836E+02  0.51100000000E-03 0.  1.
         12    1    3    3    0    0  0.34008382674E+02  0.46960155402E+01  0.16806458907E+01  0.34372186789E+02  0.00000000000E+00 0. -1.
</event>
<event>
 7    1  0.6593656E-013  0.5930197E+02  0.7816164E-02  0.1266605E+00
        -11   -1    0    0    0    0  0.00000000000E+00  0.00000000000E+00  0.45593999997E+02  0.45594000000E+02  0.51100000000E-03 0.  1.
         11   -1    0    0    0    0 -0.00000000000E+00 -0.00000000000E+00 -0.45593999997E+02  0.45594000000E+02  0.51100000000E-03 0. -1.
    9900012    2    1    2    0    0  0.26981798600E+02  0.51550549490E-01  0.16991145253E+02  0.59301966534E+02  0.50000041047E+02 0.  0.
         12    1    1    2    0    0 -0.26981798600E+02 -0.51550549490E-01 -0.16991145253E+02  0.31886033466E+02  0.00000000000E+00 0. -1.
         11    1    3    3    0    0  0.36187057114E+01 -0.11935148357E+02  0.18098877370E+01  0.12602320866E+02  0.51100000000E-03 0. -1.
        -11    1    3    3    0    0 -0.61527563448E+01  0.12930998373E+02  0.75960805507E+01  0.16210107019E+02  0.51100000000E-03 0.  1.
        -12    1    3    3    0    0  0.29515849234E+02 -0.94429946685E+00  0.75851769653E+01  0.30489538649E+02  0.00000000000E+00 0.  1.
</event>
<event>
 7    1  0.6593656E-013  0.5930195E+02  0.7816164E-02  0.1266605E+00
        -11   -1    0    0    0    0  0.00000000000E+00  0.00000000000E+00  0.45593999997E+02  0.45594000000E+02  0.51100000000E-03 0.  1.
         11   -1    0    0    0    0 -0.00000000000E+00 -0.00000000000E+00 -0.45593999997E+02  0.45594000000E+02  0.51100000000E-03 0. -1.
    9900012    2    1    2    0    0  0.30429877000E+02 -0.69942490340E+01  0.64671020557E+01  0.59301947520E+02  0.50000006368E+02 0.  0.
         12    1    1    2    0    0 -0.30429877000E+02  0.69942490340E+01 -0.64671020557E+01  0.31886052480E+02  0.00000000000E+00 0. -1.
         11    1    3    3    0    0  0.55445226046E+01  0.10550204236E+02  0.90478475560E+01  0.14963692258E+02  0.51100000000E-03 0. -1.
        -11    1    3    3    0    0 -0.17039746127E+01  0.43818094381E+01 -0.81680543716E+01  0.94244838539E+01  0.51100000000E-03 0.  1.
        -12    1    3    3    0    0  0.26589329008E+02 -0.21926262708E+02  0.55873088712E+01  0.34913771407E+02  0.00000000000E+00 0.  1.
</event>
<event>
 7    1  0.6593656E-013  0.5930195E+02  0.7816164E-02  0.1266605E+00
        -11   -1    0    0    0    0  0.00000000000E+00  0.00000000000E+00  0.45593999997E+02  0.45594000000E+02  0.51100000000E-03 0. -1.
         11   -1    0    0    0    0 -0.00000000000E+00 -0.00000000000E+00 -0.45593999997E+02  0.45594000000E+02  0.51100000000E-03 0.  1.
    9900012    2    1    2    0    0 -0.13490558912E+01 -0.13033384778E+02 -0.29069418033E+02  0.59301950772E+02  0.50000012300E+02 0.  0.
         12    1    1    2    0    0  0.13490558912E+01  0.13033384778E+02  0.29069418033E+02  0.31886049228E+02  0.00000000000E+00 0. -1.
         11    1    3    3    0    0  0.24283091032E+01  0.76477041303E+01  0.43518648131E+01  0.91281318559E+01  0.51100000000E-03 0. -1.
        -11    1    3    3    0    0 -0.54298041945E+00 -0.19113038866E+02 -0.27792446218E+01  0.19321679103E+02  0.51100000000E-03 0.  1.
        -12    1    3    3    0    0 -0.32343845749E+01 -0.15680500429E+01 -0.30642038225E+02  0.30852139814E+02  0.00000000000E+00 0.  1.
</event>
<event>
 7    1  0.6593656E-013  0.5930194E+02  0.7816164E-02  0.1266605E+00
        -11   -1    0    0    0    0  0.00000000000E+00  0.00000000000E+00  0.45593999997E+02  0.45594000000E+02  0.51100000000E-03 0.  1.
         11   -1    0    0    0    0 -0.00000000000E+00 -0.00000000000E+00 -0.45593999997E+02  0.45594000000E+02  0.51100000000E-03 0. -1.
    9900012    2    1    2    0    0 -0.19729721497E+02 -0.11935097634E+02  0.22022998206E+02  0.59301938534E+02  0.49999989980E+02 0.  0.
         12    1    1    2    0    0  0.19729721497E+02  0.11935097634E+02 -0.22022998206E+02  0.31886061466E+02  0.00000000000E+00 0. -1.
         11    1    3    3    0    0 -0.15899269631E+02  0.14813900624E+02  0.88687117047E+01  0.23471098697E+02  0.51100000000E-03 0. -1.
        -11    1    3    3    0    0 -0.81810587982E+01 -0.37129225470E+01  0.72280239744E-01  0.89844722491E+01  0.51100000000E-03 0.  1.
        -12    1    3    3    0    0  0.43506069327E+01 -0.23036075710E+02  0.13082006261E+02  0.26846367587E+02  0.00000000000E+00 0.  1.
</event>
<event>
 7    1  0.6593656E-013  0.5930200E+02  0.7816164E-02  0.1266605E+00
        -11   -1    0    0    0    0  0.00000000000E+00  0.00000000000E+00  0.45593999997E+02  0.45594000000E+02  0.51100000000E-03 0.  1.
         11   -1    0    0    0    0 -0.00000000000E+00 -0.00000000000E+00 -0.45593999997E+02  0.45594000000E+02  0.51100000000E-03 0. -1.
    9900012    2    1    2    0    0 -0.13452060375E+02 -0.13999977725E+02  0.25293471175E+02  0.59302000114E+02  0.50000102288E+02 0.  0.
         12    1    1    2    0    0  0.13452060375E+02  0.13999977725E+02 -0.25293471175E+02  0.31885999886E+02  0.00000000000E+00 0. -1.
         11    1    3    3    0    0 -0.26433413836E+02 -0.86261103046E+01  0.79527115301E+01  0.28920248390E+02  0.51100000000E-03 0. -1.
        -11    1    3    3    0    0  0.75617819567E+01 -0.49292692539E+01  0.21641687299E+02  0.23448685915E+02  0.51100000000E-03 0.  1.
        -12    1    3    3    0    0  0.54195715046E+01 -0.44459816656E+00 -0.43009276537E+01  0.69330658085E+01  0.00000000000E+00 0.  1.
</event>
<event>
 7    1  0.6593656E-013  0.5930215E+02  0.7816164E-02  0.1266604E+00
        -11   -1    0    0    0    0  0.00000000000E+00  0.00000000000E+00  0.45593999997E+02  0.45594000000E+02  0.51100000000E-03 0. -1.
         11   -1    0    0    0    0 -0.00000000000E+00 -0.00000000000E+00 -0.45593999997E+02  0.45594000000E+02  0.51100000000E-03 0.  1.
    9900012    2    1    2    0    0  0.30719068326E+02 -0.77953375485E+01 -0.35041048489E+01  0.59302153656E+02  0.50000382310E+02 0.  0.
         12    1    1    2    0    0 -0.30719068326E+02  0.77953375485E+01  0.35041048489E+01  0.31885846344E+02  0.00000000000E+00 0. -1.
         11    1    3    3    0    0  0.65162213693E+01 -0.83972135764E+01 -0.25899493237E+01  0.10939934851E+02  0.51100000000E-03 0. -1.
        -11    1    3    3    0    0  0.30007675330E+02 -0.13547324591E+02  0.10637579303E+01  0.32941192502E+02  0.51100000000E-03 0.  1.
         12    1    3    3    0    0 -0.58048283738E+01  0.14149200619E+02 -0.19779134555E+01  0.15421026303E+02  0.00000000000E+00 0. -1.
</event>
<event>
 7    1  0.6593656E-013  0.5930195E+02  0.7816164E-02  0.1266605E+00
        -11   -1    0    0    0    0  0.00000000000E+00  0.00000000000E+00  0.45593999997E+02  0.45594000000E+02  0.51100000000E-03 0.  1.
         11   -1    0    0    0    0 -0.00000000000E+00 -0.00000000000E+00 -0.45593999997E+02  0.45594000000E+02  0.51100000000E-03 0. -1.
    9900012    2    1    2    0    0 -0.95592742799E+01  0.25052787794E+02  0.17253940520E+02  0.59301947179E+02  0.50000005748E+02 0.  0.
         12    1    1    2    0    0  0.95592742799E+01 -0.25052787794E+02 -0.17253940520E+02  0.31886052821E+02  0.00000000000E+00 0. -1.
         11    1    3    3    0    0 -0.22503043716E+01 -0.77754042834E+01 -0.31617977795E+01  0.86900947633E+01  0.51100000000E-03 0. -1.
        -11    1    3    3    0    0  0.53532343980E+01  0.29980183093E+01  0.16943297860E+02  0.18020004854E+02  0.51100000000E-03 0.  1.
        -12    1    3    3    0    0 -0.12662204306E+02  0.29830173768E+02  0.34724404399E+01  0.32591847562E+02  0.00000000000E+00 0.  1.
</event>
<event>
 7    1  0.6593656E-013  0.5930195E+02  0.7816164E-02  0.1266605E+00
        -11   -1    0    0    0    0  0.00000000000E+00  0.00000000000E+00  0.45593999997E+02  0.45594000000E+02  0.51100000000E-03 0. -1.
         11   -1    0    0    0    0 -0.00000000000E+00 -0.00000000000E+00 -0.45593999997E+02  0.45594000000E+02  0.51100000000E-03 0.  1.
    9900012    2    1    2    0    0 -0.90620061474E+01 -0.21195594342E+02 -0.22030597828E+02  0.59301946378E+02  0.50000004286E+02 0.  0.
         12    1    1    2    0    0  0.90620061474E+01  0.21195594342E+02  0.22030597828E+02  0.31886053622E+02  0.00000000000E+00 0. -1.
         11    1    3    3    0    0  0.12356275592E+02 -0.31945226525E+01 -0.69510404294E+01  0.14532703974E+02  0.51100000000E-03 0. -1.
        -11    1    3    3    0    0 -0.38756486445E+01 -0.14646015162E+02 -0.21051851518E+02  0.25936593168E+02  0.51100000000E-03 0.  1.
        -12    1    3    3    0    0 -0.17542633095E+02 -0.33550565275E+01  0.59722941191E+01  0.18832649236E+02  0.00000000000E+00 0.  1.
</event>
<event>
 7    1  0.6593656E-013  0.5930195E+02  0.7816164E-02  0.1266605E+00
        -11   -1    0    0    0    0  0.00000000000E+00  0.00000000000E+00  0.45593999997E+02  0.45594000000E+02  0.51100000000E-03 0.  1.
         11   -1    0    0    0    0 -0.00000000000E+00 -0.00000000000E+00 -0.45593999997E+02  0.45594000000E+02  0.51100000000E-03 0. -1.
    9900012    2    1    2    0    0  0.24263698105E+02  0.13427346324E+02  0.15738475287E+02  0.59301948514E+02  0.50000008181E+02 0.  0.
         12    1    1    2    0    0 -0.24263698105E+02 -0.13427346324E+02 -0.15738475287E+02  0.31886051486E+02  0.00000000000E+00 0. -1.
         11    1    3    3    0    0  0.55057040421E+01 -0.95714400689E+01  0.11259668177E+02  0.15770395357E+02  0.51100000000E-03 0. -1.
        -11    1    3    3    0    0 -0.85653215761E+01  0.95108561084E+01  0.20677922254E+01  0.12965218184E+02  0.51100000000E-03 0.  1.
         12    1    3    3    0    0  0.27323315639E+02  0.13487930285E+02  0.24110148845E+01  0.30566334972E+02  0.00000000000E+00 0. -1.
</event>
<event>
 7    1  0.6593656E-013  0.5930197E+02  0.7816164E-02  0.1266605E+00
        -11   -1    0    0    0    0  0.00000000000E+00  0.00000000000E+00  0.45593999997E+02  0.45594000000E+02  0.51100000000E-03 0.  1.
         11   -1    0    0    0    0 -0.00000000000E+00 -0.00000000000E+00 -0.45593999997E+02  0.45594000000E+02  0.51100000000E-03 0. -1.
    9900012    2    1    2    0    0  0.27126929763E+01  0.21485275822E+02  0.23403910856E+02  0.59301971341E+02  0.50000049813E+02 0.  0.
         12    1    1    2    0    0 -0.27126929763E+01 -0.21485275822E+02 -0.23403910856E+02  0.31886028659E+02  0.00000000000E+00 0. -1.
         11    1    3    3    0    0  0.27474999297E+01  0.12428086088E+02 -0.63825518482E+01  0.14238786748E+02  0.51100000000E-03 0. -1.
        -11    1    3    3    0    0 -0.19514056921E+01  0.86208061985E+01 -0.50443033255E+01  0.10176997592E+02  0.51100000000E-03 0.  1.
        -12    1    3    3    0    0  0.19165987387E+01  0.43638353461E+00  0.34830766029E+02  0.34886187001E+02  0.00000000000E+00 0.  1.
</event>
<event>
 7    1  0.6593656E-013  0.5930195E+02  0.7816164E-02  0.1266605E+00
        -11   -1    0    0    0    0  0.00000000000E+00  0.00000000000E+00  0.45593999997E+02  0.45594000000E+02  0.51100000000E-03 0.  1.
         11   -1    0    0    0    0 -0.00000000000E+00 -0.00000000000E+00 -0.45593999997E+02  0.45594000000E+02  0.51100000000E-03 0. -1.
    9900012    2    1    2    0    0 -0.18555678134E+02  0.11042249093E+02  0.23462224224E+02  0.59301946284E+02  0.50000004114E+02 0.  0.
         12    1    1    2    0    0  0.18555678134E+02 -0.11042249093E+02 -0.23462224224E+02  0.31886053716E+02  0.00000000000E+00 0. -1.
         11    1    3    3    0    0 -0.11660453686E+02 -0.15606294447E+02  0.10093465997E+02  0.21940844620E+02  0.51100000000E-03 0. -1.
        -11    1    3    3    0    0 -0.42475216608E+01 -0.28748660434E+01  0.91803250975E+00  0.52104778070E+01  0.51100000000E-03 0.  1.
        -12    1    3    3    0    0 -0.26477027868E+01  0.29523409584E+02  0.12450725717E+02  0.32150623857E+02  0.00000000000E+00 0.  1.
</event>
<event>
 7    1  0.6593656E-013  0.5930195E+02  0.7816164E-02  0.1266605E+00
        -11   -1    0    0    0    0  0.00000000000E+00  0.00000000000E+00  0.45593999997E+02  0.45594000000E+02  0.51100000000E-03 0. -1.
         11   -1    0    0    0    0 -0.00000000000E+00 -0.00000000000E+00 -0.45593999997E+02  0.45594000000E+02  0.51100000000E-03 0.  1.
    9900012    2    1    2    0    0 -0.31605452576E+02 -0.22377587748E+01 -0.35788053715E+01  0.59301952193E+02  0.50000014892E+02 0.  0.
         12    1    1    2    0    0  0.31605452576E+02  0.22377587748E+01  0.35788053715E+01  0.31886047807E+02  0.00000000000E+00 0. -1.
         11    1    3    3    0    0 -0.14573761916E+02 -0.52000683838E+00 -0.20660641470E+02  0.25288872053E+02  0.51100000000E-03 0. -1.
        -11    1    3    3    0    0 -0.37288274117E+01  0.23224882370E+01 -0.57774871437E+01  0.72579241821E+01  0.51100000000E-03 0.  1.
         12    1    3    3    0    0 -0.13302863248E+02 -0.40402401735E+01  0.22859323242E+02  0.26755155958E+02  0.00000000000E+00 0. -1.
</event>
<event>
 7    1  0.6593656E-013  0.5930193E+02  0.7816164E-02  0.1266605E+00
        -11   -1    0    0    0    0  0.00000000000E+00  0.00000000000E+00  0.45593999997E+02  0.45594000000E+02  0.51100000000E-03 0. -1.
         11   -1    0    0    0    0 -0.00000000000E+00 -0.00000000000E+00 -0.45593999997E+02  0.45594000000E+02  0.51100000000E-03 0.  1.
    9900012    2    1    2    0    0  0.24922191813E+02 -0.30990174951E+01 -0.19646933570E+02  0.59301928544E+02  0.49999971762E+02 0.  0.
         12    1    1    2    0    0 -0.24922191813E+02  0.30990174951E+01  0.19646933570E+02  0.31886071456E+02  0.00000000000E+00 0. -1.
         11    1    3    3    0    0  0.12575118428E+01 -0.61014623907E+01 -0.11246264045E+01  0.63303999993E+01  0.51100000000E-03 0. -1.
        -11    1    3    3    0    0  0.20682593459E+02 -0.85389087035E+01  0.81043193150E+01  0.23798374437E+02  0.51100000000E-03 0.  1.
         12    1    3    3    0    0  0.29820865107E+01  0.11541353599E+02 -0.26626626480E+02  0.29173154108E+02  0.00000000000E+00 0. -1.
</event>
<event>
 7    1  0.6593656E-013  0.5930194E+02  0.7816164E-02  0.1266605E+00
        -11   -1    0    0    0    0  0.00000000000E+00  0.00000000000E+00  0.45593999997E+02  0.45594000000E+02  0.51100000000E-03 0.  1.
         11   -1    0    0    0    0 -0.00000000000E+00 -0.00000000000E+00 -0.45593999997E+02  0.45594000000E+02  0.51100000000E-03 0. -1.
    9900012    2    1    2    0    0 -0.89531079107E+01  0.30454456444E+02 -0.30147902549E+01  0.59301936919E+02  0.49999987035E+02 0.  0.
         12    1    1    2    0    0  0.89531079107E+01 -0.30454456444E+02  0.30147902549E+01  0.31886063081E+02  0.00000000000E+00 0. -1.
         11    1    3    3    0    0  0.51419450848E+01 -0.19296315158E+01 -0.81630946197E+01  0.98386579915E+01  0.51100000000E-03 0. -1.
        -11    1    3    3    0    0  0.10398520534E+02  0.49927252251E+01  0.53548131388E+01  0.12717332994E+02  0.51100000000E-03 0.  1.
         12    1    3    3    0    0 -0.24493573529E+02  0.27391362734E+02 -0.20650877403E+00  0.36745945934E+02  0.00000000000E+00 0. -1.
</event>
<event>
 7    1  0.6593656E-013  0.5930195E+02  0.7816164E-02  0.1266605E+00
        -11   -1    0    0    0    0  0.00000000000E+00  0.00000000000E+00  0.45593999997E+02  0.45594000000E+02  0.51100000000E-03 0. -1.
         11   -1    0    0    0    0 -0.00000000000E+00 -0.00000000000E+00 -0.45593999997E+02  0.45594000000E+02  0.51100000000E-03 0.  1.
    9900012    2    1    2    0    0  0.17398039612E+02 -0.13379834149E+02 -0.23130247485E+02  0.59301951438E+02  0.50000013515E+02 0.  0.
         12    1    1    2    0    0 -0.17398039612E+02  0.13379834149E+02  0.23130247485E+02  0.31886048562E+02  0.00000000000E+00 0. -1.
         11    1    3    3    0    0  0.21785522079E+02 -0.21765253594E+02 -0.49480815459E+00  0.30799027121E+02  0.51100000000E-03 0. -1.
        -11    1    3    3    0    0 -0.30703146227E+01 -0.30596697745E+01 -0.17978287662E+01  0.46926111649E+01  0.51100000000E-03 0.  1.
        -12    1    3    3    0    0 -0.13171678441E+01  0.11445089219E+02 -0.20837610564E+02  0.23810313152E+02  0.00000000000E+00 0.  1.
</event>
<event>
 7    1  0.6593656E-013  0.5930190E+02  0.7816164E-02  0.1266605E+00
        -11   -1    0    0    0    0  0.00000000000E+00  0.00000000000E+00  0.45593999997E+02  0.45594000000E+02  0.51100000000E-03 0.  1.
         11   -1    0    0    0    0 -0.00000000000E+00 -0.00000000000E+00 -0.45593999997E+02  0.45594000000E+02  0.51100000000E-03 0. -1.
    9900012    2    1    2    0    0  0.25923622996E+01 -0.13735491956E+02  0.28659015990E+02  0.59301901477E+02  0.49999922397E+02 0.  0.
         12    1    1    2    0    0 -0.25923622996E+01  0.13735491956E+02 -0.28659015990E+02  0.31886098523E+02  0.00000000000E+00 0. -1.
         11    1    3    3    0    0 -0.33596130870E+01  0.20244271902E+01 -0.77007291220E+01  0.86421371671E+01  0.51100000000E-03 0. -1.
        -11    1    3    3    0    0  0.15215583726E+02  0.18254387321E+01  0.14202283519E+02  0.20893804634E+02  0.51100000000E-03 0.  1.
         12    1    3    3    0    0 -0.92636083391E+01 -0.17585357878E+02  0.22157461593E+02  0.29765959675E+02  0.00000000000E+00 0. -1.
</event>
<event>
 7    1  0.6593656E-013  0.5930216E+02  0.7816164E-02  0.1266604E+00
        -11   -1    0    0    0    0  0.00000000000E+00  0.00000000000E+00  0.45593999997E+02  0.45594000000E+02  0.51100000000E-03 0.  1.
         11   -1    0    0    0    0 -0.00000000000E+00 -0.00000000000E+00 -0.45593999997E+02  0.45594000000E+02  0.51100000000E-03 0. -1.
    9900012    2    1    2    0    0 -0.78877729087E+01 -0.30411365159E+02 -0.54441668874E+01  0.59302156034E+02  0.50000386648E+02 0.  0.
         12    1    1    2    0    0  0.78877729087E+01  0.30411365159E+02  0.54441668874E+01  0.31885843966E+02  0.00000000000E+00 0. -1.
         11    1    3    3    0    0 -0.15668491050E+02  0.17961852956E+01  0.64862345544E+01  0.17052833558E+02  0.51100000000E-03 0. -1.
        -11    1    3    3    0    0 -0.68141381772E+01 -0.22283493659E+01 -0.16402138989E+01  0.73544763165E+01  0.51100000000E-03 0.  1.
         12    1    3    3    0    0  0.14594856318E+02 -0.29979201089E+02 -0.10290187543E+02  0.34894846160E+02  0.00000000000E+00 0. -1.
</event>
<event>
 7    1  0.6593656E-013  0.5930193E+02  0.7816164E-02  0.1266605E+00
        -11   -1    0    0    0    0  0.00000000000E+00  0.00000000000E+00  0.45593999997E+02  0.45594000000E+02  0.51100000000E-03 0. -1.
         11   -1    0    0    0    0 -0.00000000000E+00 -0.00000000000E+00 -0.45593999997E+02  0.45594000000E+02  0.51100000000E-03 0.  1.
    9900012    2    1    2    0    0  0.10638016133E+02 -0.29155168230E+02 -0.73164571280E+01  0.59301925192E+02  0.49999965648E+02 0.  0.
         12    1    1    2    0    0 -0.10638016133E+02  0.29155168230E+02  0.73164571280E+01  0.31886074808E+02  0.00000000000E+00 0. -1.
         11    1    3    3    0    0 -0.19066036151E+01 -0.16883400470E+02 -0.37679550338E+01  0.17403500630E+02  0.51100000000E-03 0. -1.
        -11    1    3    3    0    0  0.16875947315E+01 -0.16516940730E+02 -0.17227568474E+02  0.23925852604E+02  0.51100000000E-03 0.  1.
        -12    1    3    3    0    0  0.10857025017E+02  0.42451729699E+01  0.13679066380E+02  0.17972571958E+02  0.00000000000E+00 0.  1.
</event>
<event>
 7    1  0.6593656E-013  0.5930194E+02  0.7816164E-02  0.1266605E+00
        -11   -1    0    0    0    0  0.00000000000E+00  0.00000000000E+00  0.45593999997E+02  0.45594000000E+02  0.51100000000E-03 0.  1.
         11   -1    0    0    0    0 -0.00000000000E+00 -0.00000000000E+00 -0.45593999997E+02  0.45594000000E+02  0.51100000000E-03 0. -1.
    9900012    2    1    2    0    0  0.26780473421E+02  0.22517330619E+01 -0.17159742821E+02  0.59301939846E+02  0.49999992374E+02 0.  0.
         12    1    1    2    0    0 -0.26780473421E+02 -0.22517330619E+01  0.17159742821E+02  0.31886060154E+02  0.00000000000E+00 0. -1.
         11    1    3    3    0    0  0.53971933043E+00 -0.83930551964E+01 -0.32912709774E+01  0.90314526735E+01  0.51100000000E-03 0. -1.
        -11    1    3    3    0    0  0.11648363335E+02 -0.14272622927E+02 -0.10484298439E+02  0.21196996193E+02  0.51100000000E-03 0.  1.
        -12    1    3    3    0    0  0.14592390756E+02  0.24917411185E+02 -0.33841734038E+01  0.29073490980E+02  0.00000000000E+00 0.  1.
</event>
<event>
 7    1  0.6593656E-013  0.5930195E+02  0.7816164E-02  0.1266605E+00
        -11   -1    0    0    0    0  0.00000000000E+00  0.00000000000E+00  0.45593999997E+02  0.45594000000E+02  0.51100000000E-03 0. -1.
         11   -1    0    0    0    0 -0.00000000000E+00 -0.00000000000E+00 -0.45593999997E+02  0.45594000000E+02  0.51100000000E-03 0.  1.
    9900012    2    1    2    0    0  0.84470282024E+00 -0.94157254469E+01 -0.30452430355E+02  0.59301954101E+02  0.50000018371E+02 0.  0.
         12    1    1    2    0    0 -0.84470282024E+00  0.94157254469E+01  0.30452430355E+02  0.31886045899E+02  0.00000000000E+00 0. -1.
         11    1    3    3    0    0 -0.20130738316E+01  0.42679621606E+00  0.65448671003E+01  0.68607511894E+01  0.51100000000E-03 0. -1.
        -11    1    3    3    0    0  0.59492969412E+01  0.44645250160E+01  0.43242431405E+01  0.86037896716E+01  0.51100000000E-03 0.  1.
        -12    1    3    3    0    0 -0.30915202894E+01 -0.14307046679E+02 -0.41321540596E+02  0.43837413240E+02  0.00000000000E+00 0.  1.
</event>
<event>
 7    1  0.6593656E-013  0.5930193E+02  0.7816164E-02  0.1266605E+00
        -11   -1    0    0    0    0  0.00000000000E+00  0.00000000000E+00  0.45593999997E+02  0.45594000000E+02  0.51100000000E-03 0. -1.
         11   -1    0    0    0    0 -0.00000000000E+00 -0.00000000000E+00 -0.45593999997E+02  0.45594000000E+02  0.51100000000E-03 0.  1.
    9900012    2    1    2    0    0  0.17511192245E+02  0.22055527079E+02 -0.14954381162E+02  0.59301927107E+02  0.49999969141E+02 0.  0.
         12    1    1    2    0    0 -0.17511192245E+02 -0.22055527079E+02  0.14954381162E+02  0.31886072893E+02  0.00000000000E+00 0. -1.
         11    1    3    3    0    0  0.12168098982E+02 -0.64837478851E+01  0.44103006135E+01  0.14475923847E+02  0.51100000000E-03 0. -1.
        -11    1    3    3    0    0  0.14234966427E+02  0.63762661542E+01 -0.12471799191E+02  0.19970899192E+02  0.51100000000E-03 0.  1.
         12    1    3    3    0    0 -0.88918731638E+01  0.22163008810E+02 -0.68928825845E+01  0.24855104068E+02  0.00000000000E+00 0. -1.
</event>
<event>
 7    1  0.6593656E-013  0.5930189E+02  0.7816164E-02  0.1266605E+00
        -11   -1    0    0    0    0  0.00000000000E+00  0.00000000000E+00  0.45593999997E+02  0.45594000000E+02  0.51100000000E-03 0.  1.
         11   -1    0    0    0    0 -0.00000000000E+00 -0.00000000000E+00 -0.45593999997E+02  0.45594000000E+02  0.51100000000E-03 0. -1.
    9900012    2    1    2    0    0  0.22172660869E+02  0.18546925253E+02  0.13457654296E+02  0.59301893535E+02  0.49999907913E+02 0.  0.
         12    1    1    2    0    0 -0.22172660869E+02 -0.18546925253E+02 -0.13457654296E+02  0.31886106465E+02  0.00000000000E+00 0. -1.
         11    1    3    3    0    0  0.22943722188E+01  0.25251956455E+01  0.15019990422E+01  0.37278356067E+01  0.51100000000E-03 0. -1.
        -11    1    3    3    0    0  0.15214060353E+02  0.25258820034E+02 -0.10134883665E+02  0.31179985393E+02  0.51100000000E-03 0.  1.
         12    1    3    3    0    0  0.46642282979E+01 -0.92370904263E+01  0.22090538919E+02  0.24394072536E+02  0.00000000000E+00 0. -1.
</event>
<event>
 7    1  0.6593656E-013  0.5930195E+02  0.7816164E-02  0.1266605E+00
        -11   -1    0    0    0    0  0.00000000000E+00  0.00000000000E+00  0.45593999997E+02  0.45594000000E+02  0.51100000000E-03 0. -1.
         11   -1    0    0    0    0 -0.00000000000E+00 -0.00000000000E+00 -0.45593999997E+02  0.45594000000E+02  0.51100000000E-03 0.  1.
    9900012    2    1    2    0    0  0.89216329883E+01  0.20880098720E+02 -0.22386294605E+02  0.59301949070E+02  0.50000009196E+02 0.  0.
         12    1    1    2    0    0 -0.89216329883E+01 -0.20880098720E+02  0.22386294605E+02  0.31886050930E+02  0.00000000000E+00 0. -1.
         11    1    3    3    0    0 -0.65079133346E+01 -0.57606413439E+01 -0.21718524171E+01  0.89585081262E+01  0.51100000000E-03 0. -1.
        -11    1    3    3    0    0 -0.39748596149E+01  0.12359310230E+02 -0.22670959572E+02  0.26125169215E+02  0.51100000000E-03 0.  1.
         12    1    3    3    0    0  0.19404405938E+02  0.14281429834E+02  0.24565173837E+01  0.24218271730E+02  0.00000000000E+00 0. -1.
</event>
<event>
 7    1  0.6593656E-013  0.5930195E+02  0.7816164E-02  0.1266605E+00
        -11   -1    0    0    0    0  0.00000000000E+00  0.00000000000E+00  0.45593999997E+02  0.45594000000E+02  0.51100000000E-03 0.  1.
         11   -1    0    0    0    0 -0.00000000000E+00 -0.00000000000E+00 -0.45593999997E+02  0.45594000000E+02  0.51100000000E-03 0. -1.
    9900012    2    1    2    0    0  0.29068212423E+02  0.82079685005E+01  0.10217078846E+02  0.59301946300E+02  0.50000004144E+02 0.  0.
         12    1    1    2    0    0 -0.29068212423E+02 -0.82079685005E+01 -0.10217078846E+02  0.31886053700E+02  0.00000000000E+00 0. -1.
         11    1    3    3    0    0  0.20811786302E+02  0.66621977900E+01  0.22571720546E+02  0.31416522677E+02  0.51100000000E-03 0.  1.
        -11    1    3    3    0    0  0.11124876897E+01  0.32721654951E+01  0.66580587027E+01  0.75016292788E+01  0.51100000000E-03 0. -1.
         12    1    3    3    0    0  0.71439384320E+01 -0.17263947846E+01 -0.19012700402E+02  0.20383794344E+02  0.00000000000E+00 0. -1.
</event>
<event>
 7    1  0.6593656E-013  0.5930190E+02  0.7816164E-02  0.1266605E+00
        -11   -1    0    0    0    0  0.00000000000E+00  0.00000000000E+00  0.45593999997E+02  0.45594000000E+02  0.51100000000E-03 0.  1.
         11   -1    0    0    0    0 -0.00000000000E+00 -0.00000000000E+00 -0.45593999997E+02  0.45594000000E+02  0.51100000000E-03 0. -1.
    9900012    2    1    2    0    0  0.28093263516E+02  0.14258289027E+02  0.49186236559E+01  0.59301903977E+02  0.49999926957E+02 0.  0.
         12    1    1    2    0    0 -0.28093263516E+02 -0.14258289027E+02 -0.49186236559E+01  0.31886096023E+02  0.00000000000E+00 0. -1.
         11    1    3    3    0    0 -0.10182603952E+01  0.81412009867E+01  0.72635497953E+01  0.10957881348E+02  0.51100000000E-03 0. -1.
        -11    1    3    3    0    0 -0.51125569643E+01  0.65142556086E+01  0.90535599636E+01  0.12269503377E+02  0.51100000000E-03 0.  1.
         12    1    3    3    0    0  0.34224080875E+02 -0.39716756851E+00 -0.11398486103E+02  0.36074519252E+02  0.00000000000E+00 0. -1.
</event>
<event>
 7    1  0.6593656E-013  0.5930193E+02  0.7816164E-02  0.1266605E+00
        -11   -1    0    0    0    0  0.00000000000E+00  0.00000000000E+00  0.45593999997E+02  0.45594000000E+02  0.51100000000E-03 0.  1.
         11   -1    0    0    0    0 -0.00000000000E+00 -0.00000000000E+00 -0.45593999997E+02  0.45594000000E+02  0.51100000000E-03 0. -1.
    9900012    2    1    2    0    0 -0.11318590190E+01  0.14260628448E+02  0.28496921759E+02  0.59301934418E+02  0.49999982474E+02 0.  0.
         12    1    1    2    0    0  0.11318590190E+01 -0.14260628448E+02 -0.28496921759E+02  0.31886065582E+02  0.00000000000E+00 0. -1.
         11    1    3    3    0    0 -0.14285989172E+02  0.14641832859E+02  0.54954394683E+01  0.21181893478E+02  0.51100000000E-03 0. -1.
        -11    1    3    3    0    0 -0.77469544474E+01  0.17709483753E+01  0.12026394610E+02  0.14414774675E+02  0.51100000000E-03 0.  1.
         12    1    3    3    0    0  0.20901084601E+02 -0.21521527860E+01  0.10975087680E+02  0.23705266265E+02  0.00000000000E+00 0. -1.
</event>
<event>
 7    1  0.6593656E-013  0.5930198E+02  0.7816164E-02  0.1266605E+00
        -11   -1    0    0    0    0  0.00000000000E+00  0.00000000000E+00  0.45593999997E+02  0.45594000000E+02  0.51100000000E-03 0. -1.
         11   -1    0    0    0    0 -0.00000000000E+00 -0.00000000000E+00 -0.45593999997E+02  0.45594000000E+02  0.51100000000E-03 0.  1.
    9900012    2    1    2    0    0 -0.20906495147E+02 -0.21904936548E+02  0.99905176768E+01  0.59301980682E+02  0.50000066849E+02 0.  0.
         12    1    1    2    0    0  0.20906495147E+02  0.21904936548E+02 -0.99905176768E+01  0.31886019318E+02  0.00000000000E+00 0. -1.
         11    1    3    3    0    0 -0.19240848007E+02 -0.21724102279E+02  0.14968293875E+01  0.29058343902E+02  0.51100000000E-03 0.  1.
        -11    1    3    3    0    0  0.66071006757E+01 -0.11943267510E+02  0.80717759460E+01  0.15857143038E+02  0.51100000000E-03 0. -1.
         12    1    3    3    0    0 -0.82727478153E+01  0.11762433241E+02  0.42191234326E+00  0.14386493742E+02  0.00000000000E+00 0. -1.
</event>
<event>
 7    1  0.6593656E-013  0.5930186E+02  0.7816164E-02  0.1266605E+00
        -11   -1    0    0    0    0  0.00000000000E+00  0.00000000000E+00  0.45593999997E+02  0.45594000000E+02  0.51100000000E-03 0.  1.
         11   -1    0    0    0    0 -0.00000000000E+00 -0.00000000000E+00 -0.45593999997E+02  0.45594000000E+02  0.51100000000E-03 0. -1.
    9900012    2    1    2    0    0 -0.81597807536E+01  0.30476604329E+02  0.46174079587E+01  0.59301860540E+02  0.49999847738E+02 0.  0.
         12    1    1    2    0    0  0.81597807536E+01 -0.30476604329E+02 -0.46174079587E+01  0.31886139460E+02  0.00000000000E+00 0. -1.
         11    1    3    3    0    0  0.44112119381E+01 -0.83214309640E+01 -0.73864744270E+01  0.11969336188E+02  0.51100000000E-03 0. -1.
        -11    1    3    3    0    0  0.50692029940E+01  0.13527698666E+02  0.55696885884E+00  0.14457028214E+02  0.51100000000E-03 0.  1.
        -12    1    3    3    0    0 -0.17640195686E+02  0.25270336627E+02  0.11446913527E+02  0.32875496139E+02  0.00000000000E+00 0.  1.
</event>
<event>
 7    1  0.6593656E-013  0.5930192E+02  0.7816164E-02  0.1266605E+00
        -11   -1    0    0    0    0  0.00000000000E+00  0.00000000000E+00  0.45593999997E+02  0.45594000000E+02  0.51100000000E-03 0.  1.
         11   -1    0    0    0    0 -0.00000000000E+00 -0.00000000000E+00 -0.45593999997E+02  0.45594000000E+02  0.51100000000E-03 0. -1.
    9900012    2    1    2    0    0 -0.58541195469E+01 -0.11878590589E+02  0.29006040516E+02  0.59301921275E+02  0.49999958504E+02 0.  0.
         12    1    1    2    0    0  0.58541195469E+01  0.11878590589E+02 -0.29006040516E+02  0.31886078725E+02  0.00000000000E+00 0. -1.
         11    1    3    3    0    0  0.50295114306E+01  0.83399793198E+01  0.17533538046E+02  0.20056824199E+02  0.51100000000E-03 0. -1.
        -11    1    3    3    0    0 -0.93818245904E+01 -0.12906041587E+02  0.21481407330E+02  0.26758837853E+02  0.51100000000E-03 0.  1.
         12    1    3    3    0    0 -0.15018063871E+01 -0.73125283211E+01 -0.10008904860E+02  0.12486259222E+02  0.00000000000E+00 0. -1.
</event>
<event>
 7    1  0.6593656E-013  0.5930197E+02  0.7816164E-02  0.1266605E+00
        -11   -1    0    0    0    0  0.00000000000E+00  0.00000000000E+00  0.45593999997E+02  0.45594000000E+02  0.51100000000E-03 0.  1.
         11   -1    0    0    0    0 -0.00000000000E+00 -0.00000000000E+00 -0.45593999997E+02  0.45594000000E+02  0.51100000000E-03 0. -1.
    9900012    2    1    2    0    0  0.20707390187E+02 -0.21585319673E+02  0.11045227918E+02  0.59301967109E+02  0.50000042095E+02 0.  0.
         12    1    1    2    0    0 -0.20707390187E+02  0.21585319673E+02 -0.11045227918E+02  0.31886032891E+02  0.00000000000E+00 0. -1.
         11    1    3    3    0    0 -0.75707335373E+01 -0.11220387342E+01 -0.79813216886E+01  0.11057869296E+02  0.51100000000E-03 0. -1.
        -11    1    3    3    0    0 -0.50599634409E+00 -0.45062662888E+00  0.12580646929E+02  0.12598879874E+02  0.51100000000E-03 0.  1.
         12    1    3    3    0    0  0.28784120068E+02 -0.20012654310E+02  0.64459026777E+01  0.35645217940E+02  0.00000000000E+00 0. -1.
</event>
<event>
 7    1  0.6593656E-013  0.5930195E+02  0.7816164E-02  0.1266605E+00
        -11   -1    0    0    0    0  0.00000000000E+00  0.00000000000E+00  0.45593999997E+02  0.45594000000E+02  0.51100000000E-03 0. -1.
         11   -1    0    0    0    0 -0.00000000000E+00 -0.00000000000E+00 -0.45593999997E+02  0.45594000000E+02  0.51100000000E-03 0.  1.
    9900012    2    1    2    0    0  0.31119020617E+02 -0.47594990024E+01 -0.50669302996E+01  0.59301951992E+02  0.50000014525E+02 0.  0.
         12    1    1    2    0    0 -0.31119020617E+02  0.47594990024E+01  0.50669302996E+01  0.31886048008E+02  0.00000000000E+00 0. -1.
         11    1    3    3    0    0 -0.11494315454E+01  0.23558875312E+01  0.92770460968E+01  0.96402792222E+01  0.51100000000E-03 0. -1.
        -11    1    3    3    0    0 -0.58517742379E+01  0.38360811384E+01 -0.58030445779E+01  0.90903304047E+01  0.51100000000E-03 0.  1.
        -12    1    3    3    0    0  0.38120226400E+02 -0.10951467672E+02 -0.85409318185E+01  0.40571342365E+02  0.00000000000E+00 0.  1.
</event>
<event>
 7    1  0.6593656E-013  0.5930194E+02  0.7816164E-02  0.1266605E+00
        -11   -1    0    0    0    0  0.00000000000E+00  0.00000000000E+00  0.45593999997E+02  0.45594000000E+02  0.51100000000E-03 0.  1.
         11   -1    0    0    0    0 -0.00000000000E+00 -0.00000000000E+00 -0.45593999997E+02  0.45594000000E+02  0.51100000000E-03 0. -1.
    9900012    2    1    2    0    0 -0.70922897534E+01  0.18196784454E+01  0.31033995961E+02  0.59301941778E+02  0.49999995898E+02 0.  0.
         12    1    1    2    0    0  0.70922897534E+01 -0.18196784454E+01 -0.31033995961E+02  0.31886058222E+02  0.00000000000E+00 0. -1.
         11    1    3    3    0    0  0.88592962956E+01 -0.81739790911E+01  0.25052593878E+02  0.27801682059E+02  0.51100000000E-03 0. -1.
        -11    1    3    3    0    0  0.17049876605E+01  0.22652741228E+01  0.11183005661E+02  0.11536813496E+02  0.51100000000E-03 0.  1.
        -12    1    3    3    0    0 -0.17656573709E+02  0.77283834137E+01 -0.52016035772E+01  0.19963446224E+02  0.00000000000E+00 0.  1.
</event>
<event>
 7    1  0.6593656E-013  0.5930196E+02  0.7816164E-02  0.1266605E+00
        -11   -1    0    0    0    0  0.00000000000E+00  0.00000000000E+00  0.45593999997E+02  0.45594000000E+02  0.51100000000E-03 0. -1.
         11   -1    0    0    0    0 -0.00000000000E+00 -0.00000000000E+00 -0.45593999997E+02  0.45594000000E+02  0.51100000000E-03 0.  1.
    9900012    2    1    2    0    0 -0.72892567520E+01  0.15831182268E+02 -0.26701315250E+02  0.59301955528E+02  0.50000020973E+02 0.  0.
         12    1    1    2    0    0  0.72892567520E+01 -0.15831182268E+02  0.26701315250E+02  0.31886044472E+02  0.00000000000E+00 0. -1.
         11    1    3    3    0    0  0.11403131101E+02  0.16463348868E+02 -0.66612192714E+01  0.21105570290E+02  0.51100000000E-03 0. -1.
        -11    1    3    3    0    0 -0.15042015736E+02  0.22859343787E+01  0.22868071369E+01  0.15385617327E+02  0.51100000000E-03 0.  1.
         12    1    3    3    0    0 -0.36503721162E+01 -0.29181009779E+01 -0.22326903116E+02  0.22810767910E+02  0.00000000000E+00 0. -1.
</event>
<event>
 7    1  0.6593656E-013  0.5930193E+02  0.7816164E-02  0.1266605E+00
        -11   -1    0    0    0    0  0.00000000000E+00  0.00000000000E+00  0.45593999997E+02  0.45594000000E+02  0.51100000000E-03 0. -1.
         11   -1    0    0    0    0 -0.00000000000E+00 -0.00000000000E+00 -0.45593999997E+02  0.45594000000E+02  0.51100000000E-03 0.  1.
    9900012    2    1    2    0    0 -0.17079949758E+02 -0.26237138454E+02 -0.60505598283E+01  0.59301931064E+02  0.49999976357E+02 0.  0.
         12    1    1    2    0    0  0.17079949758E+02  0.26237138454E+02  0.60505598283E+01  0.31886068936E+02  0.00000000000E+00 0. -1.
         11    1    3    3    0    0  0.11330065366E+02  0.50957779974E+01 -0.57699406692E+00  0.12436649750E+02  0.51100000000E-03 0. -1.
        -11    1    3    3    0    0 -0.77837255645E+00 -0.11014798420E+02  0.31832253467E+01  0.11491935082E+02  0.51100000000E-03 0.  1.
        -12    1    3    3    0    0 -0.27631642567E+02 -0.20318118031E+02 -0.86567911081E+01  0.35373346231E+02  0.00000000000E+00 0.  1.
</event>
<event>
 7    1  0.6593656E-013  0.5930194E+02  0.7816164E-02  0.1266605E+00
        -11   -1    0    0    0    0  0.00000000000E+00  0.00000000000E+00  0.45593999997E+02  0.45594000000E+02  0.51100000000E-03 0. -1.
         11   -1    0    0    0    0 -0.00000000000E+00 -0.00000000000E+00 -0.45593999997E+02  0.45594000000E+02  0.51100000000E-03 0.  1.
    9900012    2    1    2    0    0 -0.25669278589E+02  0.18784498813E+02 -0.22252315087E+01  0.59301938560E+02  0.49999990028E+02 0.  0.
         12    1    1    2    0    0  0.25669278589E+02 -0.18784498813E+02  0.22252315087E+01  0.31886061440E+02  0.00000000000E+00 0. -1.
         11    1    3    3    0    0 -0.16068991929E+02 -0.25853134851E+01  0.10977025968E+02  0.19631389324E+02  0.51100000000E-03 0. -1.
        -11    1    3    3    0    0 -0.15254316939E+02  0.63860988067E+00 -0.18835232578E+01  0.15383421856E+02  0.51100000000E-03 0.  1.
        -12    1    3    3    0    0  0.56540302800E+01  0.20731202417E+02 -0.11318734219E+02  0.24287127380E+02  0.00000000000E+00 0.  1.
</event>
<event>
 7    1  0.6593656E-013  0.5930193E+02  0.7816164E-02  0.1266605E+00
        -11   -1    0    0    0    0  0.00000000000E+00  0.00000000000E+00  0.45593999997E+02  0.45594000000E+02  0.51100000000E-03 0.  1.
         11   -1    0    0    0    0 -0.00000000000E+00 -0.00000000000E+00 -0.45593999997E+02  0.45594000000E+02  0.51100000000E-03 0. -1.
    9900012    2    1    2    0    0 -0.10245514004E+02  0.12419372611E+02  0.27522905394E+02  0.59301926322E+02  0.49999967709E+02 0.  0.
         12    1    1    2    0    0  0.10245514004E+02 -0.12419372611E+02 -0.27522905394E+02  0.31886073678E+02  0.00000000000E+00 0. -1.
         11    1    3    3    0    0 -0.11116282163E+02 -0.15918512345E+02  0.46201682905E+01  0.19957873627E+02  0.51100000000E-03 0. -1.
        -11    1    3    3    0    0  0.13002315055E+01  0.72491082954E+01 -0.10369975127E+01  0.74374415728E+01  0.51100000000E-03 0.  1.
        -12    1    3    3    0    0 -0.42946334687E+00  0.21088776660E+02  0.23939734617E+02  0.31906611122E+02  0.00000000000E+00 0.  1.
</event>
<event>
 7    1  0.6593656E-013  0.5930195E+02  0.7816164E-02  0.1266605E+00
        -11   -1    0    0    0    0  0.00000000000E+00  0.00000000000E+00  0.45593999997E+02  0.45594000000E+02  0.51100000000E-03 0. -1.
         11   -1    0    0    0    0 -0.00000000000E+00 -0.00000000000E+00 -0.45593999997E+02  0.45594000000E+02  0.51100000000E-03 0.  1.
    9900012    2    1    2    0    0  0.14608162583E+02  0.12231255349E+02 -0.25567916384E+02  0.59301947098E+02  0.50000005599E+02 0.  0.
         12    1    1    2    0    0 -0.14608162583E+02 -0.12231255349E+02  0.25567916384E+02  0.31886052902E+02  0.00000000000E+00 0. -1.
         11    1    3    3    0    0 -0.60463024691E+01  0.96531409439E+01  0.72466851202E+01  0.13500198114E+02  0.51100000000E-03 0. -1.
        -11    1    3    3    0    0 -0.40498143407E+01  0.47863782343E+01 -0.28038776076E+01  0.68681979220E+01  0.51100000000E-03 0.  1.
        -12    1    3    3    0    0  0.24704279393E+02 -0.22082638290E+01 -0.30010723896E+02  0.38933551062E+02  0.00000000000E+00 0.  1.
</event>
<event>
 7    1  0.6593656E-013  0.5930192E+02  0.7816164E-02  0.1266605E+00
        -11   -1    0    0    0    0  0.00000000000E+00  0.00000000000E+00  0.45593999997E+02  0.45594000000E+02  0.51100000000E-03 0. -1.
         11   -1    0    0    0    0 -0.00000000000E+00 -0.00000000000E+00 -0.45593999997E+02  0.45594000000E+02  0.51100000000E-03 0.  1.
    9900012    2    1    2    0    0  0.28716528215E+02 -0.11534763118E+02  0.76832393920E+01  0.59301922780E+02  0.49999961249E+02 0.  0.
         12    1    1    2    0    0 -0.28716528215E+02  0.11534763118E+02 -0.76832393920E+01  0.31886077220E+02  0.00000000000E+00 0. -1.
         11    1    3    3    0    0  0.78121386214E+01 -0.72235062211E+01  0.14840579529E+02  0.18260650399E+02  0.51100000000E-03 0. -1.
        -11    1    3    3    0    0  0.11503970991E+02 -0.18059568046E+02  0.28653189205E+01  0.21603226596E+02  0.51100000000E-03 0.  1.
         12    1    3    3    0    0  0.94004186026E+01  0.13748311149E+02 -0.10022659057E+02  0.19438045785E+02  0.00000000000E+00 0. -1.
</event>
<event>
 7    1  0.6593656E-013  0.5930199E+02  0.7816164E-02  0.1266605E+00
        -11   -1    0    0    0    0  0.00000000000E+00  0.00000000000E+00  0.45593999997E+02  0.45594000000E+02  0.51100000000E-03 0.  1.
         11   -1    0    0    0    0 -0.00000000000E+00 -0.00000000000E+00 -0.45593999997E+02  0.45594000000E+02  0.51100000000E-03 0. -1.
    9900012    2    1    2    0    0  0.64414950005E+01  0.21481533763E+02  0.22666468545E+02  0.59301985088E+02  0.50000074884E+02 0.  0.
         12    1    1    2    0    0 -0.64414950005E+01 -0.21481533763E+02 -0.22666468545E+02  0.31886014912E+02  0.00000000000E+00 0. -1.
         11    1    3    3    0    0 -0.25847139750E+01 -0.53196474525E+01 -0.49873679456E+01  0.77364872285E+01  0.51100000000E-03 0. -1.
        -11    1    3    3    0    0  0.66229081304E+01  0.15940070318E+02 -0.42511020760E+01  0.17776968891E+02  0.51100000000E-03 0.  1.
         12    1    3    3    0    0  0.24033008450E+01  0.10861110898E+02  0.31904938567E+02  0.33788528968E+02  0.00000000000E+00 0. -1.
</event>
<event>
 7    1  0.6593656E-013  0.5930193E+02  0.7816164E-02  0.1266605E+00
        -11   -1    0    0    0    0  0.00000000000E+00  0.00000000000E+00  0.45593999997E+02  0.45594000000E+02  0.51100000000E-03 0.  1.
         11   -1    0    0    0    0 -0.00000000000E+00 -0.00000000000E+00 -0.45593999997E+02  0.45594000000E+02  0.51100000000E-03 0. -1.
    9900012    2    1    2    0    0  0.61549772965E+01  0.25648827663E+02  0.17915783374E+02  0.59301930943E+02  0.49999976136E+02 0.  0.
         12    1    1    2    0    0 -0.61549772965E+01 -0.25648827663E+02 -0.17915783374E+02  0.31886069057E+02  0.00000000000E+00 0. -1.
         11    1    3    3    0    0  0.79112918090E+01  0.27738408423E+01 -0.10193191355E+02  0.13197874123E+02  0.51100000000E-03 0. -1.
        -11    1    3    3    0    0  0.11010861873E+02  0.11757259611E+01  0.11366676317E+02  0.15868923765E+02  0.51100000000E-03 0.  1.
        -12    1    3    3    0    0 -0.12767176386E+02  0.21699260860E+02  0.16742298412E+02  0.30235133055E+02  0.00000000000E+00 0.  1.
</event>
<event>
 7    1  0.6593656E-013  0.5930199E+02  0.7816164E-02  0.1266605E+00
        -11   -1    0    0    0    0  0.00000000000E+00  0.00000000000E+00  0.45593999997E+02  0.45594000000E+02  0.51100000000E-03 0.  1.
         11   -1    0    0    0    0 -0.00000000000E+00 -0.00000000000E+00 -0.45593999997E+02  0.45594000000E+02  0.51100000000E-03 0. -1.
    9900012    2    1    2    0    0 -0.14910519987E+02 -0.10859613640E+02  0.26008902450E+02  0.59301987058E+02  0.50000078476E+02 0.  0.
         12    1    1    2    0    0  0.14910519987E+02  0.10859613640E+02 -0.26008902450E+02  0.31886012942E+02  0.00000000000E+00 0. -1.
         11    1    3    3    0    0 -0.16323571287E+02 -0.10069041367E+02  0.18704893548E+02  0.26790252267E+02  0.51100000000E-03 0.  1.
        -11    1    3    3    0    0  0.89623404983E+01 -0.96471130296E+00  0.17581931221E+02  0.19757998907E+02  0.51100000000E-03 0. -1.
         12    1    3    3    0    0 -0.75492891986E+01  0.17413903018E+00 -0.10277922319E+02  0.12753735884E+02  0.00000000000E+00 0. -1.
</event>
<event>
 7    1  0.6593656E-013  0.5930210E+02  0.7816164E-02  0.1266604E+00
        -11   -1    0    0    0    0  0.00000000000E+00  0.00000000000E+00  0.45593999997E+02  0.45594000000E+02  0.51100000000E-03 0.  1.
         11   -1    0    0    0    0 -0.00000000000E+00 -0.00000000000E+00 -0.45593999997E+02  0.45594000000E+02  0.51100000000E-03 0. -1.
    9900012    2    1    2    0    0  0.69226023231E+01  0.68428486886E+01  0.30363858937E+02  0.59302095110E+02  0.50000275537E+02 0.  0.
         12    1    1    2    0    0 -0.69226023231E+01 -0.68428486886E+01 -0.30363858937E+02  0.31885904890E+02  0.00000000000E+00 0. -1.
         11    1    3    3    0    0  0.11590933162E+02 -0.14737303041E+02  0.83862170445E+00  0.18768087786E+02  0.51100000000E-03 0. -1.
        -11    1    3    3    0    0 -0.73389234167E+01  0.45008455110E+01  0.35060571695E+01  0.92956895585E+01  0.51100000000E-03 0.  1.
        -12    1    3    3    0    0  0.26705925775E+01  0.17079306219E+02  0.26019180063E+02  0.31238317765E+02  0.00000000000E+00 0.  1.
</event>
<event>
 7    1  0.6593656E-013  0.5930192E+02  0.7816164E-02  0.1266605E+00
        -11   -1    0    0    0    0  0.00000000000E+00  0.00000000000E+00  0.45593999997E+02  0.45594000000E+02  0.51100000000E-03 0.  1.
         11   -1    0    0    0    0 -0.00000000000E+00 -0.00000000000E+00 -0.45593999997E+02  0.45594000000E+02  0.51100000000E-03 0. -1.
    9900012    2    1    2    0    0 -0.92477597349E+01 -0.22965904097E+02  0.20093988764E+02  0.59301918466E+02  0.49999953382E+02 0.  0.
         12    1    1    2    0    0  0.92477597349E+01  0.22965904097E+02 -0.20093988764E+02  0.31886081534E+02  0.00000000000E+00 0. -1.
         11    1    3    3    0    0 -0.88880330433E+01 -0.25262298930E+01 -0.64320049138E+01  0.11258314986E+02  0.51100000000E-03 0. -1.
        -11    1    3    3    0    0 -0.14363414731E+02 -0.51823384368E+01  0.11835823269E+01  0.15315520944E+02  0.51100000000E-03 0.  1.
        -12    1    3    3    0    0  0.14003688039E+02 -0.15257335767E+02  0.25342411351E+02  0.32728082536E+02  0.00000000000E+00 0.  1.
</event>
<event>
 7    1  0.6593656E-013  0.5930194E+02  0.7816164E-02  0.1266605E+00
        -11   -1    0    0    0    0  0.00000000000E+00  0.00000000000E+00  0.45593999997E+02  0.45594000000E+02  0.51100000000E-03 0. -1.
         11   -1    0    0    0    0 -0.00000000000E+00 -0.00000000000E+00 -0.45593999997E+02  0.45594000000E+02  0.51100000000E-03 0.  1.
    9900012    2    1    2    0    0 -0.54168521105E+01  0.28693514891E+02 -0.12808630321E+02  0.59301935735E+02  0.49999984876E+02 0.  0.
         12    1    1    2    0    0  0.54168521105E+01 -0.28693514891E+02  0.12808630321E+02  0.31886064265E+02  0.00000000000E+00 0. -1.
         11    1    3    3    0    0 -0.67650542999E+01  0.34111368844E+01 -0.11311813442E+02  0.13614658943E+02  0.51100000000E-03 0.  1.
        -11    1    3    3    0    0 -0.48140837176E+01 -0.28516556174E+01 -0.13401678026E+02  0.14522820524E+02  0.51100000000E-03 0. -1.
         12    1    3    3    0    0  0.61622859070E+01  0.28134033624E+02  0.11904861147E+02  0.31164456268E+02  0.00000000000E+00 0. -1.
</event>
<event>
 7    1  0.6593656E-013  0.5930195E+02  0.7816164E-02  0.1266605E+00
        -11   -1    0    0    0    0  0.00000000000E+00  0.00000000000E+00  0.45593999997E+02  0.45594000000E+02  0.51100000000E-03 0.  1.
         11   -1    0    0    0    0 -0.00000000000E+00 -0.00000000000E+00 -0.45593999997E+02  0.45594000000E+02  0.51100000000E-03 0. -1.
    9900012    2    1    2    0    0 -0.15439357010E+02 -0.26678948898E+02  0.81596800837E+01  0.59301946022E+02  0.50000003638E+02 0.  0.
         12    1    1    2    0    0  0.15439357010E+02  0.26678948898E+02 -0.81596800837E+01  0.31886053978E+02  0.00000000000E+00 0. -1.
         11    1    3    3    0    0  0.14054158308E+02 -0.20032204172E+02  0.63100221145E+01  0.25271029838E+02  0.51100000000E-03 0. -1.
        -11    1    3    3    0    0 -0.86287862232E+01  0.51115243892E+01  0.69915236848E+00  0.10053479376E+02  0.51100000000E-03 0.  1.
        -12    1    3    3    0    0 -0.20864729094E+02 -0.11758269116E+02  0.11505056008E+01  0.23977436809E+02  0.00000000000E+00 0.  1.
</event>
<event>
 7    1  0.6593656E-013  0.5930194E+02  0.7816164E-02  0.1266605E+00
        -11   -1    0    0    0    0  0.00000000000E+00  0.00000000000E+00  0.45593999997E+02  0.45594000000E+02  0.51100000000E-03 0.  1.
         11   -1    0    0    0    0 -0.00000000000E+00 -0.00000000000E+00 -0.45593999997E+02  0.45594000000E+02  0.51100000000E-03 0. -1.
    9900012    2    1    2    0    0  0.26613382651E+01 -0.25298000189E+02  0.19226260132E+02  0.59301943273E+02  0.49999998624E+02 0.  0.
         12    1    1    2    0    0 -0.26613382651E+01  0.25298000189E+02 -0.19226260132E+02  0.31886056727E+02  0.00000000000E+00 0. -1.
         11    1    3    3    0    0 -0.13688595402E+02 -0.10874036149E+02 -0.10592076415E+02  0.20440508538E+02  0.51100000000E-03 0. -1.
        -11    1    3    3    0    0  0.75548402049E+01  0.10522478711E+00  0.12492425498E+02  0.14599567729E+02  0.51100000000E-03 0.  1.
        -12    1    3    3    0    0  0.87950934618E+01 -0.14529188826E+02  0.17325911050E+02  0.24261867007E+02  0.00000000000E+00 0.  1.
</event>
<event>
 7    1  0.6593656E-013  0.5930200E+02  0.7816164E-02  0.1266605E+00
        -11   -1    0    0    0    0  0.00000000000E+00  0.00000000000E+00  0.45593999997E+02  0.45594000000E+02  0.51100000000E-03 0. -1.
         11   -1    0    0    0    0 -0.00000000000E+00 -0.00000000000E+00 -0.45593999997E+02  0.45594000000E+02  0.51100000000E-03 0.  1.
    9900012    2    1    2    0    0  0.24235724241E+01 -0.13401314749E+02 -0.28831375949E+02  0.59301997124E+02  0.50000096835E+02 0.  0.
         12    1    1    2    0    0 -0.24235724241E+01  0.13401314749E+02  0.28831375949E+02  0.31886002876E+02  0.00000000000E+00 0. -1.
         11    1    3    3    0    0  0.51746202790E+01 -0.13710516912E+02 -0.47436759345E+00  0.14662196081E+02  0.51100000000E-03 0. -1.
        -11    1    3    3    0    0 -0.26919981699E+01 -0.13204425465E+02 -0.28053791305E+02  0.31122643090E+02  0.51100000000E-03 0.  1.
        -12    1    3    3    0    0 -0.59049684936E-01  0.13513627629E+02 -0.30321705014E+00  0.13517157954E+02  0.00000000000E+00 0.  1.
</event>
<event>
 7    1  0.6593656E-013  0.5930198E+02  0.7816164E-02  0.1266605E+00
        -11   -1    0    0    0    0  0.00000000000E+00  0.00000000000E+00  0.45593999997E+02  0.45594000000E+02  0.51100000000E-03 0.  1.
         11   -1    0    0    0    0 -0.00000000000E+00 -0.00000000000E+00 -0.45593999997E+02  0.45594000000E+02  0.51100000000E-03 0. -1.
    9900012    2    1    2    0    0 -0.12265453460E+01  0.28382531794E+02  0.14479158092E+02  0.59301975733E+02  0.50000057823E+02 0.  0.
         12    1    1    2    0    0  0.12265453460E+01 -0.28382531794E+02 -0.14479158092E+02  0.31886024267E+02  0.00000000000E+00 0. -1.
         11    1    3    3    0    0 -0.22513243122E+01  0.19766614632E+02 -0.94200573000E+01  0.22011928470E+02  0.51100000000E-03 0. -1.
        -11    1    3    3    0    0  0.15027117149E+01  0.57301524480E+01 -0.52975480397E+01  0.79471255854E+01  0.51100000000E-03 0.  1.
        -12    1    3    3    0    0 -0.47793274873E+00  0.28857647135E+01  0.29196763431E+02  0.29342921677E+02  0.00000000000E+00 0.  1.
</event>
<event>
 7    1  0.6593656E-013  0.5930195E+02  0.7816164E-02  0.1266605E+00
        -11   -1    0    0    0    0  0.00000000000E+00  0.00000000000E+00  0.45593999997E+02  0.45594000000E+02  0.51100000000E-03 0.  1.
         11   -1    0    0    0    0 -0.00000000000E+00 -0.00000000000E+00 -0.45593999997E+02  0.45594000000E+02  0.51100000000E-03 0. -1.
    9900012    2    1    2    0    0  0.29902061034E+02 -0.10596397262E+02  0.32098494170E+01  0.59301952545E+02  0.50000015534E+02 0.  0.
         12    1    1    2    0    0 -0.29902061034E+02  0.10596397262E+02 -0.32098494170E+01  0.31886047455E+02  0.00000000000E+00 0. -1.
         11    1    3    3    0    0  0.45491110885E+01  0.61498548860E+01 -0.48459512151E+01  0.90552951501E+01  0.51100000000E-03 0. -1.
        -11    1    3    3    0    0  0.14146840508E+02  0.11299124198E+01 -0.13851965008E+02  0.19831458173E+02  0.51100000000E-03 0.  1.
        -12    1    3    3    0    0  0.11206109437E+02 -0.17876164568E+02  0.21907765640E+02  0.30415199222E+02  0.00000000000E+00 0.  1.
</event>
<event>
 7    1  0.6593656E-013  0.5930195E+02  0.7816164E-02  0.1266605E+00
        -11   -1    0    0    0    0  0.00000000000E+00  0.00000000000E+00  0.45593999997E+02  0.45594000000E+02  0.51100000000E-03 0.  1.
         11   -1    0    0    0    0 -0.00000000000E+00 -0.00000000000E+00 -0.45593999997E+02  0.45594000000E+02  0.51100000000E-03 0. -1.
    9900012    2    1    2    0    0  0.10214564574E+02  0.52306982203E+01  0.29749330073E+02  0.59301950180E+02  0.50000011220E+02 0.  0.
         12    1    1    2    0    0 -0.10214564574E+02 -0.52306982203E+01 -0.29749330073E+02  0.31886049820E+02  0.00000000000E+00 0. -1.
         11    1    3    3    0    0 -0.58787814160E+01  0.81951018157E+01  0.22938453837E+02  0.25057781813E+02  0.51100000000E-03 0.  1.
        -11    1    3    3    0    0 -0.41734402602E+00  0.86373093492E+01  0.10633753264E+02  0.13705984006E+02  0.51100000000E-03 0. -1.
        -12    1    3    3    0    0  0.16510690016E+02 -0.11601712944E+02 -0.38228770280E+01  0.20538184361E+02  0.00000000000E+00 0.  1.
</event>
<event>
 7    1  0.6593656E-013  0.5930194E+02  0.7816164E-02  0.1266605E+00
        -11   -1    0    0    0    0  0.00000000000E+00  0.00000000000E+00  0.45593999997E+02  0.45594000000E+02  0.51100000000E-03 0. -1.
         11   -1    0    0    0    0 -0.00000000000E+00 -0.00000000000E+00 -0.45593999997E+02  0.45594000000E+02  0.51100000000E-03 0.  1.
    9900012    2    1    2    0    0  0.70011767310E+01  0.91239579510E+01  0.29739831811E+02  0.59301942224E+02  0.49999996711E+02 0.  0.
         12    1    1    2    0    0 -0.70011767310E+01 -0.91239579510E+01 -0.29739831811E+02  0.31886057776E+02  0.00000000000E+00 0. -1.
         11    1    3    3    0    0  0.53724761486E+01 -0.53164333503E+01  0.11214579976E+01  0.76410491319E+01  0.51100000000E-03 0. -1.
        -11    1    3    3    0    0 -0.64113976382E+01 -0.23892607893E+01 -0.80237379634E+01  0.10544901989E+02  0.51100000000E-03 0.  1.
         12    1    3    3    0    0  0.80400982207E+01  0.16829652091E+02  0.36642111777E+02  0.41115991103E+02  0.00000000000E+00 0. -1.
</event>
<event>
 7    1  0.6593656E-013  0.5930194E+02  0.7816164E-02  0.1266605E+00
        -11   -1    0    0    0    0  0.00000000000E+00  0.00000000000E+00  0.45593999997E+02  0.45594000000E+02  0.51100000000E-03 0.  1.
         11   -1    0    0    0    0 -0.00000000000E+00 -0.00000000000E+00 -0.45593999997E+02  0.45594000000E+02  0.51100000000E-03 0. -1.
    9900012    2    1    2    0    0  0.24655096432E+02  0.49422844373E+01  0.19606655910E+02  0.59301938601E+02  0.49999990104E+02 0.  0.
         12    1    1    2    0    0 -0.24655096432E+02 -0.49422844373E+01 -0.19606655910E+02  0.31886061399E+02  0.00000000000E+00 0. -1.
         11    1    3    3    0    0  0.11758144940E+02  0.85448622613E+01  0.78242719484E+01  0.16507206768E+02  0.51100000000E-03 0. -1.
        -11    1    3    3    0    0  0.16620746163E+02  0.13208564001E+02  0.14004845251E+02  0.25433266734E+02  0.51100000000E-03 0.  1.
         12    1    3    3    0    0 -0.37237946705E+01 -0.16811141825E+02 -0.22224612896E+01  0.17361465100E+02  0.00000000000E+00 0. -1.
</event>
<event>
 7    1  0.6593656E-013  0.5930197E+02  0.7816164E-02  0.1266605E+00
        -11   -1    0    0    0    0  0.00000000000E+00  0.00000000000E+00  0.45593999997E+02  0.45594000000E+02  0.51100000000E-03 0.  1.
         11   -1    0    0    0    0 -0.00000000000E+00 -0.00000000000E+00 -0.45593999997E+02  0.45594000000E+02  0.51100000000E-03 0. -1.
    9900012    2    1    2    0    0  0.20592676841E+02  0.17306261733E+02  0.17121731192E+02  0.59301973066E+02  0.50000052958E+02 0.  0.
         12    1    1    2    0    0 -0.20592676841E+02 -0.17306261733E+02 -0.17121731192E+02  0.31886026934E+02  0.00000000000E+00 0. -1.
         11    1    3    3    0    0 -0.12389935394E+02  0.84867987921E+01  0.61156678184E+00  0.15030311607E+02  0.51100000000E-03 0. -1.
        -11    1    3    3    0    0 -0.26098100909E+01 -0.91918644755E+00 -0.15681811954E+01  0.31804410006E+01  0.51100000000E-03 0.  1.
        -12    1    3    3    0    0  0.35592422326E+02  0.97386493888E+01  0.18078345605E+02  0.41091220458E+02  0.00000000000E+00 0.  1.
</event>
<event>
 7    1  0.6593656E-013  0.5930196E+02  0.7816164E-02  0.1266605E+00
        -11   -1    0    0    0    0  0.00000000000E+00  0.00000000000E+00  0.45593999997E+02  0.45594000000E+02  0.51100000000E-03 0. -1.
         11   -1    0    0    0    0 -0.00000000000E+00 -0.00000000000E+00 -0.45593999997E+02  0.45594000000E+02  0.51100000000E-03 0.  1.
    9900012    2    1    2    0    0  0.24430682848E+02  0.17700523036E+02  0.10322451617E+02  0.59301956226E+02  0.50000022246E+02 0.  0.
         12    1    1    2    0    0 -0.24430682848E+02 -0.17700523036E+02 -0.10322451617E+02  0.31886043774E+02  0.00000000000E+00 0. -1.
         11    1    3    3    0    0  0.76999391318E+01  0.18997978486E+02  0.11453430417E+02  0.23481765644E+02  0.51100000000E-03 0. -1.
        -11    1    3    3    0    0  0.20426000291E+02  0.10574507869E+02 -0.31767708882E+01  0.23219250162E+02  0.51100000000E-03 0.  1.
        -12    1    3    3    0    0 -0.36952565747E+01 -0.11871963319E+02  0.20457920888E+01  0.12600940420E+02  0.00000000000E+00 0.  1.
</event>
<event>
 7    1  0.6593656E-013  0.5930195E+02  0.7816164E-02  0.1266605E+00
        -11   -1    0    0    0    0  0.00000000000E+00  0.00000000000E+00  0.45593999997E+02  0.45594000000E+02  0.51100000000E-03 0.  1.
         11   -1    0    0    0    0 -0.00000000000E+00 -0.00000000000E+00 -0.45593999997E+02  0.45594000000E+02  0.51100000000E-03 0. -1.
    9900012    2    1    2    0    0 -0.14867253152E+02  0.27038555994E+02  0.80375168614E+01  0.59301946562E+02  0.50000004623E+02 0.  0.
         12    1    1    2    0    0  0.14867253152E+02 -0.27038555994E+02 -0.80375168614E+01  0.31886053438E+02  0.00000000000E+00 0. -1.
         11    1    3    3    0    0  0.41974401550E+01 -0.35097694892E+01  0.14799025972E+02  0.15778091003E+02  0.51100000000E-03 0. -1.
        -11    1    3    3    0    0 -0.74387788172E+00  0.49841915004E+01  0.74633544328E+01  0.90053972075E+01  0.51100000000E-03 0.  1.
         12    1    3    3    0    0 -0.18320815426E+02  0.25564133983E+02 -0.14224863544E+02  0.34518458352E+02  0.00000000000E+00 0. -1.
</event>
<event>
 7    1  0.6593656E-013  0.5930194E+02  0.7816164E-02  0.1266605E+00
        -11   -1    0    0    0    0  0.00000000000E+00  0.00000000000E+00  0.45593999997E+02  0.45594000000E+02  0.51100000000E-03 0.  1.
         11   -1    0    0    0    0 -0.00000000000E+00 -0.00000000000E+00 -0.45593999997E+02  0.45594000000E+02  0.51100000000E-03 0. -1.
    9900012    2    1    2    0    0 -0.86937445533E+01  0.38766678440E+00  0.30675547016E+02  0.59301942473E+02  0.49999997165E+02 0.  0.
         12    1    1    2    0    0  0.86937445533E+01 -0.38766678440E+00 -0.30675547016E+02  0.31886057527E+02  0.00000000000E+00 0. -1.
         11    1    3    3    0    0 -0.15206446906E+02 -0.20582949365E+01  0.29635144270E+02  0.33372359547E+02  0.51100000000E-03 0. -1.
        -11    1    3    3    0    0 -0.16727295067E+01  0.11037826293E+02  0.64442392293E+01  0.12890300725E+02  0.51100000000E-03 0.  1.
         12    1    3    3    0    0  0.81854318597E+01 -0.85918645725E+01 -0.54038364838E+01  0.13039282201E+02  0.00000000000E+00 0. -1.
</event>
<event>
 7    1  0.6593656E-013  0.5930192E+02  0.7816164E-02  0.1266605E+00
        -11   -1    0    0    0    0  0.00000000000E+00  0.00000000000E+00  0.45593999997E+02  0.45594000000E+02  0.51100000000E-03 0.  1.
         11   -1    0    0    0    0 -0.00000000000E+00 -0.00000000000E+00 -0.45593999997E+02  0.45594000000E+02  0.51100000000E-03 0. -1.
    9900012    2    1    2    0    0 -0.10103962674E+02  0.22930945868E+02 -0.19718109851E+02  0.59301918456E+02  0.49999953363E+02 0.  0.
         12    1    1    2    0    0  0.10103962674E+02 -0.22930945868E+02  0.19718109851E+02  0.31886081544E+02  0.00000000000E+00 0. -1.
         11    1    3    3    0    0  0.65493463466E+00  0.11918618377E+02 -0.28301816045E+02  0.30716041332E+02  0.51100000000E-03 0. -1.
        -11    1    3    3    0    0 -0.64778265534E+01 -0.64988088060E+01  0.19765505285E+01  0.93863467338E+01  0.51100000000E-03 0.  1.
         12    1    3    3    0    0 -0.42810707557E+01  0.17511136297E+02  0.66071556655E+01  0.19199530391E+02  0.00000000000E+00 0. -1.
</event>
<event>
 7    1  0.6593656E-013  0.5930193E+02  0.7816164E-02  0.1266605E+00
        -11   -1    0    0    0    0  0.00000000000E+00  0.00000000000E+00  0.45593999997E+02  0.45594000000E+02  0.51100000000E-03 0.  1.
         11   -1    0    0    0    0 -0.00000000000E+00 -0.00000000000E+00 -0.45593999997E+02  0.45594000000E+02  0.51100000000E-03 0. -1.
    9900012    2    1    2    0    0 -0.11810433172E+02 -0.12833953955E+02  0.26693162237E+02  0.59301927554E+02  0.49999969956E+02 0.  0.
         12    1    1    2    0    0  0.11810433172E+02  0.12833953955E+02 -0.26693162237E+02  0.31886072446E+02  0.00000000000E+00 0. -1.
         11    1    3    3    0    0 -0.17097065196E+02  0.11018008097E+02  0.15809229126E+02  0.25761169744E+02  0.51100000000E-03 0. -1.
        -11    1    3    3    0    0  0.40311355387E+01  0.47338122767E+00  0.80543415463E+01  0.90192328678E+01  0.51100000000E-03 0.  1.
         12    1    3    3    0    0  0.12554964855E+01 -0.24325343279E+02  0.28295915640E+01  0.24521524942E+02  0.00000000000E+00 0. -1.
</event>
<event>
 7    1  0.6593656E-013  0.5930194E+02  0.7816164E-02  0.1266605E+00
        -11   -1    0    0    0    0  0.00000000000E+00  0.00000000000E+00  0.45593999997E+02  0.45594000000E+02  0.51100000000E-03 0. -1.
         11   -1    0    0    0    0 -0.00000000000E+00 -0.00000000000E+00 -0.45593999997E+02  0.45594000000E+02  0.51100000000E-03 0.  1.
    9900012    2    1    2    0    0 -0.10476241493E+02 -0.26534456994E+02 -0.14244007170E+02  0.59301940600E+02  0.49999993748E+02 0.  0.
         12    1    1    2    0    0  0.10476241493E+02  0.26534456994E+02  0.14244007170E+02  0.31886059400E+02  0.00000000000E+00 0. -1.
         11    1    3    3    0    0 -0.66478275329E+01 -0.95484927857E+01  0.11813108815E+01  0.11694563739E+02  0.51100000000E-03 0. -1.
        -11    1    3    3    0    0  0.71956944805E+01 -0.25788015920E+02 -0.93897728960E-01  0.26773281480E+02  0.51100000000E-03 0.  1.
        -12    1    3    3    0    0 -0.11024108441E+02  0.88020517112E+01 -0.15331420323E+02  0.20834095381E+02  0.00000000000E+00 0.  1.
</event>
<event>
 7    1  0.6593656E-013  0.5930193E+02  0.7816164E-02  0.1266605E+00
        -11   -1    0    0    0    0  0.00000000000E+00  0.00000000000E+00  0.45593999997E+02  0.45594000000E+02  0.51100000000E-03 0.  1.
         11   -1    0    0    0    0 -0.00000000000E+00 -0.00000000000E+00 -0.45593999997E+02  0.45594000000E+02  0.51100000000E-03 0. -1.
    9900012    2    1    2    0    0  0.19330518894E+02  0.10700175237E+02  0.22990403216E+02  0.59301931713E+02  0.49999977540E+02 0.  0.
         12    1    1    2    0    0 -0.19330518894E+02 -0.10700175237E+02 -0.22990403216E+02  0.31886068287E+02  0.00000000000E+00 0. -1.
         11    1    3    3    0    0  0.15201100941E+02 -0.42337742702E+01 -0.33624483955E+01  0.16133950969E+02  0.51100000000E-03 0. -1.
        -11    1    3    3    0    0 -0.41745911596E+01 -0.76808888132E+01  0.21155213385E+01  0.89943701894E+01  0.51100000000E-03 0.  1.
        -12    1    3    3    0    0  0.83040091124E+01  0.22614838320E+02  0.24237330273E+02  0.34173610555E+02  0.00000000000E+00 0.  1.
</event>
<event>
 7    1  0.6593656E-013  0.5930194E+02  0.7816164E-02  0.1266605E+00
        -11   -1    0    0    0    0  0.00000000000E+00  0.00000000000E+00  0.45593999997E+02  0.45594000000E+02  0.51100000000E-03 0.  1.
         11   -1    0    0    0    0 -0.00000000000E+00 -0.00000000000E+00 -0.45593999997E+02  0.45594000000E+02  0.51100000000E-03 0. -1.
    9900012    2    1    2    0    0 -0.14805432752E+02 -0.20634341925E+02  0.19280657976E+02  0.59301942269E+02  0.49999996793E+02 0.  0.
         12    1    1    2    0    0  0.14805432752E+02  0.20634341925E+02 -0.19280657976E+02  0.31886057731E+02  0.00000000000E+00 0. -1.
         11    1    3    3    0    0 -0.13937324096E+02  0.46992975974E+01 -0.49199078911E+01  0.15509284148E+02  0.51100000000E-03 0. -1.
        -11    1    3    3    0    0 -0.87880290665E+00  0.34434673740E+01  0.12036661643E+02  0.12550338078E+02  0.51100000000E-03 0.  1.
         12    1    3    3    0    0  0.10694250646E-01 -0.28777106897E+02  0.12163904223E+02  0.31242320043E+02  0.00000000000E+00 0. -1.
</event>
<event>
 7    1  0.6593656E-013  0.5930191E+02  0.7816164E-02  0.1266605E+00
        -11   -1    0    0    0    0  0.00000000000E+00  0.00000000000E+00  0.45593999997E+02  0.45594000000E+02  0.51100000000E-03 0. -1.
         11   -1    0    0    0    0 -0.00000000000E+00 -0.00000000000E+00 -0.45593999997E+02  0.45594000000E+02  0.51100000000E-03 0.  1.
    9900012    2    1    2    0    0  0.24914060509E+01  0.18971155955E+02  0.25507075488E+02  0.59301909579E+02  0.49999937174E+02 0.  0.
         12    1    1    2    0    0 -0.24914060509E+01 -0.18971155955E+02 -0.25507075488E+02  0.31886090421E+02  0.00000000000E+00 0. -1.
         11    1    3    3    0    0 -0.45670336155E+01  0.31824902646E+01  0.24687912258E+02  0.25307687612E+02  0.51100000000E-03 0. -1.
        -11    1    3    3    0    0  0.29991556759E+01 -0.28786816354E+01  0.11415319969E+02  0.12148714869E+02  0.51100000000E-03 0.  1.
        -12    1    3    3    0    0  0.40592839904E+01  0.18667347326E+02 -0.10596156739E+02  0.21845507097E+02  0.00000000000E+00 0.  1.
</event>
<event>
 7    1  0.6593656E-013  0.5930168E+02  0.7816164E-02  0.1266606E+00
        -11   -1    0    0    0    0  0.00000000000E+00  0.00000000000E+00  0.45593999997E+02  0.45594000000E+02  0.51100000000E-03 0.  1.
         11   -1    0    0    0    0 -0.00000000000E+00 -0.00000000000E+00 -0.45593999997E+02  0.45594000000E+02  0.51100000000E-03 0. -1.
    9900012    2    1    2    0    0  0.12224134762E+02  0.22570481534E+02  0.18917744430E+02  0.59301683787E+02  0.49999525380E+02 0.  0.
         12    1    1    2    0    0 -0.12224134762E+02 -0.22570481534E+02 -0.18917744430E+02  0.31886316213E+02  0.00000000000E+00 0. -1.
         11    1    3    3    0    0  0.14766711282E+02 -0.72093013290E+01 -0.37845420362E+01  0.16862756193E+02  0.51100000000E-03 0. -1.
        -11    1    3    3    0    0 -0.56702917762E+01  0.25715293034E+01  0.11034111697E+02  0.12669514315E+02  0.51100000000E-03 0.  1.
        -12    1    3    3    0    0  0.31277152560E+01  0.27208253560E+02  0.11668174769E+02  0.29769413278E+02  0.00000000000E+00 0.  1.
</event>
<event>
 7    1  0.6593656E-013  0.5930190E+02  0.7816164E-02  0.1266605E+00
        -11   -1    0    0    0    0  0.00000000000E+00  0.00000000000E+00  0.45593999997E+02  0.45594000000E+02  0.51100000000E-03 0.  1.
         11   -1    0    0    0    0 -0.00000000000E+00 -0.00000000000E+00 -0.45593999997E+02  0.45594000000E+02  0.51100000000E-03 0. -1.
    9900012    2    1    2    0    0 -0.30774841360E+02  0.82289798590E+01 -0.13843383348E+01  0.59301900162E+02  0.49999919999E+02 0.  0.
         12    1    1    2    0    0  0.30774841360E+02 -0.82289798590E+01  0.13843383348E+01  0.31886099838E+02  0.00000000000E+00 0. -1.
         11    1    3    3    0    0  0.32420022546E+01  0.14633954119E+01  0.12603880349E+02  0.13096179017E+02  0.51100000000E-03 0. -1.
        -11    1    3    3    0    0 -0.17352360965E+02  0.13605175315E+02  0.19730607496E+01  0.22138161518E+02  0.51100000000E-03 0.  1.
         12    1    3    3    0    0 -0.16664482650E+02 -0.68395908681E+01 -0.15961279433E+02  0.24067559627E+02  0.00000000000E+00 0. -1.
</event>
<event>
 7    1  0.6593656E-013  0.5930194E+02  0.7816164E-02  0.1266605E+00
        -11   -1    0    0    0    0  0.00000000000E+00  0.00000000000E+00  0.45593999997E+02  0.45594000000E+02  0.51100000000E-03 0.  1.
         11   -1    0    0    0    0 -0.00000000000E+00 -0.00000000000E+00 -0.45593999997E+02  0.45594000000E+02  0.51100000000E-03 0. -1.
    9900012    2    1    2    0    0  0.11613146963E+02  0.34956588241E+01  0.29489595178E+02  0.59301936637E+02  0.49999986522E+02 0.  0.
         12    1    1    2    0    0 -0.11613146963E+02 -0.34956588241E+01 -0.29489595178E+02  0.31886063363E+02  0.00000000000E+00 0. -1.
         11    1    3    3    0    0  0.21881994648E+02 -0.80462122906E+01  0.10129846602E+02  0.25420012086E+02  0.51100000000E-03 0. -1.
        -11    1    3    3    0    0  0.63309940226E+01  0.36920940677E+01  0.12079710735E+02  0.14129134992E+02  0.51100000000E-03 0.  1.
         12    1    3    3    0    0 -0.16599841708E+02  0.78497770469E+01  0.72800378416E+01  0.19752789560E+02  0.00000000000E+00 0. -1.
</event>
<event>
 7    1  0.6593656E-013  0.5930196E+02  0.7816164E-02  0.1266605E+00
        -11   -1    0    0    0    0  0.00000000000E+00  0.00000000000E+00  0.45593999997E+02  0.45594000000E+02  0.51100000000E-03 0.  1.
         11   -1    0    0    0    0 -0.00000000000E+00 -0.00000000000E+00 -0.45593999997E+02  0.45594000000E+02  0.51100000000E-03 0. -1.
    9900012    2    1    2    0    0  0.22750309611E+02  0.22177027415E+02  0.27059391125E+01  0.59301964831E+02  0.50000037939E+02 0.  0.
         12    1    1    2    0    0 -0.22750309611E+02 -0.22177027415E+02 -0.27059391125E+01  0.31886035169E+02  0.00000000000E+00 0. -1.
         11    1    3    3    0    0  0.19076577881E+01 -0.87359272992E+00 -0.52387765767E+01  0.56433237348E+01  0.51100000000E-03 0. -1.
        -11    1    3    3    0    0  0.15391815148E+02  0.35876035107E+02  0.44482031506E+01  0.39291021622E+02  0.51100000000E-03 0.  1.
         12    1    3    3    0    0  0.54508366752E+01 -0.12825414962E+02  0.34965125386E+01  0.14367619474E+02  0.00000000000E+00 0. -1.
</event>
<event>
 7    1  0.6593656E-013  0.5930188E+02  0.7816164E-02  0.1266605E+00
        -11   -1    0    0    0    0  0.00000000000E+00  0.00000000000E+00  0.45593999997E+02  0.45594000000E+02  0.51100000000E-03 0.  1.
         11   -1    0    0    0    0 -0.00000000000E+00 -0.00000000000E+00 -0.45593999997E+02  0.45594000000E+02  0.51100000000E-03 0. -1.
    9900012    2    1    2    0    0 -0.17401290542E+02  0.16458635982E+02  0.21048353297E+02  0.59301877824E+02  0.49999879260E+02 0.  0.
         12    1    1    2    0    0  0.17401290542E+02 -0.16458635982E+02 -0.21048353297E+02  0.31886122176E+02  0.00000000000E+00 0. -1.
         11    1    3    3    0    0 -0.48272051719E+01  0.17452753991E+02  0.21990877560E+02  0.28486825512E+02  0.51100000000E-03 0. -1.
        -11    1    3    3    0    0 -0.14390203863E+02  0.40764045053E+01  0.10428364567E+02  0.18233097068E+02  0.51100000000E-03 0.  1.
        -12    1    3    3    0    0  0.18161184925E+01 -0.50705225141E+01 -0.11370888831E+02  0.12581955243E+02  0.00000000000E+00 0.  1.
</event>
<event>
 7    1  0.6593656E-013  0.5930195E+02  0.7816164E-02  0.1266605E+00
        -11   -1    0    0    0    0  0.00000000000E+00  0.00000000000E+00  0.45593999997E+02  0.45594000000E+02  0.51100000000E-03 0. -1.
         11   -1    0    0    0    0 -0.00000000000E+00 -0.00000000000E+00 -0.45593999997E+02  0.45594000000E+02  0.51100000000E-03 0.  1.
    9900012    2    1    2    0    0  0.45736551416E+01 -0.14221693439E+02 -0.28169939849E+02  0.59301946674E+02  0.50000004826E+02 0.  0.
         12    1    1    2    0    0 -0.45736551416E+01  0.14221693439E+02  0.28169939849E+02  0.31886053326E+02  0.00000000000E+00 0. -1.
         11    1    3    3    0    0  0.13597632641E+02  0.19356457198E+01 -0.32996651650E+02  0.35741031857E+02  0.51100000000E-03 0.  1.
        -11    1    3    3    0    0  0.10966583056E+01  0.50843753641E+00  0.38534038645E+01  0.40385504543E+01  0.51100000000E-03 0. -1.
        -12    1    3    3    0    0 -0.10120635806E+02 -0.16665776695E+02  0.97330793673E+00  0.19522364363E+02  0.00000000000E+00 0.  1.
</event>
<event>
 7    1  0.6593656E-013  0.5930193E+02  0.7816164E-02  0.1266605E+00
        -11   -1    0    0    0    0  0.00000000000E+00  0.00000000000E+00  0.45593999997E+02  0.45594000000E+02  0.51100000000E-03 0.  1.
         11   -1    0    0    0    0 -0.00000000000E+00 -0.00000000000E+00 -0.45593999997E+02  0.45594000000E+02  0.51100000000E-03 0. -1.
    9900012    2    1    2    0    0  0.84873016267E+01  0.30723285676E+02 -0.87581449457E+00  0.59301927450E+02  0.49999969766E+02 0.  0.
         12    1    1    2    0    0 -0.84873016267E+01 -0.30723285676E+02  0.87581449457E+00  0.31886072550E+02  0.00000000000E+00 0. -1.
         11    1    3    3    0    0  0.93474131601E+01  0.58640560670E+01  0.12016314163E+02  0.16314199112E+02  0.51100000000E-03 0.  1.
        -11    1    3    3    0    0 -0.20466063709E+01  0.16859086708E+02  0.93037201470E+01  0.19364312822E+02  0.51100000000E-03 0. -1.
         12    1    3    3    0    0  0.11864948376E+01  0.80001429015E+01 -0.22195848805E+02  0.23623415515E+02  0.00000000000E+00 0. -1.
</event>
<event>
 7    1  0.6593656E-013  0.5930173E+02  0.7816164E-02  0.1266606E+00
        -11   -1    0    0    0    0  0.00000000000E+00  0.00000000000E+00  0.45593999997E+02  0.45594000000E+02  0.51100000000E-03 0. -1.
         11   -1    0    0    0    0 -0.00000000000E+00 -0.00000000000E+00 -0.45593999997E+02  0.45594000000E+02  0.51100000000E-03 0.  1.
    9900012    2    1    2    0    0  0.18115431602E+02 -0.11043796909E+01 -0.26217278293E+02  0.59301730264E+02  0.49999610144E+02 0.  0.
         12    1    1    2    0    0 -0.18115431602E+02  0.11043796909E+01  0.26217278293E+02  0.31886269736E+02  0.00000000000E+00 0. -1.
         11    1    3    3    0    0 -0.30010093978E+01  0.11588088199E+02 -0.86089813052E+00  0.12001291238E+02  0.51100000000E-03 0. -1.
        -11    1    3    3    0    0  0.91615682331E+01  0.10388854248E+02 -0.10298014733E+02  0.17260119721E+02  0.51100000000E-03 0.  1.
        -12    1    3    3    0    0  0.11954872767E+02 -0.23081322139E+02 -0.15058365430E+02  0.30040319305E+02  0.00000000000E+00 0.  1.
</event>
<event>
 7    1  0.6593656E-013  0.5930193E+02  0.7816164E-02  0.1266605E+00
        -11   -1    0    0    0    0  0.00000000000E+00  0.00000000000E+00  0.45593999997E+02  0.45594000000E+02  0.51100000000E-03 0. -1.
         11   -1    0    0    0    0 -0.00000000000E+00 -0.00000000000E+00 -0.45593999997E+02  0.45594000000E+02  0.51100000000E-03 0.  1.
    9900012    2    1    2    0    0  0.13364938849E+02 -0.27622950183E+02  0.86644482203E+01  0.59301927332E+02  0.49999969550E+02 0.  0.
         12    1    1    2    0    0 -0.13364938849E+02  0.27622950183E+02 -0.86644482203E+01  0.31886072668E+02  0.00000000000E+00 0. -1.
         11    1    3    3    0    0  0.77364150272E+01 -0.12330677087E+02  0.88022663791E+01  0.17011102509E+02  0.51100000000E-03 0. -1.
        -11    1    3    3    0    0  0.68189867163E+01 -0.23069179549E+02  0.12723891165E+02  0.27213655241E+02  0.51100000000E-03 0.  1.
        -12    1    3    3    0    0 -0.11904628944E+01  0.77769064532E+01 -0.12861709324E+02  0.15077169582E+02  0.00000000000E+00 0.  1.
</event>
<event>
 7    1  0.6593656E-013  0.5930196E+02  0.7816164E-02  0.1266605E+00
        -11   -1    0    0    0    0  0.00000000000E+00  0.00000000000E+00  0.45593999997E+02  0.45594000000E+02  0.51100000000E-03 0. -1.
         11   -1    0    0    0    0 -0.00000000000E+00 -0.00000000000E+00 -0.45593999997E+02  0.45594000000E+02  0.51100000000E-03 0.  1.
    9900012    2    1    2    0    0 -0.97169115923E+00 -0.88603836345E+01 -0.30614847217E+02  0.59301961488E+02  0.50000031843E+02 0.  0.
         12    1    1    2    0    0  0.97169115923E+00  0.88603836345E+01  0.30614847217E+02  0.31886038512E+02  0.00000000000E+00 0. -1.
         11    1    3    3    0    0  0.48377039353E+01 -0.89050089622E+00 -0.15225695988E+02  0.16000568421E+02  0.51100000000E-03 0. -1.
        -11    1    3    3    0    0  0.72037925888E+01 -0.31051249022E+01 -0.25135282263E+02  0.26330948388E+02  0.51100000000E-03 0.  1.
         12    1    3    3    0    0 -0.13013187683E+02 -0.48647578360E+01  0.97461310333E+01  0.16970444679E+02  0.00000000000E+00 0. -1.
</event>
<event>
 7    1  0.6593656E-013  0.5930201E+02  0.7816164E-02  0.1266605E+00
        -11   -1    0    0    0    0  0.00000000000E+00  0.00000000000E+00  0.45593999997E+02  0.45594000000E+02  0.51100000000E-03 0.  1.
         11   -1    0    0    0    0 -0.00000000000E+00 -0.00000000000E+00 -0.45593999997E+02  0.45594000000E+02  0.51100000000E-03 0. -1.
    9900012    2    1    2    0    0  0.23375043312E+02  0.21470236522E+02 -0.30582551956E+01  0.59302005723E+02  0.50000112518E+02 0.  0.
         12    1    1    2    0    0 -0.23375043312E+02 -0.21470236522E+02  0.30582551956E+01  0.31885994277E+02  0.00000000000E+00 0. -1.
         11    1    3    3    0    0 -0.10635532488E+02 -0.59827624428E+01  0.44902490401E+00  0.12211045057E+02  0.51100000000E-03 0. -1.
        -11    1    3    3    0    0  0.73224647182E+01  0.16346589346E+02  0.43189140069E+00  0.17916919468E+02  0.51100000000E-03 0.  1.
        -12    1    3    3    0    0  0.26688111082E+02  0.11106409620E+02 -0.39391715003E+01  0.29174041199E+02  0.00000000000E+00 0.  1.
</event>
<event>
 7    1  0.6593656E-013  0.5930181E+02  0.7816164E-02  0.1266605E+00
        -11   -1    0    0    0    0  0.00000000000E+00  0.00000000000E+00  0.45593999997E+02  0.45594000000E+02  0.51100000000E-03 0. -1.
         11   -1    0    0    0    0 -0.00000000000E+00 -0.00000000000E+00 -0.45593999997E+02  0.45594000000E+02  0.51100000000E-03 0.  1.
    9900012    2    1    2    0    0 -0.25758940735E+02  0.57085911505E+01 -0.17905806342E+02  0.59301812686E+02  0.49999760463E+02 0.  0.
         12    1    1    2    0    0  0.25758940735E+02 -0.57085911505E+01  0.17905806342E+02  0.31886187314E+02  0.00000000000E+00 0. -1.
         11    1    3    3    0    0  0.17807502744E+01  0.16707504648E+02  0.36784884994E+01  0.17200088983E+02  0.51100000000E-03 0. -1.
        -11    1    3    3    0    0 -0.19035937877E+02  0.11355289661E+01 -0.47055658997E+01  0.19641759279E+02  0.51100000000E-03 0.  1.
        -12    1    3    3    0    0 -0.85037531325E+01 -0.12134442464E+02 -0.16878728941E+02  0.22459964424E+02  0.00000000000E+00 0.  1.
</event>
<event>
 7    1  0.6593656E-013  0.5930194E+02  0.7816164E-02  0.1266605E+00
        -11   -1    0    0    0    0  0.00000000000E+00  0.00000000000E+00  0.45593999997E+02  0.45594000000E+02  0.51100000000E-03 0. -1.
         11   -1    0    0    0    0 -0.00000000000E+00 -0.00000000000E+00 -0.45593999997E+02  0.45594000000E+02  0.51100000000E-03 0.  1.
    9900012    2    1    2    0    0 -0.26458937648E+02 -0.12521256821E+02  0.12643727812E+02  0.59301935539E+02  0.49999984518E+02 0.  0.
         12    1    1    2    0    0  0.26458937648E+02  0.12521256821E+02 -0.12643727812E+02  0.31886064461E+02  0.00000000000E+00 0. -1.
         11    1    3    3    0    0 -0.93426874731E+01 -0.12066358764E+02  0.19698109340E+02  0.24917831665E+02  0.51100000000E-03 0. -1.
        -11    1    3    3    0    0 -0.71112858783E+00 -0.11117530467E+02 -0.95325404665E+01  0.14662009261E+02  0.51100000000E-03 0.  1.
         12    1    3    3    0    0 -0.16405121587E+02  0.10662632410E+02  0.24781589383E+01  0.19722094613E+02  0.00000000000E+00 0. -1.
</event>
<event>
 7    1  0.6593656E-013  0.5930196E+02  0.7816164E-02  0.1266605E+00
        -11   -1    0    0    0    0  0.00000000000E+00  0.00000000000E+00  0.45593999997E+02  0.45594000000E+02  0.51100000000E-03 0.  1.
         11   -1    0    0    0    0 -0.00000000000E+00 -0.00000000000E+00 -0.45593999997E+02  0.45594000000E+02  0.51100000000E-03 0. -1.
    9900012    2    1    2    0    0  0.15906904165E+02  0.56709766384E+01  0.27046812459E+02  0.59301958534E+02  0.50000026456E+02 0.  0.
         12    1    1    2    0    0 -0.15906904165E+02 -0.56709766384E+01 -0.27046812459E+02  0.31886041466E+02  0.00000000000E+00 0. -1.
         11    1    3    3    0    0  0.13435354230E+02 -0.40292460101E+01  0.25722161166E+02  0.29298005769E+02  0.51100000000E-03 0. -1.
        -11    1    3    3    0    0  0.17006550374E+01 -0.65109614512E+01  0.96492143646E+01  0.11764020771E+02  0.51100000000E-03 0.  1.
         12    1    3    3    0    0  0.77089489726E+00  0.16211184100E+02 -0.83245630712E+01  0.18239931995E+02  0.00000000000E+00 0. -1.
</event>
<event>
 7    1  0.6593656E-013  0.5930194E+02  0.7816164E-02  0.1266605E+00
        -11   -1    0    0    0    0  0.00000000000E+00  0.00000000000E+00  0.45593999997E+02  0.45594000000E+02  0.51100000000E-03 0. -1.
         11   -1    0    0    0    0 -0.00000000000E+00 -0.00000000000E+00 -0.45593999997E+02  0.45594000000E+02  0.51100000000E-03 0.  1.
    9900012    2    1    2    0    0 -0.20759386187E+02  0.52316726668E+01 -0.23630448549E+02  0.59301943292E+02  0.49999998659E+02 0.  0.
         12    1    1    2    0    0  0.20759386187E+02 -0.52316726668E+01  0.23630448549E+02  0.31886056708E+02  0.00000000000E+00 0. -1.
         11    1    3    3    0    0 -0.10915785507E+02  0.15761944948E+01  0.11736615195E+02  0.16105492816E+02  0.51100000000E-03 0. -1.
        -11    1    3    3    0    0 -0.15261405942E+02  0.53117359390E+01 -0.14972175621E+02  0.22029323482E+02  0.51100000000E-03 0.  1.
        -12    1    3    3    0    0  0.54178052624E+01 -0.16562577670E+01 -0.20394888123E+02  0.21167126995E+02  0.00000000000E+00 0.  1.
</event>
<event>
 7    1  0.6593656E-013  0.5930204E+02  0.7816164E-02  0.1266604E+00
        -11   -1    0    0    0    0  0.00000000000E+00  0.00000000000E+00  0.45593999997E+02  0.45594000000E+02  0.51100000000E-03 0.  1.
         11   -1    0    0    0    0 -0.00000000000E+00 -0.00000000000E+00 -0.45593999997E+02  0.45594000000E+02  0.51100000000E-03 0. -1.
    9900012    2    1    2    0    0 -0.23334553552E+02 -0.43477207727E+00  0.21726118071E+02  0.59302037216E+02  0.50000169953E+02 0.  0.
         12    1    1    2    0    0  0.23334553552E+02  0.43477207727E+00 -0.21726118071E+02  0.31885962784E+02  0.00000000000E+00 0. -1.
         11    1    3    3    0    0  0.74150956115E+01  0.26197815713E+01  0.90862513756E+01  0.12016940656E+02  0.51100000000E-03 0. -1.
        -11    1    3    3    0    0 -0.15795216631E+02  0.15046122129E+02  0.86620980787E+01  0.23471399679E+02  0.51100000000E-03 0.  1.
         12    1    3    3    0    0 -0.14954432533E+02 -0.18100675777E+02  0.39777686170E+01  0.23813696881E+02  0.00000000000E+00 0. -1.
</event>
<event>
 7    1  0.6593656E-013  0.5930196E+02  0.7816164E-02  0.1266605E+00
        -11   -1    0    0    0    0  0.00000000000E+00  0.00000000000E+00  0.45593999997E+02  0.45594000000E+02  0.51100000000E-03 0.  1.
         11   -1    0    0    0    0 -0.00000000000E+00 -0.00000000000E+00 -0.45593999997E+02  0.45594000000E+02  0.51100000000E-03 0. -1.
    9900012    2    1    2    0    0  0.25529830065E+02 -0.32249275669E+01  0.18829428066E+02  0.59301956936E+02  0.50000023542E+02 0.  0.
         12    1    1    2    0    0 -0.25529830065E+02  0.32249275669E+01 -0.18829428066E+02  0.31886043064E+02  0.00000000000E+00 0. -1.
         11    1    3    3    0    0  0.31558926706E+01 -0.77172351197E+01  0.11039925310E+02  0.13834570017E+02  0.51100000000E-03 0. -1.
        -11    1    3    3    0    0  0.57018955558E+01 -0.16284277594E+02  0.75354026682E+01  0.18827416268E+02  0.51100000000E-03 0.  1.
         12    1    3    3    0    0  0.16672041839E+02  0.20776585147E+02  0.25410008755E+00  0.26639970652E+02  0.00000000000E+00 0. -1.
</event>
<event>
 7    1  0.6593656E-013  0.5930195E+02  0.7816164E-02  0.1266605E+00
        -11   -1    0    0    0    0  0.00000000000E+00  0.00000000000E+00  0.45593999997E+02  0.45594000000E+02  0.51100000000E-03 0. -1.
         11   -1    0    0    0    0 -0.00000000000E+00 -0.00000000000E+00 -0.45593999997E+02  0.45594000000E+02  0.51100000000E-03 0.  1.
    9900012    2    1    2    0    0  0.11048554336E+01  0.19319589869E+02 -0.25342706225E+02  0.59301952628E+02  0.50000015684E+02 0.  0.
         12    1    1    2    0    0 -0.11048554336E+01 -0.19319589869E+02  0.25342706225E+02  0.31886047372E+02  0.00000000000E+00 0. -1.
         11    1    3    3    0    0  0.11041482298E+02 -0.10437333121E+01 -0.72401442064E+01  0.13244749864E+02  0.51100000000E-03 0. -1.
        -11    1    3    3    0    0  0.10704378373E+02  0.18702102755E+02 -0.10762977374E+02  0.24087217482E+02  0.51100000000E-03 0.  1.
        -12    1    3    3    0    0 -0.20641005237E+02  0.16612204252E+01 -0.73395846443E+01  0.21969985281E+02  0.00000000000E+00 0.  1.
</event>
<event>
 7    1  0.6593656E-013  0.5930194E+02  0.7816164E-02  0.1266605E+00
        -11   -1    0    0    0    0  0.00000000000E+00  0.00000000000E+00  0.45593999997E+02  0.45594000000E+02  0.51100000000E-03 0. -1.
         11   -1    0    0    0    0 -0.00000000000E+00 -0.00000000000E+00 -0.45593999997E+02  0.45594000000E+02  0.51100000000E-03 0.  1.
    9900012    2    1    2    0    0  0.12337238809E+02  0.29350329372E+02 -0.17525474677E+01  0.59301941632E+02  0.49999995630E+02 0.  0.
         12    1    1    2    0    0 -0.12337238809E+02 -0.29350329372E+02  0.17525474677E+01  0.31886058368E+02  0.00000000000E+00 0. -1.
         11    1    3    3    0    0  0.18639895536E+02  0.24656048437E+02 -0.32659786729E+01  0.31081072167E+02  0.51100000000E-03 0. -1.
        -11    1    3    3    0    0  0.23954508710E+01 -0.53464704140E+00 -0.11476728421E+02  0.11736239936E+02  0.51100000000E-03 0.  1.
         12    1    3    3    0    0 -0.86981075983E+01  0.52289279764E+01  0.12990159626E+02  0.16484629528E+02  0.00000000000E+00 0. -1.
</event>
<event>
 7    1  0.6593656E-013  0.5930194E+02  0.7816164E-02  0.1266605E+00
        -11   -1    0    0    0    0  0.00000000000E+00  0.00000000000E+00  0.45593999997E+02  0.45594000000E+02  0.51100000000E-03 0.  1.
         11   -1    0    0    0    0 -0.00000000000E+00 -0.00000000000E+00 -0.45593999997E+02  0.45594000000E+02  0.51100000000E-03 0. -1.
    9900012    2    1    2    0    0 -0.20591694048E+02  0.20827945105E+02  0.12605529126E+02  0.59301944653E+02  0.50000001140E+02 0.  0.
         12    1    1    2    0    0  0.20591694048E+02 -0.20827945105E+02 -0.12605529126E+02  0.31886055347E+02  0.00000000000E+00 0. -1.
         11    1    3    3    0    0 -0.16120250029E+02  0.18492707436E+02 -0.81122518856E+00  0.24545891222E+02  0.51100000000E-03 0. -1.
        -11    1    3    3    0    0  0.10228518930E+02  0.89638223402E+01 -0.27323008217E+00  0.13603211584E+02  0.51100000000E-03 0.  1.
         12    1    3    3    0    0 -0.14699962949E+02 -0.66285846712E+01  0.13689984397E+02  0.21152841848E+02  0.00000000000E+00 0. -1.
</event>
<event>
 7    1  0.6593656E-013  0.5930194E+02  0.7816164E-02  0.1266605E+00
        -11   -1    0    0    0    0  0.00000000000E+00  0.00000000000E+00  0.45593999997E+02  0.45594000000E+02  0.51100000000E-03 0.  1.
         11   -1    0    0    0    0 -0.00000000000E+00 -0.00000000000E+00 -0.45593999997E+02  0.45594000000E+02  0.51100000000E-03 0. -1.
    9900012    2    1    2    0    0 -0.69389831325E+01 -0.24929537717E+02  0.18630336111E+02  0.59301940957E+02  0.49999994400E+02 0.  0.
         12    1    1    2    0    0  0.69389831325E+01  0.24929537717E+02 -0.18630336111E+02  0.31886059043E+02  0.00000000000E+00 0. -1.
         11    1    3    3    0    0 -0.16880247623E+01 -0.15085939285E+02 -0.10299871838E+02  0.18344545561E+02  0.51100000000E-03 0. -1.
        -11    1    3    3    0    0 -0.47404895577E+01 -0.30037318129E+01 -0.42727249760E+01  0.70534264745E+01  0.51100000000E-03 0.  1.
        -12    1    3    3    0    0 -0.51046881256E+00 -0.68398666191E+01  0.33202932925E+02  0.33903968921E+02  0.00000000000E+00 0.  1.
</event>
<event>
 7    1  0.6593656E-013  0.5930198E+02  0.7816164E-02  0.1266605E+00
        -11   -1    0    0    0    0  0.00000000000E+00  0.00000000000E+00  0.45593999997E+02  0.45594000000E+02  0.51100000000E-03 0. -1.
         11   -1    0    0    0    0 -0.00000000000E+00 -0.00000000000E+00 -0.45593999997E+02  0.45594000000E+02  0.51100000000E-03 0.  1.
    9900012    2    1    2    0    0 -0.26044515262E+02 -0.16628392668E+02 -0.78675396659E+01  0.59301978010E+02  0.50000061975E+02 0.  0.
         12    1    1    2    0    0  0.26044515262E+02  0.16628392668E+02  0.78675396659E+01  0.31886021990E+02  0.00000000000E+00 0. -1.
         11    1    3    3    0    0 -0.10654678352E+02 -0.14787711427E+01  0.13269835314E+02  0.17082080213E+02  0.51100000000E-03 0. -1.
        -11    1    3    3    0    0 -0.21455799136E+02 -0.11008790019E+02 -0.51969865877E+01  0.24668876021E+02  0.51100000000E-03 0.  1.
         12    1    3    3    0    0  0.60659622259E+01 -0.41408315063E+01 -0.15940388393E+02  0.17551021776E+02  0.00000000000E+00 0. -1.
</event>
<event>
 7    1  0.6593656E-013  0.5930196E+02  0.7816164E-02  0.1266605E+00
        -11   -1    0    0    0    0  0.00000000000E+00  0.00000000000E+00  0.45593999997E+02  0.45594000000E+02  0.51100000000E-03 0.  1.
         11   -1    0    0    0    0 -0.00000000000E+00 -0.00000000000E+00 -0.45593999997E+02  0.45594000000E+02  0.51100000000E-03 0. -1.
    9900012    2    1    2    0    0 -0.13287606623E+02  0.10287706394E+02  0.27098384317E+02  0.59301955635E+02  0.50000021169E+02 0.  0.
         12    1    1    2    0    0  0.13287606623E+02 -0.10287706394E+02 -0.27098384317E+02  0.31886044365E+02  0.00000000000E+00 0. -1.
         11    1    3    3    0    0 -0.19427379149E+01 -0.32366804094E-01  0.24078098626E+02  0.24156367938E+02  0.51100000000E-03 0. -1.
        -11    1    3    3    0    0 -0.14521868528E+02 -0.32204199530E+01  0.11548021614E+02  0.18831159648E+02  0.51100000000E-03 0.  1.
         12    1    3    3    0    0  0.31769998197E+01  0.13540493151E+02 -0.85277359228E+01  0.16314428050E+02  0.00000000000E+00 0. -1.
</event>
<event>
 7    1  0.6593656E-013  0.5930196E+02  0.7816164E-02  0.1266605E+00
        -11   -1    0    0    0    0  0.00000000000E+00  0.00000000000E+00  0.45593999997E+02  0.45594000000E+02  0.51100000000E-03 0. -1.
         11   -1    0    0    0    0 -0.00000000000E+00 -0.00000000000E+00 -0.45593999997E+02  0.45594000000E+02  0.51100000000E-03 0.  1.
    9900012    2    1    2    0    0 -0.11031404093E+02  0.14766724420E+02 -0.26018681001E+02  0.59301956228E+02  0.50000022251E+02 0.  0.
         12    1    1    2    0    0  0.11031404093E+02 -0.14766724420E+02  0.26018681001E+02  0.31886043772E+02  0.00000000000E+00 0. -1.
         11    1    3    3    0    0  0.11193905630E+02  0.32575406229E+01 -0.16010712526E+02  0.19805504538E+02  0.51100000000E-03 0. -1.
        -11    1    3    3    0    0 -0.46738296100E+01  0.13117367760E+02 -0.15689957875E+02  0.20978198173E+02  0.51100000000E-03 0.  1.
         12    1    3    3    0    0 -0.17551480113E+02 -0.16081839625E+01  0.56819894000E+01  0.18518253518E+02  0.00000000000E+00 0. -1.
</event>
<event>
 7    1  0.6593656E-013  0.5930194E+02  0.7816164E-02  0.1266605E+00
        -11   -1    0    0    0    0  0.00000000000E+00  0.00000000000E+00  0.45593999997E+02  0.45594000000E+02  0.51100000000E-03 0. -1.
         11   -1    0    0    0    0 -0.00000000000E+00 -0.00000000000E+00 -0.45593999997E+02  0.45594000000E+02  0.51100000000E-03 0.  1.
    9900012    2    1    2    0    0 -0.16354246019E+02 -0.24316963571E+02 -0.12567608465E+02  0.59301939367E+02  0.49999991500E+02 0.  0.
         12    1    1    2    0    0  0.16354246019E+02  0.24316963571E+02  0.12567608465E+02  0.31886060633E+02  0.00000000000E+00 0. -1.
         11    1    3    3    0    0 -0.73923153812E+01  0.63520252191E+01  0.34333302481E-01  0.97465753019E+01  0.51100000000E-03 0. -1.
        -11    1    3    3    0    0  0.12355703422E+02 -0.88208782022E+01 -0.11438381577E+02  0.19008100186E+02  0.51100000000E-03 0.  1.
         12    1    3    3    0    0 -0.21317634060E+02 -0.21848110588E+02 -0.11635601904E+01  0.30547263879E+02  0.00000000000E+00 0. -1.
</event>
<event>
 7    1  0.6593656E-013  0.5930196E+02  0.7816164E-02  0.1266605E+00
        -11   -1    0    0    0    0  0.00000000000E+00  0.00000000000E+00  0.45593999997E+02  0.45594000000E+02  0.51100000000E-03 0.  1.
         11   -1    0    0    0    0 -0.00000000000E+00 -0.00000000000E+00 -0.45593999997E+02  0.45594000000E+02  0.51100000000E-03 0. -1.
    9900012    2    1    2    0    0  0.16963934867E+02  0.20651596381E+02  0.17391266677E+02  0.59301957977E+02  0.50000025440E+02 0.  0.
         12    1    1    2    0    0 -0.16963934867E+02 -0.20651596381E+02 -0.17391266677E+02  0.31886042023E+02  0.00000000000E+00 0. -1.
         11    1    3    3    0    0  0.10683996743E+02 -0.62162827321E+01  0.25989242164E+02  0.28778996958E+02  0.51100000000E-03 0. -1.
        -11    1    3    3    0    0 -0.19382290109E+01  0.46437448973E+01  0.67715056240E+00  0.50773646230E+01  0.51100000000E-03 0.  1.
        -12    1    3    3    0    0  0.82181671347E+01  0.22224134216E+02 -0.92751260491E+01  0.25445596395E+02  0.00000000000E+00 0.  1.
</event>
<event>
 7    1  0.6593656E-013  0.5930195E+02  0.7816164E-02  0.1266605E+00
        -11   -1    0    0    0    0  0.00000000000E+00  0.00000000000E+00  0.45593999997E+02  0.45594000000E+02  0.51100000000E-03 0. -1.
         11   -1    0    0    0    0 -0.00000000000E+00 -0.00000000000E+00 -0.45593999997E+02  0.45594000000E+02  0.51100000000E-03 0.  1.
    9900012    2    1    2    0    0  0.18858171027E+02  0.43246874195E+01 -0.25345343158E+02  0.59301953591E+02  0.50000017442E+02 0.  0.
         12    1    1    2    0    0 -0.18858171027E+02 -0.43246874195E+01  0.25345343158E+02  0.31886046409E+02  0.00000000000E+00 0. -1.
         11    1    3    3    0    0 -0.61062760520E+01 -0.26844117905E+01  0.10083243066E+02  0.12089849663E+02  0.51100000000E-03 0. -1.
        -11    1    3    3    0    0 -0.26763871257E+01  0.13210546432E+01 -0.32757174223E+01  0.44315413017E+01  0.51100000000E-03 0.  1.
        -12    1    3    3    0    0  0.27640834205E+02  0.56880445669E+01 -0.32152868801E+02  0.42780562627E+02  0.00000000000E+00 0.  1.
</event>
<event>
 7    1  0.6593656E-013  0.5930195E+02  0.7816164E-02  0.1266605E+00
        -11   -1    0    0    0    0  0.00000000000E+00  0.00000000000E+00  0.45593999997E+02  0.45594000000E+02  0.51100000000E-03 0. -1.
         11   -1    0    0    0    0 -0.00000000000E+00 -0.00000000000E+00 -0.45593999997E+02  0.45594000000E+02  0.51100000000E-03 0.  1.
    9900012    2    1    2    0    0  0.11026520904E+02 -0.23235803777E+02 -0.18847643481E+02  0.59301946541E+02  0.50000004584E+02 0.  0.
         12    1    1    2    0    0 -0.11026520904E+02  0.23235803777E+02  0.18847643481E+02  0.31886053459E+02  0.00000000000E+00 0. -1.
         11    1    3    3    0    0  0.22147475400E+01  0.29985042212E+01  0.27816205938E+01  0.46511877643E+01  0.51100000000E-03 0. -1.
        -11    1    3    3    0    0  0.85542413429E+00 -0.16943088752E+02  0.10718748408E+02  0.20067176548E+02  0.51100000000E-03 0.  1.
        -12    1    3    3    0    0  0.79563492302E+01 -0.92912192456E+01 -0.32348012483E+02  0.34583582229E+02  0.00000000000E+00 0.  1.
</event>
<event>
 7    1  0.6593656E-013  0.5930170E+02  0.7816164E-02  0.1266606E+00
        -11   -1    0    0    0    0  0.00000000000E+00  0.00000000000E+00  0.45593999997E+02  0.45594000000E+02  0.51100000000E-03 0.  1.
         11   -1    0    0    0    0 -0.00000000000E+00 -0.00000000000E+00 -0.45593999997E+02  0.45594000000E+02  0.51100000000E-03 0. -1.
    9900012    2    1    2    0    0 -0.61618374856E+01 -0.15988160294E+02  0.26891385216E+02  0.59301700283E+02  0.49999555466E+02 0.  0.
         12    1    1    2    0    0  0.61618374856E+01  0.15988160294E+02 -0.26891385216E+02  0.31886299717E+02  0.00000000000E+00 0. -1.
         11    1    3    3    0    0  0.70626952945E+01 -0.20791095375E+02  0.85783661631E+01  0.23574131543E+02  0.51100000000E-03 0. -1.
        -11    1    3    3    0    0  0.81042572118E+00  0.79551030418E+01  0.19714920577E+02  0.21274833675E+02  0.51100000000E-03 0.  1.
        -12    1    3    3    0    0 -0.14034958501E+02 -0.31521679603E+01 -0.14019015238E+01  0.14452735065E+02  0.00000000000E+00 0.  1.
</event>
<event>
 7    1  0.6593656E-013  0.5930193E+02  0.7816164E-02  0.1266605E+00
        -11   -1    0    0    0    0  0.00000000000E+00  0.00000000000E+00  0.45593999997E+02  0.45594000000E+02  0.51100000000E-03 0.  1.
         11   -1    0    0    0    0 -0.00000000000E+00 -0.00000000000E+00 -0.45593999997E+02  0.45594000000E+02  0.51100000000E-03 0. -1.
    9900012    2    1    2    0    0  0.28420620263E+02 -0.27552120358E+01  0.14191488835E+02  0.59301934002E+02  0.49999981715E+02 0.  0.
         12    1    1    2    0    0 -0.28420620263E+02  0.27552120358E+01 -0.14191488835E+02  0.31886065998E+02  0.00000000000E+00 0. -1.
         11    1    3    3    0    0  0.16223947166E+02 -0.13271783294E+02  0.17174264688E+02  0.27098192952E+02  0.51100000000E-03 0. -1.
        -11    1    3    3    0    0 -0.42975985450E+01 -0.58682169209E+01  0.34940314831E+01  0.80692985662E+01  0.51100000000E-03 0.  1.
         12    1    3    3    0    0  0.16494271643E+02  0.16384788179E+02 -0.64768073366E+01  0.24134442483E+02  0.00000000000E+00 0. -1.
</event>
<event>
 7    1  0.6593656E-013  0.5930193E+02  0.7816164E-02  0.1266605E+00
        -11   -1    0    0    0    0  0.00000000000E+00  0.00000000000E+00  0.45593999997E+02  0.45594000000E+02  0.51100000000E-03 0. -1.
         11   -1    0    0    0    0 -0.00000000000E+00 -0.00000000000E+00 -0.45593999997E+02  0.45594000000E+02  0.51100000000E-03 0.  1.
    9900012    2    1    2    0    0 -0.45869289430E+00  0.14315353308E+02 -0.28488268796E+02  0.59301934101E+02  0.49999981896E+02 0.  0.
         12    1    1    2    0    0  0.45869289430E+00 -0.14315353308E+02  0.28488268796E+02  0.31886065899E+02  0.00000000000E+00 0. -1.
         11    1    3    3    0    0 -0.50736576276E+01 -0.44394259243E+01  0.74553781995E+01  0.10051525686E+02  0.51100000000E-03 0. -1.
        -11    1    3    3    0    0  0.12147969767E+02  0.17800333533E+02 -0.13197948120E+02  0.25270751437E+02  0.51100000000E-03 0.  1.
        -12    1    3    3    0    0 -0.75330050337E+01  0.95444569897E+00 -0.22745698876E+02  0.23979656978E+02  0.00000000000E+00 0.  1.
</event>
<event>
 7    1  0.6593656E-013  0.5930194E+02  0.7816164E-02  0.1266605E+00
        -11   -1    0    0    0    0  0.00000000000E+00  0.00000000000E+00  0.45593999997E+02  0.45594000000E+02  0.51100000000E-03 0. -1.
         11   -1    0    0    0    0 -0.00000000000E+00 -0.00000000000E+00 -0.45593999997E+02  0.45594000000E+02  0.51100000000E-03 0.  1.
    9900012    2    1    2    0    0 -0.16618126057E+02 -0.60248331449E+01 -0.26537896316E+02  0.59301942405E+02  0.49999997041E+02 0.  0.
         12    1    1    2    0    0  0.16618126057E+02  0.60248331449E+01  0.26537896316E+02  0.31886057595E+02  0.00000000000E+00 0. -1.
         11    1    3    3    0    0 -0.27775431873E+01 -0.85090192552E+00 -0.79079065993E+01  0.84245930043E+01  0.51100000000E-03 0. -1.
        -11    1    3    3    0    0  0.48931807769E-01  0.16213379586E+02  0.40915671144E+01  0.16721752110E+02  0.51100000000E-03 0.  1.
         12    1    3    3    0    0 -0.13889514677E+02 -0.21387310805E+02 -0.22721556831E+02  0.34155597291E+02  0.00000000000E+00 0. -1.
</event>
<event>
 7    1  0.6593656E-013  0.5930215E+02  0.7816164E-02  0.1266604E+00
        -11   -1    0    0    0    0  0.00000000000E+00  0.00000000000E+00  0.45593999997E+02  0.45594000000E+02  0.51100000000E-03 0. -1.
         11   -1    0    0    0    0 -0.00000000000E+00 -0.00000000000E+00 -0.45593999997E+02  0.45594000000E+02  0.51100000000E-03 0.  1.
    9900012    2    1    2    0    0 -0.23969001754E+02  0.18361871306E+02 -0.10248702852E+02  0.59302152464E+02  0.50000380136E+02 0.  0.
         12    1    1    2    0    0  0.23969001754E+02 -0.18361871306E+02  0.10248702852E+02  0.31885847536E+02  0.00000000000E+00 0. -1.
         11    1    3    3    0    0 -0.42616397880E+01  0.13805892752E+02 -0.42740558207E+01  0.15067574516E+02  0.51100000000E-03 0. -1.
        -11    1    3    3    0    0 -0.11726034717E+02  0.64992178841E+01 -0.22265288016E+02  0.25990051442E+02  0.51100000000E-03 0.  1.
         12    1    3    3    0    0 -0.79813272494E+01 -0.19432393303E+01  0.16290640984E+02  0.18244526506E+02  0.00000000000E+00 0. -1.
</event>
<event>
 7    1  0.6593656E-013  0.5930206E+02  0.7816164E-02  0.1266604E+00
        -11   -1    0    0    0    0  0.00000000000E+00  0.00000000000E+00  0.45593999997E+02  0.45594000000E+02  0.51100000000E-03 0.  1.
         11   -1    0    0    0    0 -0.00000000000E+00 -0.00000000000E+00 -0.45593999997E+02  0.45594000000E+02  0.51100000000E-03 0. -1.
    9900012    2    1    2    0    0 -0.10415330372E+02 -0.10399703387E+02  0.28285686930E+02  0.59302062310E+02  0.50000215718E+02 0.  0.
         12    1    1    2    0    0  0.10415330372E+02  0.10399703387E+02 -0.28285686930E+02  0.31885937690E+02  0.00000000000E+00 0. -1.
         11    1    3    3    0    0  0.19600719588E+01  0.27680597280E+01 -0.42020717597E+01  0.54001337091E+01  0.51100000000E-03 0. -1.
        -11    1    3    3    0    0 -0.80751556975E+00 -0.21323247652E+02  0.34733544856E+01  0.21619370099E+02  0.51100000000E-03 0.  1.
        -12    1    3    3    0    0 -0.11567886761E+02  0.81554845367E+01  0.29014404204E+02  0.32282558502E+02  0.00000000000E+00 0.  1.
</event>
<event>
 7    1  0.6593656E-013  0.5930196E+02  0.7816164E-02  0.1266605E+00
        -11   -1    0    0    0    0  0.00000000000E+00  0.00000000000E+00  0.45593999997E+02  0.45594000000E+02  0.51100000000E-03 0.  1.
         11   -1    0    0    0    0 -0.00000000000E+00 -0.00000000000E+00 -0.45593999997E+02  0.45594000000E+02  0.51100000000E-03 0. -1.
    9900012    2    1    2    0    0 -0.13909394335E+01  0.23608917895E+02  0.21387006271E+02  0.59301956754E+02  0.50000023209E+02 0.  0.
         12    1    1    2    0    0  0.13909394335E+01 -0.23608917895E+02 -0.21387006271E+02  0.31886043246E+02  0.00000000000E+00 0. -1.
         11    1    3    3    0    0  0.14425205331E+02 -0.67043437078E+01  0.37223242484E+01  0.16336782775E+02  0.51100000000E-03 0. -1.
        -11    1    3    3    0    0 -0.17745310043E+01  0.17307071257E+02  0.73642185917E+00  0.17413385461E+02  0.51100000000E-03 0.  1.
        -12    1    3    3    0    0 -0.14041613760E+02  0.13006190345E+02  0.16928260163E+02  0.25551788517E+02  0.00000000000E+00 0.  1.
</event>
<event>
 7    1  0.6593656E-013  0.5930195E+02  0.7816164E-02  0.1266605E+00
        -11   -1    0    0    0    0  0.00000000000E+00  0.00000000000E+00  0.45593999997E+02  0.45594000000E+02  0.51100000000E-03 0. -1.
         11   -1    0    0    0    0 -0.00000000000E+00 -0.00000000000E+00 -0.45593999997E+02  0.45594000000E+02  0.51100000000E-03 0.  1.
    9900012    2    1    2    0    0 -0.47435235496E+00  0.20148096073E+02 -0.24709299478E+02  0.59301948720E+02  0.50000008557E+02 0.  0.
         12    1    1    2    0    0  0.47435235496E+00 -0.20148096073E+02  0.24709299478E+02  0.31886051280E+02  0.00000000000E+00 0. -1.
         11    1    3    3    0    0 -0.12334300233E+02  0.25649640911E+02 -0.21002712707E+02  0.35371640935E+02  0.51100000000E-03 0. -1.
        -11    1    3    3    0    0 -0.54510415493E+01 -0.18765137466E+01 -0.22337447237E+01  0.61826186656E+01  0.51100000000E-03 0.  1.
         12    1    3    3    0    0  0.17310989428E+02 -0.36250310912E+01 -0.14728420481E+01  0.17747689119E+02  0.00000000000E+00 0. -1.
</event>
<event>
 7    1  0.6593656E-013  0.5930203E+02  0.7816164E-02  0.1266604E+00
        -11   -1    0    0    0    0  0.00000000000E+00  0.00000000000E+00  0.45593999997E+02  0.45594000000E+02  0.51100000000E-03 0.  1.
         11   -1    0    0    0    0 -0.00000000000E+00 -0.00000000000E+00 -0.45593999997E+02  0.45594000000E+02  0.51100000000E-03 0. -1.
    9900012    2    1    2    0    0  0.48292968725E+01 -0.29855942414E+01  0.31376413579E+02  0.59302028001E+02  0.50000153146E+02 0.  0.
         12    1    1    2    0    0 -0.48292968725E+01  0.29855942414E+01 -0.31376413579E+02  0.31885971999E+02  0.00000000000E+00 0. -1.
         11    1    3    3    0    0  0.26863271705E+01  0.16487895256E+01  0.66750664829E+01  0.73818272385E+01  0.51100000000E-03 0.  1.
        -11    1    3    3    0    0 -0.19825276429E+01  0.60791682961E+01 -0.11928045116E+02  0.13533845114E+02  0.51100000000E-03 0. -1.
         12    1    3    3    0    0  0.41254973450E+01 -0.10713552063E+02  0.36629392212E+02  0.38386355648E+02  0.00000000000E+00 0. -1.
</event>
<event>
 7    1  0.6593656E-013  0.5930193E+02  0.7816164E-02  0.1266605E+00
        -11   -1    0    0    0    0  0.00000000000E+00  0.00000000000E+00  0.45593999997E+02  0.45594000000E+02  0.51100000000E-03 0.  1.
         11   -1    0    0    0    0 -0.00000000000E+00 -0.00000000000E+00 -0.45593999997E+02  0.45594000000E+02  0.51100000000E-03 0. -1.
    9900012    2    1    2    0    0  0.27449101559E+01  0.95661002152E+01  0.30293173841E+02  0.59301934290E+02  0.49999982241E+02 0.  0.
         12    1    1    2    0    0 -0.27449101559E+01 -0.95661002152E+01 -0.30293173841E+02  0.31886065710E+02  0.00000000000E+00 0. -1.
         11    1    3    3    0    0  0.59320015130E+01 -0.64405257225E+01  0.89703851895E+01  0.12535422779E+02  0.51100000000E-03 0. -1.
        -11    1    3    3    0    0  0.12377486809E+02  0.16345975782E+02  0.23341419467E+02  0.31067908957E+02  0.51100000000E-03 0.  1.
         12    1    3    3    0    0 -0.15564578166E+02 -0.33934984472E+00 -0.20186308150E+01  0.15698602554E+02  0.00000000000E+00 0. -1.
</event>
<event>
 7    1  0.6593656E-013  0.5930194E+02  0.7816164E-02  0.1266605E+00
        -11   -1    0    0    0    0  0.00000000000E+00  0.00000000000E+00  0.45593999997E+02  0.45594000000E+02  0.51100000000E-03 0. -1.
         11   -1    0    0    0    0 -0.00000000000E+00 -0.00000000000E+00 -0.45593999997E+02  0.45594000000E+02  0.51100000000E-03 0.  1.
    9900012    2    1    2    0    0 -0.18230338806E+02  0.21614516183E+02 -0.14737317080E+02  0.59301935999E+02  0.49999985357E+02 0.  0.
         12    1    1    2    0    0  0.18230338806E+02 -0.21614516183E+02  0.14737317080E+02  0.31886064001E+02  0.00000000000E+00 0. -1.
         11    1    3    3    0    0 -0.11204744546E+02  0.16076447561E+02 -0.19665182576E+02  0.27761806003E+02  0.51100000000E-03 0.  1.
        -11    1    3    3    0    0  0.11772573423E+02  0.31777297440E+01  0.14837106746E+01  0.12283845040E+02  0.51100000000E-03 0. -1.
        -12    1    3    3    0    0 -0.18798167684E+02  0.23603388772E+01  0.34441548218E+01  0.19256284956E+02  0.00000000000E+00 0.  1.
</event>
<event>
 7    1  0.6593656E-013  0.5930194E+02  0.7816164E-02  0.1266605E+00
        -11   -1    0    0    0    0  0.00000000000E+00  0.00000000000E+00  0.45593999997E+02  0.45594000000E+02  0.51100000000E-03 0. -1.
         11   -1    0    0    0    0 -0.00000000000E+00 -0.00000000000E+00 -0.45593999997E+02  0.45594000000E+02  0.51100000000E-03 0.  1.
    9900012    2    1    2    0    0 -0.27441792912E+02 -0.16235406920E+02 -0.28348253988E+00  0.59301940375E+02  0.49999993338E+02 0.  0.
         12    1    1    2    0    0  0.27441792912E+02  0.16235406920E+02  0.28348253988E+00  0.31886059625E+02  0.00000000000E+00 0. -1.
         11    1    3    3    0    0  0.61020095036E+01 -0.13105464963E+01  0.43372528372E+01  0.76002509522E+01  0.51100000000E-03 0. -1.
        -11    1    3    3    0    0 -0.15273055745E+02 -0.23905162675E+02  0.56102164974E+01  0.28917080830E+02  0.51100000000E-03 0.  1.
        -12    1    3    3    0    0 -0.18270746671E+02  0.89803022520E+01 -0.10230951874E+02  0.22784608592E+02  0.00000000000E+00 0.  1.
</event>
<event>
 7    1  0.6593656E-013  0.5930194E+02  0.7816164E-02  0.1266605E+00
        -11   -1    0    0    0    0  0.00000000000E+00  0.00000000000E+00  0.45593999997E+02  0.45594000000E+02  0.51100000000E-03 0. -1.
         11   -1    0    0    0    0 -0.00000000000E+00 -0.00000000000E+00 -0.45593999997E+02  0.45594000000E+02  0.51100000000E-03 0.  1.
    9900012    2    1    2    0    0  0.16655565715E+02  0.52547950976E-01 -0.27190264355E+02  0.59301935548E+02  0.49999984535E+02 0.  0.
         12    1    1    2    0    0 -0.16655565715E+02 -0.52547950976E-01  0.27190264355E+02  0.31886064452E+02  0.00000000000E+00 0. -1.
         11    1    3    3    0    0  0.16596038740E+02 -0.17876931219E+02 -0.16027335704E+02  0.29187131782E+02  0.51100000000E-03 0. -1.
        -11    1    3    3    0    0  0.46250571494E+01  0.25058407179E+00 -0.10911809494E+02  0.11854177859E+02  0.51100000000E-03 0.  1.
        -12    1    3    3    0    0 -0.45655301743E+01  0.17678895098E+02 -0.25111915618E+00  0.18260625906E+02  0.00000000000E+00 0.  1.
</event>
<event>
 7    1  0.6593656E-013  0.5930194E+02  0.7816164E-02  0.1266605E+00
        -11   -1    0    0    0    0  0.00000000000E+00  0.00000000000E+00  0.45593999997E+02  0.45594000000E+02  0.51100000000E-03 0.  1.
         11   -1    0    0    0    0 -0.00000000000E+00 -0.00000000000E+00 -0.45593999997E+02  0.45594000000E+02  0.51100000000E-03 0. -1.
    9900012    2    1    2    0    0  0.27412386774E+00  0.31796004099E+02  0.23790036683E+01  0.59301942247E+02  0.49999996752E+02 0.  0.
         12    1    1    2    0    0 -0.27412386774E+00 -0.31796004099E+02 -0.23790036683E+01  0.31886057753E+02  0.00000000000E+00 0. -1.
         11    1    3    3    0    0 -0.38894956257E+01  0.11826778990E+02  0.52933180911E+00  0.12461182525E+02  0.51100000000E-03 0. -1.
        -11    1    3    3    0    0 -0.17705918976E+02  0.15005892397E+02 -0.42613296602E+01  0.23597357991E+02  0.51100000000E-03 0.  1.
         12    1    3    3    0    0  0.21869538469E+02  0.49633327133E+01  0.61110015194E+01  0.23243401732E+02  0.00000000000E+00 0. -1.
</event>
<event>
 7    1  0.6593656E-013  0.5930195E+02  0.7816164E-02  0.1266605E+00
        -11   -1    0    0    0    0  0.00000000000E+00  0.00000000000E+00  0.45593999997E+02  0.45594000000E+02  0.51100000000E-03 0.  1.
         11   -1    0    0    0    0 -0.00000000000E+00 -0.00000000000E+00 -0.45593999997E+02  0.45594000000E+02  0.51100000000E-03 0. -1.
    9900012    2    1    2    0    0 -0.13999747910E+02  0.32258357134E+01  0.28466146186E+02  0.59301946054E+02  0.50000003695E+02 0.  0.
         12    1    1    2    0    0  0.13999747910E+02 -0.32258357134E+01 -0.28466146186E+02  0.31886053946E+02  0.00000000000E+00 0. -1.
         11    1    3    3    0    0 -0.13168014854E+02  0.12502030569E+02  0.29010161788E+02  0.34224068588E+02  0.51100000000E-03 0.  1.
        -11    1    3    3    0    0 -0.53583572276E+01  0.66237728923E+01  0.29459407864E+00  0.85248545700E+01  0.51100000000E-03 0. -1.
         12    1    3    3    0    0  0.45266241712E+01 -0.15899967748E+02 -0.83860968074E+00  0.16553022895E+02  0.00000000000E+00 0. -1.
</event>
<event>
 7    1  0.6593656E-013  0.5930194E+02  0.7816164E-02  0.1266605E+00
        -11   -1    0    0    0    0  0.00000000000E+00  0.00000000000E+00  0.45593999997E+02  0.45594000000E+02  0.51100000000E-03 0.  1.
         11   -1    0    0    0    0 -0.00000000000E+00 -0.00000000000E+00 -0.45593999997E+02  0.45594000000E+02  0.51100000000E-03 0. -1.
    9900012    2    1    2    0    0  0.54988593295E+01 -0.25165686653E+01  0.31307351932E+02  0.59301939460E+02  0.49999991670E+02 0.  0.
         12    1    1    2    0    0 -0.54988593295E+01  0.25165686653E+01 -0.31307351932E+02  0.31886060540E+02  0.00000000000E+00 0. -1.
         11    1    3    3    0    0  0.20049599541E+02 -0.51112246866E+01  0.24035681217E+02  0.31714744700E+02  0.51100000000E-03 0. -1.
        -11    1    3    3    0    0 -0.13371973415E+02 -0.79970445782E+01  0.65626889860E+01  0.16906545537E+02  0.51100000000E-03 0.  1.
        -12    1    3    3    0    0 -0.11787667968E+01  0.10591700600E+02  0.70898172906E+00  0.10680649224E+02  0.00000000000E+00 0.  1.
</event>
<event>
 7    1  0.6593656E-013  0.5930195E+02  0.7816164E-02  0.1266605E+00
        -11   -1    0    0    0    0  0.00000000000E+00  0.00000000000E+00  0.45593999997E+02  0.45594000000E+02  0.51100000000E-03 0.  1.
         11   -1    0    0    0    0 -0.00000000000E+00 -0.00000000000E+00 -0.45593999997E+02  0.45594000000E+02  0.51100000000E-03 0. -1.
    9900012    2    1    2    0    0 -0.18194110897E+02 -0.66664824422E+01  0.25322962021E+02  0.59301951876E+02  0.50000014313E+02 0.  0.
         12    1    1    2    0    0  0.18194110897E+02  0.66664824422E+01 -0.25322962021E+02  0.31886048124E+02  0.00000000000E+00 0. -1.
         11    1    3    3    0    0  0.77085566894E+00 -0.37661102033E+00  0.13421411411E+01  0.15929210359E+01  0.51100000000E-03 0. -1.
        -11    1    3    3    0    0 -0.22661205160E+02 -0.23245433467E+02  0.23972206182E+02  0.40355260696E+02  0.51100000000E-03 0.  1.
        -12    1    3    3    0    0  0.36962385939E+01  0.16955562045E+02  0.86146969379E-02  0.17353770144E+02  0.00000000000E+00 0.  1.
</event>
<event>
 7    1  0.6593656E-013  0.5930195E+02  0.7816164E-02  0.1266605E+00
        -11   -1    0    0    0    0  0.00000000000E+00  0.00000000000E+00  0.45593999997E+02  0.45594000000E+02  0.51100000000E-03 0. -1.
         11   -1    0    0    0    0 -0.00000000000E+00 -0.00000000000E+00 -0.45593999997E+02  0.45594000000E+02  0.51100000000E-03 0.  1.
    9900012    2    1    2    0    0 -0.38465899789E+01 -0.47428333695E+01 -0.31295837961E+02  0.59301949813E+02  0.50000010551E+02 0.  0.
         12    1    1    2    0    0  0.38465899789E+01  0.47428333695E+01  0.31295837961E+02  0.31886050187E+02  0.00000000000E+00 0. -1.
         11    1    3    3    0    0  0.24835843243E+00  0.25603617943E+01 -0.15558354674E+02  0.15769576242E+02  0.51100000000E-03 0. -1.
        -11    1    3    3    0    0 -0.95814844562E+01  0.14780330369E+02 -0.91174371334E+01  0.19834078510E+02  0.51100000000E-03 0.  1.
         12    1    3    3    0    0  0.54865360449E+01 -0.22083525533E+02 -0.66200461537E+01  0.23698295061E+02  0.00000000000E+00 0. -1.
</event>
<event>
 7    1  0.6593656E-013  0.5930192E+02  0.7816164E-02  0.1266605E+00
        -11   -1    0    0    0    0  0.00000000000E+00  0.00000000000E+00  0.45593999997E+02  0.45594000000E+02  0.51100000000E-03 0.  1.
         11   -1    0    0    0    0 -0.00000000000E+00 -0.00000000000E+00 -0.45593999997E+02  0.45594000000E+02  0.51100000000E-03 0. -1.
    9900012    2    1    2    0    0  0.30006394400E+02 -0.88716245963E+01  0.61345248259E+01  0.59301924314E+02  0.49999964046E+02 0.  0.
         12    1    1    2    0    0 -0.30006394400E+02  0.88716245963E+01 -0.61345248259E+01  0.31886075686E+02  0.00000000000E+00 0. -1.
         11    1    3    3    0    0 -0.25536250822E+01  0.81006474741E+01  0.54153712091E+01  0.10073119485E+02  0.51100000000E-03 0. -1.
        -11    1    3    3    0    0  0.29080534119E+01  0.15694030476E+01  0.12028178656E+02  0.12473847948E+02  0.51100000000E-03 0.  1.
         12    1    3    3    0    0  0.29651966070E+02 -0.18541675118E+02 -0.11309025039E+02  0.36754956881E+02  0.00000000000E+00 0. -1.
</event>
<event>
 7    1  0.6593656E-013  0.5930197E+02  0.7816164E-02  0.1266605E+00
        -11   -1    0    0    0    0  0.00000000000E+00  0.00000000000E+00  0.45593999997E+02  0.45594000000E+02  0.51100000000E-03 0.  1.
         11   -1    0    0    0    0 -0.00000000000E+00 -0.00000000000E+00 -0.45593999997E+02  0.45594000000E+02  0.51100000000E-03 0. -1.
    9900012    2    1    2    0    0 -0.45402707405E+01 -0.21567453412E+02  0.23042343868E+02  0.59301973029E+02  0.50000052891E+02 0.  0.
         12    1    1    2    0    0  0.45402707405E+01  0.21567453412E+02 -0.23042343868E+02  0.31886026971E+02  0.00000000000E+00 0. -1.
         11    1    3    3    0    0  0.35136627655E+00 -0.18506826837E+02  0.26876118129E+02  0.32633599615E+02  0.51100000000E-03 0. -1.
        -11    1    3    3    0    0  0.69046639900E+01 -0.76791657440E+01  0.47490055145E+01  0.11366486923E+02  0.51100000000E-03 0.  1.
         12    1    3    3    0    0 -0.11796301007E+02  0.46185391695E+01 -0.85827797753E+01  0.15301886491E+02  0.00000000000E+00 0. -1.
</event>
<event>
 7    1  0.6593656E-013  0.5930198E+02  0.7816164E-02  0.1266605E+00
        -11   -1    0    0    0    0  0.00000000000E+00  0.00000000000E+00  0.45593999997E+02  0.45594000000E+02  0.51100000000E-03 0.  1.
         11   -1    0    0    0    0 -0.00000000000E+00 -0.00000000000E+00 -0.45593999997E+02  0.45594000000E+02  0.51100000000E-03 0. -1.
    9900012    2    1    2    0    0 -0.11477988726E+02  0.13961291211E+02  0.26268928930E+02  0.59301976344E+02  0.50000058937E+02 0.  0.
         12    1    1    2    0    0  0.11477988726E+02 -0.13961291211E+02 -0.26268928930E+02  0.31886023656E+02  0.00000000000E+00 0. -1.
         11    1    3    3    0    0 -0.13790794056E+01 -0.70062002924E+01  0.11257135185E+02  0.13330858764E+02  0.51100000000E-03 0. -1.
        -11    1    3    3    0    0  0.12971388579E+02  0.16196230992E+01  0.22298869282E+01  0.13260938754E+02  0.51100000000E-03 0.  1.
         12    1    3    3    0    0 -0.23070297900E+02  0.19347868404E+02  0.12781906817E+02  0.32710178826E+02  0.00000000000E+00 0. -1.
</event>
<event>
 7    1  0.6593656E-013  0.5930194E+02  0.7816164E-02  0.1266605E+00
        -11   -1    0    0    0    0  0.00000000000E+00  0.00000000000E+00  0.45593999997E+02  0.45594000000E+02  0.51100000000E-03 0. -1.
         11   -1    0    0    0    0 -0.00000000000E+00 -0.00000000000E+00 -0.45593999997E+02  0.45594000000E+02  0.51100000000E-03 0.  1.
    9900012    2    1    2    0    0 -0.72789962932E+01 -0.28649899856E+02 -0.11954916753E+02  0.59301943747E+02  0.49999999488E+02 0.  0.
         12    1    1    2    0    0  0.72789962932E+01  0.28649899856E+02  0.11954916753E+02  0.31886056253E+02  0.00000000000E+00 0. -1.
         11    1    3    3    0    0 -0.88007681859E+01  0.79711350141E+00 -0.12109704182E+02  0.14991125582E+02  0.51100000000E-03 0. -1.
        -11    1    3    3    0    0 -0.67356046783E+01 -0.73066420026E+01 -0.13695338185E+02  0.16920924206E+02  0.51100000000E-03 0.  1.
         12    1    3    3    0    0  0.82573765710E+01 -0.22140371355E+02  0.13850125613E+02  0.27389893959E+02  0.00000000000E+00 0. -1.
</event>
<event>
 7    1  0.6593656E-013  0.5930195E+02  0.7816164E-02  0.1266605E+00
        -11   -1    0    0    0    0  0.00000000000E+00  0.00000000000E+00  0.45593999997E+02  0.45594000000E+02  0.51100000000E-03 0.  1.
         11   -1    0    0    0    0 -0.00000000000E+00 -0.00000000000E+00 -0.45593999997E+02  0.45594000000E+02  0.51100000000E-03 0. -1.
    9900012    2    1    2    0    0  0.24010983493E+02 -0.15226793157E+00  0.20980226825E+02  0.59301946129E+02  0.50000003831E+02 0.  0.
         12    1    1    2    0    0 -0.24010983493E+02  0.15226793157E+00 -0.20980226825E+02  0.31886053871E+02  0.00000000000E+00 0. -1.
         11    1    3    3    0    0  0.18155730518E+02  0.37774250008E+01 -0.32328828320E+01  0.18824213714E+02  0.51100000000E-03 0.  1.
        -11    1    3    3    0    0  0.16153942759E+02  0.30536938322E+01  0.42940595462E+01  0.16991582043E+02  0.51100000000E-03 0. -1.
         12    1    3    3    0    0 -0.10298689783E+02 -0.69833867645E+01  0.19919050111E+02  0.23486150372E+02  0.00000000000E+00 0. -1.
</event>
<event>
 7    1  0.6593656E-013  0.5930194E+02  0.7816164E-02  0.1266605E+00
        -11   -1    0    0    0    0  0.00000000000E+00  0.00000000000E+00  0.45593999997E+02  0.45594000000E+02  0.51100000000E-03 0.  1.
         11   -1    0    0    0    0 -0.00000000000E+00 -0.00000000000E+00 -0.45593999997E+02  0.45594000000E+02  0.51100000000E-03 0. -1.
    9900012    2    1    2    0    0  0.19248002310E+02 -0.25367147911E+02  0.16561682933E+01  0.59301942240E+02  0.49999996740E+02 0.  0.
         12    1    1    2    0    0 -0.19248002310E+02  0.25367147911E+02 -0.16561682933E+01  0.31886057760E+02  0.00000000000E+00 0. -1.
         11    1    3    3    0    0  0.14719950386E+02 -0.13576957495E+02  0.30464786348E+01  0.20255659617E+02  0.51100000000E-03 0. -1.
        -11    1    3    3    0    0  0.16826894722E+02 -0.15293496430E+02  0.69523639830E+01  0.23777526874E+02  0.51100000000E-03 0.  1.
         12    1    3    3    0    0 -0.12298842798E+02  0.35033060143E+01 -0.83426743246E+01  0.15268755748E+02  0.00000000000E+00 0. -1.
</event>
<event>
 7    1  0.6593656E-013  0.5930194E+02  0.7816164E-02  0.1266605E+00
        -11   -1    0    0    0    0  0.00000000000E+00  0.00000000000E+00  0.45593999997E+02  0.45594000000E+02  0.51100000000E-03 0.  1.
         11   -1    0    0    0    0 -0.00000000000E+00 -0.00000000000E+00 -0.45593999997E+02  0.45594000000E+02  0.51100000000E-03 0. -1.
    9900012    2    1    2    0    0  0.79827986531E+01  0.28598870464E+01  0.30737867134E+02  0.59301944988E+02  0.50000001752E+02 0.  0.
         12    1    1    2    0    0 -0.79827986531E+01 -0.28598870464E+01 -0.30737867134E+02  0.31886055012E+02  0.00000000000E+00 0. -1.
         11    1    3    3    0    0 -0.88556539165E+01 -0.49347554435E+01  0.80484875315E+01  0.12944209879E+02  0.51100000000E-03 0. -1.
        -11    1    3    3    0    0  0.85874584223E+01 -0.14369740552E+02  0.84557006183E+01  0.18754539688E+02  0.51100000000E-03 0.  1.
        -12    1    3    3    0    0  0.82509941474E+01  0.22164383042E+02  0.14233678984E+02  0.27603195422E+02  0.00000000000E+00 0.  1.
</event>
<event>
 7    1  0.6593656E-013  0.5930195E+02  0.7816164E-02  0.1266605E+00
        -11   -1    0    0    0    0  0.00000000000E+00  0.00000000000E+00  0.45593999997E+02  0.45594000000E+02  0.51100000000E-03 0. -1.
         11   -1    0    0    0    0 -0.00000000000E+00 -0.00000000000E+00 -0.45593999997E+02  0.45594000000E+02  0.51100000000E-03 0.  1.
    9900012    2    1    2    0    0  0.26251567873E+02 -0.64840848035E+01 -0.16897696971E+02  0.59301947650E+02  0.50000006606E+02 0.  0.
         12    1    1    2    0    0 -0.26251567873E+02  0.64840848035E+01  0.16897696971E+02  0.31886052350E+02  0.00000000000E+00 0. -1.
         11    1    3    3    0    0  0.13175936938E+02 -0.44855157947E+01  0.43460315032E+01  0.14581260447E+02  0.51100000000E-03 0. -1.
        -11    1    3    3    0    0  0.22454247611E+02 -0.92326279806E+01 -0.22119860677E+02  0.32843917121E+02  0.51100000000E-03 0.  1.
        -12    1    3    3    0    0 -0.93786166755E+01  0.72340589718E+01  0.87613220282E+00  0.11876770082E+02  0.00000000000E+00 0.  1.
</event>
<event>
 7    1  0.6593656E-013  0.5930190E+02  0.7816164E-02  0.1266605E+00
        -11   -1    0    0    0    0  0.00000000000E+00  0.00000000000E+00  0.45593999997E+02  0.45594000000E+02  0.51100000000E-03 0.  1.
         11   -1    0    0    0    0 -0.00000000000E+00 -0.00000000000E+00 -0.45593999997E+02  0.45594000000E+02  0.51100000000E-03 0. -1.
    9900012    2    1    2    0    0 -0.16661804618E+02  0.57732382593E+01  0.26566470605E+02  0.59301899995E+02  0.49999919695E+02 0.  0.
         12    1    1    2    0    0  0.16661804618E+02 -0.57732382593E+01 -0.26566470605E+02  0.31886100005E+02  0.00000000000E+00 0. -1.
         11    1    3    3    0    0  0.15854665476E+01  0.39925871825E+01  0.61813176678E+01  0.75274926074E+01  0.51100000000E-03 0. -1.
        -11    1    3    3    0    0  0.86703037690E+01  0.14718729548E+02  0.34029009343E+01  0.17418234755E+02  0.51100000000E-03 0.  1.
         12    1    3    3    0    0 -0.26917574935E+02 -0.12938078471E+02  0.16982252003E+02  0.34356172633E+02  0.00000000000E+00 0. -1.
</event>
<event>
 7    1  0.6593656E-013  0.5930197E+02  0.7816164E-02  0.1266605E+00
        -11   -1    0    0    0    0  0.00000000000E+00  0.00000000000E+00  0.45593999997E+02  0.45594000000E+02  0.51100000000E-03 0. -1.
         11   -1    0    0    0    0 -0.00000000000E+00 -0.00000000000E+00 -0.45593999997E+02  0.45594000000E+02  0.51100000000E-03 0.  1.
    9900012    2    1    2    0    0  0.11650560874E+02  0.10998387134E+02 -0.27568441997E+02  0.59301967283E+02  0.50000042412E+02 0.  0.
         12    1    1    2    0    0 -0.11650560874E+02 -0.10998387134E+02  0.27568441997E+02  0.31886032717E+02  0.00000000000E+00 0. -1.
         11    1    3    3    0    0 -0.31855758542E+01 -0.68015100914E+01 -0.93041758997E+01  0.11957262332E+02  0.51100000000E-03 0. -1.
        -11    1    3    3    0    0  0.21472439076E+02  0.12353857296E+02 -0.25911215509E+02  0.35847936055E+02  0.51100000000E-03 0.  1.
         12    1    3    3    0    0 -0.66363023471E+01  0.54460399299E+01  0.76469494114E+01  0.11496768897E+02  0.00000000000E+00 0. -1.
</event>
<event>
 7    1  0.6593656E-013  0.5930195E+02  0.7816164E-02  0.1266605E+00
        -11   -1    0    0    0    0  0.00000000000E+00  0.00000000000E+00  0.45593999997E+02  0.45594000000E+02  0.51100000000E-03 0.  1.
         11   -1    0    0    0    0 -0.00000000000E+00 -0.00000000000E+00 -0.45593999997E+02  0.45594000000E+02  0.51100000000E-03 0. -1.
    9900012    2    1    2    0    0 -0.63247880934E+00 -0.31311446985E+02  0.59928077928E+01  0.59301945258E+02  0.50000002245E+02 0.  0.
         12    1    1    2    0    0  0.63247880934E+00  0.31311446985E+02 -0.59928077928E+01  0.31886054742E+02  0.00000000000E+00 0. -1.
         11    1    3    3    0    0 -0.47568532710E+01 -0.18220104722E+02 -0.19476081292E+02  0.27090913825E+02  0.51100000000E-03 0. -1.
        -11    1    3    3    0    0  0.13406824439E+01 -0.99409665027E+01  0.48024330363E+01  0.11121313221E+02  0.51100000000E-03 0.  1.
        -12    1    3    3    0    0  0.27836920177E+01 -0.31503757599E+01  0.20666456048E+02  0.21089718212E+02  0.00000000000E+00 0.  1.
</event>
<event>
 7    1  0.6593656E-013  0.5930194E+02  0.7816164E-02  0.1266605E+00
        -11   -1    0    0    0    0  0.00000000000E+00  0.00000000000E+00  0.45593999997E+02  0.45594000000E+02  0.51100000000E-03 0.  1.
         11   -1    0    0    0    0 -0.00000000000E+00 -0.00000000000E+00 -0.45593999997E+02  0.45594000000E+02  0.51100000000E-03 0. -1.
    9900012    2    1    2    0    0  0.27749775407E+02  0.11639138485E+02 -0.10545198881E+02  0.59301940362E+02  0.49999993314E+02 0.  0.
         12    1    1    2    0    0 -0.27749775407E+02 -0.11639138485E+02  0.10545198881E+02  0.31886059638E+02  0.00000000000E+00 0. -1.
         11    1    3    3    0    0  0.98072175003E+01 -0.11459847146E+02  0.17197824505E+01  0.15181148298E+02  0.51100000000E-03 0. -1.
        -11    1    3    3    0    0  0.22565319056E+01 -0.58822031961E+00 -0.15365989431E+02  0.15541929444E+02  0.51100000000E-03 0.  1.
        -12    1    3    3    0    0  0.15686026001E+02  0.23687205950E+02  0.31010080987E+01  0.28578862620E+02  0.00000000000E+00 0.  1.
</event>
<event>
 7    1  0.6593656E-013  0.5930195E+02  0.7816164E-02  0.1266605E+00
        -11   -1    0    0    0    0  0.00000000000E+00  0.00000000000E+00  0.45593999997E+02  0.45594000000E+02  0.51100000000E-03 0. -1.
         11   -1    0    0    0    0 -0.00000000000E+00 -0.00000000000E+00 -0.45593999997E+02  0.45594000000E+02  0.51100000000E-03 0.  1.
    9900012    2    1    2    0    0  0.27139209122E+02 -0.72063032115E+01 -0.15108043565E+02  0.59301945711E+02  0.50000003071E+02 0.  0.
         12    1    1    2    0    0 -0.27139209122E+02  0.72063032115E+01  0.15108043565E+02  0.31886054289E+02  0.00000000000E+00 0. -1.
         11    1    3    3    0    0 -0.90081857438E+01 -0.29922580962E+01 -0.58199568898E+01  0.11134312613E+02  0.51100000000E-03 0. -1.
        -11    1    3    3    0    0  0.69815686291E+01  0.76238825806E+01 -0.12847735438E+02  0.16490306009E+02  0.51100000000E-03 0.  1.
         12    1    3    3    0    0  0.29165826237E+02 -0.11837927696E+02  0.35596487630E+01  0.31677327089E+02  0.00000000000E+00 0. -1.
</event>
<event>
 7    1  0.6593656E-013  0.5930190E+02  0.7816164E-02  0.1266605E+00
        -11   -1    0    0    0    0  0.00000000000E+00  0.00000000000E+00  0.45593999997E+02  0.45594000000E+02  0.51100000000E-03 0. -1.
         11   -1    0    0    0    0 -0.00000000000E+00 -0.00000000000E+00 -0.45593999997E+02  0.45594000000E+02  0.51100000000E-03 0.  1.
    9900012    2    1    2    0    0  0.54371650293E+00  0.56560301033E+01 -0.31375735963E+02  0.59301904106E+02  0.49999927192E+02 0.  0.
         12    1    1    2    0    0 -0.54371650293E+00 -0.56560301033E+01  0.31375735963E+02  0.31886095894E+02  0.00000000000E+00 0. -1.
         11    1    3    3    0    0  0.78459901760E+01  0.12390771525E+01 -0.22143290525E+02  0.23524884475E+02  0.51100000000E-03 0. -1.
        -11    1    3    3    0    0 -0.16550164253E+01 -0.14261086209E+02 -0.74716157763E+01  0.16184644012E+02  0.51100000000E-03 0.  1.
         12    1    3    3    0    0 -0.56472572478E+01  0.18678039160E+02 -0.17608296618E+01  0.19592375619E+02  0.00000000000E+00 0. -1.
</event>
<event>
 7    1  0.6593656E-013  0.5930195E+02  0.7816164E-02  0.1266605E+00
        -11   -1    0    0    0    0  0.00000000000E+00  0.00000000000E+00  0.45593999997E+02  0.45594000000E+02  0.51100000000E-03 0. -1.
         11   -1    0    0    0    0 -0.00000000000E+00 -0.00000000000E+00 -0.45593999997E+02  0.45594000000E+02  0.51100000000E-03 0.  1.
    9900012    2    1    2    0    0  0.25296732080E+02  0.13634714297E+02 -0.13816303598E+02  0.59301947673E+02  0.50000006648E+02 0.  0.
         12    1    1    2    0    0 -0.25296732080E+02 -0.13634714297E+02  0.13816303598E+02  0.31886052327E+02  0.00000000000E+00 0. -1.
         11    1    3    3    0    0 -0.96419603983E+01  0.41854835611E+01  0.33356944128E+01  0.11027807146E+02  0.51100000000E-03 0.  1.
        -11    1    3    3    0    0  0.11630091711E+02 -0.19065464990E+01  0.62562080111E+01  0.13342941644E+02  0.51100000000E-03 0. -1.
        -12    1    3    3    0    0  0.23308600767E+02  0.11355777235E+02 -0.23408206022E+02  0.34931198884E+02  0.00000000000E+00 0.  1.
</event>
<event>
 7    1  0.6593656E-013  0.5930194E+02  0.7816164E-02  0.1266605E+00
        -11   -1    0    0    0    0  0.00000000000E+00  0.00000000000E+00  0.45593999997E+02  0.45594000000E+02  0.51100000000E-03 0.  1.
         11   -1    0    0    0    0 -0.00000000000E+00 -0.00000000000E+00 -0.45593999997E+02  0.45594000000E+02  0.51100000000E-03 0. -1.
    9900012    2    1    2    0    0  0.86311729130E+01 -0.15916978401E+01  0.30654363073E+02  0.59301943122E+02  0.49999998348E+02 0.  0.
         12    1    1    2    0    0 -0.86311729130E+01  0.15916978401E+01 -0.30654363073E+02  0.31886056878E+02  0.00000000000E+00 0. -1.
         11    1    3    3    0    0 -0.44388411143E+01 -0.11041213241E+01 -0.53817489039E+01  0.70629750008E+01  0.51100000000E-03 0. -1.
        -11    1    3    3    0    0  0.94525802475E+01 -0.14341584316E+02  0.47332104419E+01  0.17816722352E+02  0.51100000000E-03 0.  1.
        -12    1    3    3    0    0  0.36174337797E+01  0.13854007800E+02  0.31302901534E+02  0.34422245769E+02  0.00000000000E+00 0.  1.
</event>
<event>
 7    1  0.6593656E-013  0.5930210E+02  0.7816164E-02  0.1266604E+00
        -11   -1    0    0    0    0  0.00000000000E+00  0.00000000000E+00  0.45593999997E+02  0.45594000000E+02  0.51100000000E-03 0. -1.
         11   -1    0    0    0    0 -0.00000000000E+00 -0.00000000000E+00 -0.45593999997E+02  0.45594000000E+02  0.51100000000E-03 0.  1.
    9900012    2    1    2    0    0 -0.14302399169E+02 -0.25758363048E+02 -0.12192559330E+02  0.59302103558E+02  0.50000290944E+02 0.  0.
         12    1    1    2    0    0  0.14302399169E+02  0.25758363048E+02  0.12192559330E+02  0.31885896442E+02  0.00000000000E+00 0. -1.
         11    1    3    3    0    0 -0.14092706868E-01 -0.15574501270E+01  0.46734455798E+01  0.49261489371E+01  0.51100000000E-03 0. -1.
        -11    1    3    3    0    0  0.10106178110E+02 -0.25284051881E+02 -0.10043643347E+02  0.29022282602E+02  0.51100000000E-03 0.  1.
         12    1    3    3    0    0 -0.24394484572E+02  0.10831389594E+01 -0.68223615624E+01  0.25353672019E+02  0.00000000000E+00 0. -1.
</event>
<event>
 7    1  0.6593656E-013  0.5930195E+02  0.7816164E-02  0.1266605E+00
        -11   -1    0    0    0    0  0.00000000000E+00  0.00000000000E+00  0.45593999997E+02  0.45594000000E+02  0.51100000000E-03 0.  1.
         11   -1    0    0    0    0 -0.00000000000E+00 -0.00000000000E+00 -0.45593999997E+02  0.45594000000E+02  0.51100000000E-03 0. -1.
    9900012    2    1    2    0    0  0.28083237290E+02 -0.11331566370E+02  0.99823766500E+01  0.59301945734E+02  0.50000003112E+02 0.  0.
         12    1    1    2    0    0 -0.28083237290E+02  0.11331566370E+02 -0.99823766500E+01  0.31886054266E+02  0.00000000000E+00 0. -1.
         11    1    3    3    0    0  0.53241726137E+01  0.35310310602E+00 -0.10321808083E+02  0.11619432782E+02  0.51100000000E-03 0. -1.
        -11    1    3    3    0    0  0.19348502798E+02 -0.23315314317E+02  0.10410064060E+02  0.32036508490E+02  0.51100000000E-03 0.  1.
        -12    1    3    3    0    0  0.34105618782E+01  0.11630644841E+02  0.98941206730E+01  0.15646004462E+02  0.00000000000E+00 0.  1.
</event>
<event>
 7    1  0.6593656E-013  0.5930194E+02  0.7816164E-02  0.1266605E+00
        -11   -1    0    0    0    0  0.00000000000E+00  0.00000000000E+00  0.45593999997E+02  0.45594000000E+02  0.51100000000E-03 0. -1.
         11   -1    0    0    0    0 -0.00000000000E+00 -0.00000000000E+00 -0.45593999997E+02  0.45594000000E+02  0.51100000000E-03 0.  1.
    9900012    2    1    2    0    0  0.16349988779E+02 -0.24886622121E+02  0.11404156460E+02  0.59301939123E+02  0.49999991055E+02 0.  0.
         12    1    1    2    0    0 -0.16349988779E+02  0.24886622121E+02 -0.11404156460E+02  0.31886060877E+02  0.00000000000E+00 0. -1.
         11    1    3    3    0    0  0.70097323413E+01 -0.11135554819E+02  0.15598182666E+02  0.20406867260E+02  0.51100000000E-03 0. -1.
        -11    1    3    3    0    0  0.18574870378E+02 -0.14600763155E+02  0.67293434695E+01  0.24566077385E+02  0.51100000000E-03 0.  1.
         12    1    3    3    0    0 -0.92346139403E+01  0.84969585344E+00 -0.10923369676E+02  0.14328994478E+02  0.00000000000E+00 0. -1.
</event>
<event>
 7    1  0.6593656E-013  0.5930197E+02  0.7816164E-02  0.1266605E+00
        -11   -1    0    0    0    0  0.00000000000E+00  0.00000000000E+00  0.45593999997E+02  0.45594000000E+02  0.51100000000E-03 0.  1.
         11   -1    0    0    0    0 -0.00000000000E+00 -0.00000000000E+00 -0.45593999997E+02  0.45594000000E+02  0.51100000000E-03 0. -1.
    9900012    2    1    2    0    0 -0.18833104292E+02  0.22976936834E+02  0.11579880512E+02  0.59301967380E+02  0.50000042589E+02 0.  0.
         12    1    1    2    0    0  0.18833104292E+02 -0.22976936834E+02 -0.11579880512E+02  0.31886032620E+02  0.00000000000E+00 0. -1.
         11    1    3    3    0    0 -0.62544430130E+01  0.32892926955E+02  0.53253581482E+01  0.33903128775E+02  0.51100000000E-03 0. -1.
        -11    1    3    3    0    0  0.40878253856E+01 -0.14009988137E+00  0.43693663104E+01  0.59850903565E+01  0.51100000000E-03 0.  1.
        -12    1    3    3    0    0 -0.16666486665E+02 -0.97758902393E+01  0.18851560539E+01  0.19413748249E+02  0.00000000000E+00 0.  1.
</event>
<event>
 7    1  0.6593656E-013  0.5930195E+02  0.7816164E-02  0.1266605E+00
        -11   -1    0    0    0    0  0.00000000000E+00  0.00000000000E+00  0.45593999997E+02  0.45594000000E+02  0.51100000000E-03 0.  1.
         11   -1    0    0    0    0 -0.00000000000E+00 -0.00000000000E+00 -0.45593999997E+02  0.45594000000E+02  0.51100000000E-03 0. -1.
    9900012    2    1    2    0    0 -0.24850335715E+02  0.17225286198E+02 -0.10122780864E+02  0.59301947216E+02  0.50000005814E+02 0.  0.
         12    1    1    2    0    0  0.24850335715E+02 -0.17225286198E+02  0.10122780864E+02  0.31886052784E+02  0.00000000000E+00 0. -1.
         11    1    3    3    0    0 -0.54084613106E+01  0.18289131713E+02 -0.21188497346E+02  0.28507827217E+02  0.51100000000E-03 0. -1.
        -11    1    3    3    0    0 -0.44823640943E+01  0.58628118318E+01 -0.40583015373E+01  0.84222302318E+01  0.51100000000E-03 0.  1.
        -12    1    3    3    0    0 -0.14959510310E+02 -0.69266573465E+01  0.15124018019E+02  0.22371889767E+02  0.00000000000E+00 0.  1.
</event>
<event>
 7    1  0.6593656E-013  0.5930196E+02  0.7816164E-02  0.1266605E+00
        -11   -1    0    0    0    0  0.00000000000E+00  0.00000000000E+00  0.45593999997E+02  0.45594000000E+02  0.51100000000E-03 0.  1.
         11   -1    0    0    0    0 -0.00000000000E+00 -0.00000000000E+00 -0.45593999997E+02  0.45594000000E+02  0.51100000000E-03 0. -1.
    9900012    2    1    2    0    0  0.75532154414E+01  0.60639409722E+01  0.30379216738E+02  0.59301964605E+02  0.50000037527E+02 0.  0.
         12    1    1    2    0    0 -0.75532154414E+01 -0.60639409722E+01 -0.30379216738E+02  0.31886035395E+02  0.00000000000E+00 0. -1.
         11    1    3    3    0    0  0.36877127378E+01 -0.51234096202E+01 -0.71002687010E+01  0.95006508862E+01  0.51100000000E-03 0. -1.
        -11    1    3    3    0    0  0.48315683398E+01 -0.32504732826E+01 -0.31861973812E+01  0.66378824332E+01  0.51100000000E-03 0.  1.
        -12    1    3    3    0    0 -0.96606563626E+00  0.14437823875E+02  0.40665682820E+02  0.43163431285E+02  0.00000000000E+00 0.  1.
</event>
<event>
 7    1  0.6593656E-013  0.5930194E+02  0.7816164E-02  0.1266605E+00
        -11   -1    0    0    0    0  0.00000000000E+00  0.00000000000E+00  0.45593999997E+02  0.45594000000E+02  0.51100000000E-03 0. -1.
         11   -1    0    0    0    0 -0.00000000000E+00 -0.00000000000E+00 -0.45593999997E+02  0.45594000000E+02  0.51100000000E-03 0.  1.
    9900012    2    1    2    0    0  0.25013511418E+02 -0.19771104117E+02  0.38552999405E+00  0.59301938079E+02  0.49999989150E+02 0.  0.
         12    1    1    2    0    0 -0.25013511418E+02  0.19771104117E+02 -0.38552999405E+00  0.31886061921E+02  0.00000000000E+00 0. -1.
         11    1    3    3    0    0 -0.36040528374E+01 -0.47611413464E+01  0.89028320100E+01  0.10719985160E+02  0.51100000000E-03 0. -1.
        -11    1    3    3    0    0  0.26395528758E+02 -0.33209503385E+00 -0.17082854849E+02  0.31442934907E+02  0.51100000000E-03 0.  1.
         12    1    3    3    0    0  0.22220354976E+01 -0.14677867737E+02  0.85655528333E+01  0.17139018011E+02  0.00000000000E+00 0. -1.
</event>
<event>
 7    1  0.6593656E-013  0.5930196E+02  0.7816164E-02  0.1266605E+00
        -11   -1    0    0    0    0  0.00000000000E+00  0.00000000000E+00  0.45593999997E+02  0.45594000000E+02  0.51100000000E-03 0.  1.
         11   -1    0    0    0    0 -0.00000000000E+00 -0.00000000000E+00 -0.45593999997E+02  0.45594000000E+02  0.51100000000E-03 0. -1.
    9900012    2    1    2    0    0  0.30203631128E+02  0.39640556608E+00  0.10212899514E+02  0.59301956232E+02  0.50000022257E+02 0.  0.
         12    1    1    2    0    0 -0.30203631128E+02 -0.39640556608E+00 -0.10212899514E+02  0.31886043768E+02  0.00000000000E+00 0. -1.
         11    1    3    3    0    0 -0.78423695587E+00 -0.27877647568E+01 -0.71792747985E+00  0.29836353781E+01  0.51100000000E-03 0. -1.
        -11    1    3    3    0    0  0.94851007161E+01 -0.24296460313E+01 -0.17607977128E+02  0.20147237385E+02  0.51100000000E-03 0.  1.
        -12    1    3    3    0    0  0.21502767368E+02  0.56138163542E+01  0.28538804122E+02  0.36171083468E+02  0.00000000000E+00 0.  1.
</event>
<event>
 7    1  0.6593656E-013  0.5930192E+02  0.7816164E-02  0.1266605E+00
        -11   -1    0    0    0    0  0.00000000000E+00  0.00000000000E+00  0.45593999997E+02  0.45594000000E+02  0.51100000000E-03 0. -1.
         11   -1    0    0    0    0 -0.00000000000E+00 -0.00000000000E+00 -0.45593999997E+02  0.45594000000E+02  0.51100000000E-03 0.  1.
    9900012    2    1    2    0    0 -0.30999590113E+02  0.49302467452E+01  0.56071333902E+01  0.59301923650E+02  0.49999962836E+02 0.  0.
         12    1    1    2    0    0  0.30999590113E+02 -0.49302467452E+01 -0.56071333902E+01  0.31886076350E+02  0.00000000000E+00 0. -1.
         11    1    3    3    0    0 -0.20102148586E+01 -0.46585813761E+01  0.24160305858E+01  0.56196573087E+01  0.51100000000E-03 0. -1.
        -11    1    3    3    0    0 -0.62017162597E+01  0.15989340155E+02 -0.15813167578E+02  0.23327592080E+02  0.51100000000E-03 0.  1.
         12    1    3    3    0    0 -0.22787658995E+02 -0.64005120336E+01  0.19004270382E+02  0.30354674261E+02  0.00000000000E+00 0. -1.
</event>
<event>
 7    1  0.6593656E-013  0.5930192E+02  0.7816164E-02  0.1266605E+00
        -11   -1    0    0    0    0  0.00000000000E+00  0.00000000000E+00  0.45593999997E+02  0.45594000000E+02  0.51100000000E-03 0. -1.
         11   -1    0    0    0    0 -0.00000000000E+00 -0.00000000000E+00 -0.45593999997E+02  0.45594000000E+02  0.51100000000E-03 0.  1.
    9900012    2    1    2    0    0 -0.30479974110E+02  0.85821873914E+01 -0.37469391471E+01  0.59301916591E+02  0.49999949963E+02 0.  0.
         12    1    1    2    0    0  0.30479974110E+02 -0.85821873914E+01  0.37469391471E+01  0.31886083409E+02  0.00000000000E+00 0. -1.
         11    1    3    3    0    0 -0.18797062878E+02 -0.48677233809E+01 -0.34093352647E+00  0.19420106583E+02  0.51100000000E-03 0. -1.
        -11    1    3    3    0    0 -0.23362192448E+02  0.35158590110E+01  0.17891181916E+01  0.23692915496E+02  0.51100000000E-03 0.  1.
         12    1    3    3    0    0  0.11679281216E+02  0.99340517614E+01 -0.51951238123E+01  0.16188894512E+02  0.00000000000E+00 0. -1.
</event>
<event>
 7    1  0.6593656E-013  0.5930196E+02  0.7816164E-02  0.1266605E+00
        -11   -1    0    0    0    0  0.00000000000E+00  0.00000000000E+00  0.45593999997E+02  0.45594000000E+02  0.51100000000E-03 0. -1.
         11   -1    0    0    0    0 -0.00000000000E+00 -0.00000000000E+00 -0.45593999997E+02  0.45594000000E+02  0.51100000000E-03 0.  1.
    9900012    2    1    2    0    0 -0.59711906900E+01 -0.27912400716E+02 -0.14211352248E+02  0.59301956585E+02  0.50000022901E+02 0.  0.
         12    1    1    2    0    0  0.59711906900E+01  0.27912400716E+02  0.14211352248E+02  0.31886043415E+02  0.00000000000E+00 0. -1.
         11    1    3    3    0    0 -0.21275061073E+02 -0.12058936781E+02 -0.71098121003E+01  0.25467540288E+02  0.51100000000E-03 0. -1.
        -11    1    3    3    0    0  0.15290622816E+01 -0.33528419895E+01 -0.13631008479E+02  0.14120338993E+02  0.51100000000E-03 0.  1.
        -12    1    3    3    0    0  0.13774808101E+02 -0.12500621946E+02  0.65294683312E+01  0.19714077304E+02  0.00000000000E+00 0.  1.
</event>
<event>
 7    1  0.6593656E-013  0.5930194E+02  0.7816164E-02  0.1266605E+00
        -11   -1    0    0    0    0  0.00000000000E+00  0.00000000000E+00  0.45593999997E+02  0.45594000000E+02  0.51100000000E-03 0.  1.
         11   -1    0    0    0    0 -0.00000000000E+00 -0.00000000000E+00 -0.45593999997E+02  0.45594000000E+02  0.51100000000E-03 0. -1.
    9900012    2    1    2    0    0  0.11671093086E+02  0.40968176573E+01  0.29389161281E+02  0.59301935183E+02  0.49999983869E+02 0.  0.
         12    1    1    2    0    0 -0.11671093086E+02 -0.40968176573E+01 -0.29389161281E+02  0.31886064817E+02  0.00000000000E+00 0. -1.
         11    1    3    3    0    0  0.15815817556E+02  0.14476809173E+02  0.19586931173E+02  0.29040763796E+02  0.51100000000E-03 0. -1.
        -11    1    3    3    0    0 -0.95440581106E+01  0.58260003514E+01  0.62641873987E+01  0.12816839288E+02  0.51100000000E-03 0.  1.
        -12    1    3    3    0    0  0.53993336401E+01 -0.16205991867E+02  0.35380427095E+01  0.17444332099E+02  0.00000000000E+00 0.  1.
</event>
<event>
 7    1  0.6593656E-013  0.5930194E+02  0.7816164E-02  0.1266605E+00
        -11   -1    0    0    0    0  0.00000000000E+00  0.00000000000E+00  0.45593999997E+02  0.45594000000E+02  0.51100000000E-03 0.  1.
         11   -1    0    0    0    0 -0.00000000000E+00 -0.00000000000E+00 -0.45593999997E+02  0.45594000000E+02  0.51100000000E-03 0. -1.
    9900012    2    1    2    0    0 -0.28259849222E+02 -0.83562528153E+01  0.12176803178E+02  0.59301943882E+02  0.49999999733E+02 0.  0.
         12    1    1    2    0    0  0.28259849222E+02  0.83562528153E+01 -0.12176803178E+02  0.31886056118E+02  0.00000000000E+00 0. -1.
         11    1    3    3    0    0 -0.77952760084E+01  0.12601280672E+02 -0.15511676113E+00  0.14818321905E+02  0.51100000000E-03 0. -1.
        -11    1    3    3    0    0 -0.26564867454E+02 -0.10081996977E+02  0.14382682971E+02  0.31846513398E+02  0.51100000000E-03 0.  1.
         12    1    3    3    0    0  0.61002942407E+01 -0.10875536510E+02 -0.20507630320E+01  0.12637108578E+02  0.00000000000E+00 0. -1.
</event>
<event>
 7    1  0.6593656E-013  0.5930180E+02  0.7816164E-02  0.1266605E+00
        -11   -1    0    0    0    0  0.00000000000E+00  0.00000000000E+00  0.45593999997E+02  0.45594000000E+02  0.51100000000E-03 0.  1.
         11   -1    0    0    0    0 -0.00000000000E+00 -0.00000000000E+00 -0.45593999997E+02  0.45594000000E+02  0.51100000000E-03 0. -1.
    9900012    2    1    2    0    0 -0.17028534749E+02  0.19010364558E+02  0.19114514604E+02  0.59301801969E+02  0.49999740917E+02 0.  0.
         12    1    1    2    0    0  0.17028534749E+02 -0.19010364558E+02 -0.19114514604E+02  0.31886198031E+02  0.00000000000E+00 0. -1.
         11    1    3    3    0    0 -0.15696434626E+02  0.15165479108E+02 -0.46401631835E+00  0.21830829758E+02  0.51100000000E-03 0. -1.
        -11    1    3    3    0    0 -0.11426078445E+02 -0.81476651475E+01  0.16205017146E+02  0.21436937677E+02  0.51100000000E-03 0.  1.
         12    1    3    3    0    0  0.10093978322E+02  0.11992550598E+02  0.33735137770E+01  0.16034034533E+02  0.00000000000E+00 0. -1.
</event>
<event>
 7    1  0.6593656E-013  0.5930193E+02  0.7816164E-02  0.1266605E+00
        -11   -1    0    0    0    0  0.00000000000E+00  0.00000000000E+00  0.45593999997E+02  0.45594000000E+02  0.51100000000E-03 0. -1.
         11   -1    0    0    0    0 -0.00000000000E+00 -0.00000000000E+00 -0.45593999997E+02  0.45594000000E+02  0.51100000000E-03 0.  1.
    9900012    2    1    2    0    0  0.86362726254E+01 -0.27603966103E+02 -0.13422267483E+02  0.59301930725E+02  0.49999975738E+02 0.  0.
         12    1    1    2    0    0 -0.86362726254E+01  0.27603966103E+02  0.13422267483E+02  0.31886069275E+02  0.00000000000E+00 0. -1.
         11    1    3    3    0    0  0.22375857598E+01  0.89340799426E+01 -0.73169462169E+01  0.11762749536E+02  0.51100000000E-03 0. -1.
        -11    1    3    3    0    0 -0.67084653924E+01 -0.11652320629E+01  0.47301946323E+01  0.82907186179E+01  0.51100000000E-03 0.  1.
        -12    1    3    3    0    0  0.13107152258E+02 -0.35372813982E+02 -0.10835515898E+02  0.39248462570E+02  0.00000000000E+00 0.  1.
</event>
<event>
 7    1  0.6593656E-013  0.5930192E+02  0.7816164E-02  0.1266605E+00
        -11   -1    0    0    0    0  0.00000000000E+00  0.00000000000E+00  0.45593999997E+02  0.45594000000E+02  0.51100000000E-03 0.  1.
         11   -1    0    0    0    0 -0.00000000000E+00 -0.00000000000E+00 -0.45593999997E+02  0.45594000000E+02  0.51100000000E-03 0. -1.
    9900012    2    1    2    0    0 -0.40722603199E+01  0.31478516491E+02  0.30400281339E+01  0.59301920347E+02  0.49999956812E+02 0.  0.
         12    1    1    2    0    0  0.40722603199E+01 -0.31478516491E+02 -0.30400281339E+01  0.31886079653E+02  0.00000000000E+00 0. -1.
         11    1    3    3    0    0  0.10001027614E+02  0.20602299776E+02 -0.10903218533E+02  0.25364453159E+02  0.51100000000E-03 0. -1.
        -11    1    3    3    0    0 -0.43336916197E+01  0.18118409877E+02  0.66677342923E+01  0.19786771853E+02  0.51100000000E-03 0.  1.
         12    1    3    3    0    0 -0.97395963138E+01 -0.72421931618E+01  0.72755123748E+01  0.14150695335E+02  0.00000000000E+00 0. -1.
</event>
<event>
 7    1  0.6593656E-013  0.5930195E+02  0.7816164E-02  0.1266605E+00
        -11   -1    0    0    0    0  0.00000000000E+00  0.00000000000E+00  0.45593999997E+02  0.45594000000E+02  0.51100000000E-03 0.  1.
         11   -1    0    0    0    0 -0.00000000000E+00 -0.00000000000E+00 -0.45593999997E+02  0.45594000000E+02  0.51100000000E-03 0. -1.
    9900012    2    1    2    0    0 -0.11236211420E+02  0.48118938877E+00  0.29836827062E+02  0.59301949140E+02  0.50000009324E+02 0.  0.
         12    1    1    2    0    0  0.11236211420E+02 -0.48118938877E+00 -0.29836827062E+02  0.31886050860E+02  0.00000000000E+00 0. -1.
         11    1    3    3    0    0  0.59111043414E+01 -0.10742335462E+02  0.93911238447E+01  0.15444485522E+02  0.51100000000E-03 0. -1.
        -11    1    3    3    0    0 -0.42579680793E+01  0.32879565704E+01 -0.91508023626E+01  0.10614995747E+02  0.51100000000E-03 0.  1.
        -12    1    3    3    0    0 -0.12889347683E+02  0.79355682804E+01  0.29596505580E+02  0.33242467871E+02  0.00000000000E+00 0.  1.
</event>
<event>
 7    1  0.6593656E-013  0.5930222E+02  0.7816164E-02  0.1266604E+00
        -11   -1    0    0    0    0  0.00000000000E+00  0.00000000000E+00  0.45593999997E+02  0.45594000000E+02  0.51100000000E-03 0.  1.
         11   -1    0    0    0    0 -0.00000000000E+00 -0.00000000000E+00 -0.45593999997E+02  0.45594000000E+02  0.51100000000E-03 0. -1.
    9900012    2    1    2    0    0 -0.31596057055E+01  0.25620321510E+02  0.18716816069E+02  0.59302216549E+02  0.50000497012E+02 0.  0.
         12    1    1    2    0    0  0.31596057055E+01 -0.25620321510E+02 -0.18716816069E+02  0.31885783451E+02  0.00000000000E+00 0. -1.
         11    1    3    3    0    0 -0.85860731813E+01 -0.26976593603E+01  0.12900200986E+02  0.15729373937E+02  0.51100000000E-03 0. -1.
        -11    1    3    3    0    0 -0.80031882754E+01  0.28149115269E+02  0.92586148416E+00  0.29279360184E+02  0.51100000000E-03 0.  1.
         12    1    3    3    0    0  0.13429655751E+02  0.16886560145E+00  0.48907535984E+01  0.14293482429E+02  0.00000000000E+00 0. -1.
</event>
<event>
 7    1  0.6593656E-013  0.5930194E+02  0.7816164E-02  0.1266605E+00
        -11   -1    0    0    0    0  0.00000000000E+00  0.00000000000E+00  0.45593999997E+02  0.45594000000E+02  0.51100000000E-03 0. -1.
         11   -1    0    0    0    0 -0.00000000000E+00 -0.00000000000E+00 -0.45593999997E+02  0.45594000000E+02  0.51100000000E-03 0.  1.
    9900012    2    1    2    0    0 -0.14523314092E+01  0.31335646408E+02 -0.57174086617E+01  0.59301940913E+02  0.49999994319E+02 0.  0.
         12    1    1    2    0    0  0.14523314092E+01 -0.31335646408E+02  0.57174086617E+01  0.31886059087E+02  0.00000000000E+00 0. -1.
         11    1    3    3    0    0  0.55649952201E+01  0.18330012172E+02  0.62589535242E+01  0.20152742183E+02  0.51100000000E-03 0. -1.
        -11    1    3    3    0    0 -0.11751769375E+01  0.22888866958E+02 -0.51233045581E+00  0.22924741094E+02  0.51100000000E-03 0.  1.
         12    1    3    3    0    0 -0.58421496918E+01 -0.98832327226E+01 -0.11464031730E+02  0.16224457636E+02  0.00000000000E+00 0. -1.
</event>
<event>
 7    1  0.6593656E-013  0.5930195E+02  0.7816164E-02  0.1266605E+00
        -11   -1    0    0    0    0  0.00000000000E+00  0.00000000000E+00  0.45593999997E+02  0.45594000000E+02  0.51100000000E-03 0.  1.
         11   -1    0    0    0    0 -0.00000000000E+00 -0.00000000000E+00 -0.45593999997E+02  0.45594000000E+02  0.51100000000E-03 0. -1.
    9900012    2    1    2    0    0 -0.27027230416E+02  0.29383254137E+01  0.16661798471E+02  0.59301945549E+02  0.50000002774E+02 0.  0.
         12    1    1    2    0    0  0.27027230416E+02 -0.29383254137E+01 -0.16661798471E+02  0.31886054451E+02  0.00000000000E+00 0. -1.
         11    1    3    3    0    0 -0.15838140572E+01 -0.24738598879E+01  0.10520241143E+01  0.31201289574E+01  0.51100000000E-03 0. -1.
        -11    1    3    3    0    0 -0.19706062222E+02 -0.17608139422E+02  0.18533321681E+02  0.32277848054E+02  0.51100000000E-03 0.  1.
         12    1    3    3    0    0 -0.57373541371E+01  0.23020324724E+02 -0.29235473244E+01  0.23903968538E+02  0.00000000000E+00 0. -1.
</event>
<event>
 7    1  0.6593656E-013  0.5930195E+02  0.7816164E-02  0.1266605E+00
        -11   -1    0    0    0    0  0.00000000000E+00  0.00000000000E+00  0.45593999997E+02  0.45594000000E+02  0.51100000000E-03 0. -1.
         11   -1    0    0    0    0 -0.00000000000E+00 -0.00000000000E+00 -0.45593999997E+02  0.45594000000E+02  0.51100000000E-03 0.  1.
    9900012    2    1    2    0    0 -0.51729190649E+01 -0.14664951374E+02 -0.27837025399E+02  0.59301954878E+02  0.50000019789E+02 0.  0.
         12    1    1    2    0    0  0.51729190649E+01  0.14664951374E+02  0.27837025399E+02  0.31886045122E+02  0.00000000000E+00 0. -1.
         11    1    3    3    0    0 -0.13247286139E+02 -0.14291356134E+01 -0.36817525569E+02  0.39154351073E+02  0.51100000000E-03 0. -1.
        -11    1    3    3    0    0  0.64838210245E+00 -0.77429155860E+01  0.80348915575E+00  0.78114490466E+01  0.51100000000E-03 0.  1.
        -12    1    3    3    0    0  0.74259849713E+01 -0.54929001741E+01  0.81770110141E+01  0.12336154759E+02  0.00000000000E+00 0.  1.
</event>
<event>
 7    1  0.6593656E-013  0.5930186E+02  0.7816164E-02  0.1266605E+00
        -11   -1    0    0    0    0  0.00000000000E+00  0.00000000000E+00  0.45593999997E+02  0.45594000000E+02  0.51100000000E-03 0.  1.
         11   -1    0    0    0    0 -0.00000000000E+00 -0.00000000000E+00 -0.45593999997E+02  0.45594000000E+02  0.51100000000E-03 0. -1.
    9900012    2    1    2    0    0  0.66976966044E+01 -0.40641324312E+01  0.30908732441E+02  0.59301857974E+02  0.49999843058E+02 0.  0.
         12    1    1    2    0    0 -0.66976966044E+01  0.40641324312E+01 -0.30908732441E+02  0.31886142026E+02  0.00000000000E+00 0. -1.
         11    1    3    3    0    0  0.85284333398E+01 -0.53237056175E+01  0.22579789936E+01  0.10304100452E+02  0.51100000000E-03 0. -1.
        -11    1    3    3    0    0  0.97366215554E+01  0.12282031391E+02  0.29057003081E+02  0.33014535022E+02  0.51100000000E-03 0.  1.
        -12    1    3    3    0    0 -0.11567358291E+02 -0.11022458204E+02 -0.40624963418E+00  0.15983222499E+02  0.00000000000E+00 0.  1.
</event>
<event>
 7    1  0.6593656E-013  0.5930190E+02  0.7816164E-02  0.1266605E+00
        -11   -1    0    0    0    0  0.00000000000E+00  0.00000000000E+00  0.45593999997E+02  0.45594000000E+02  0.51100000000E-03 0. -1.
         11   -1    0    0    0    0 -0.00000000000E+00 -0.00000000000E+00 -0.45593999997E+02  0.45594000000E+02  0.51100000000E-03 0.  1.
    9900012    2    1    2    0    0  0.26703504329E+02  0.19121512588E+01 -0.17320224010E+02  0.59301896041E+02  0.49999912484E+02 0.  0.
         12    1    1    2    0    0 -0.26703504329E+02 -0.19121512588E+01  0.17320224010E+02  0.31886103959E+02  0.00000000000E+00 0. -1.
         11    1    3    3    0    0  0.37027243457E+01 -0.52823694998E+01 -0.21345271749E+02  0.22298749324E+02  0.51100000000E-03 0. -1.
        -11    1    3    3    0    0  0.32712179984E+01  0.12975458606E+02 -0.53450623336E+01  0.14409478992E+02  0.51100000000E-03 0.  1.
        -12    1    3    3    0    0  0.19729561985E+02 -0.57809378469E+01  0.93701100721E+01  0.22593667725E+02  0.00000000000E+00 0.  1.
</event>
<event>
 7    1  0.6593656E-013  0.5930195E+02  0.7816164E-02  0.1266605E+00
        -11   -1    0    0    0    0  0.00000000000E+00  0.00000000000E+00  0.45593999997E+02  0.45594000000E+02  0.51100000000E-03 0.  1.
         11   -1    0    0    0    0 -0.00000000000E+00 -0.00000000000E+00 -0.45593999997E+02  0.45594000000E+02  0.51100000000E-03 0. -1.
    9900012    2    1    2    0    0 -0.31682173724E+02  0.14390720461E+00  0.35970907443E+01  0.59301954416E+02  0.50000018945E+02 0.  0.
         12    1    1    2    0    0  0.31682173724E+02 -0.14390720461E+00 -0.35970907443E+01  0.31886045584E+02  0.00000000000E+00 0. -1.
         11    1    3    3    0    0 -0.10729149027E+02 -0.69545206354E+01 -0.25060963613E+01  0.13029217757E+02  0.51100000000E-03 0. -1.
        -11    1    3    3    0    0 -0.21731509616E+02 -0.42723008927E+01 -0.11765506335E+02  0.25078640407E+02  0.51100000000E-03 0.  1.
         12    1    3    3    0    0  0.77848491871E+00  0.11370728733E+02  0.17868693440E+02  0.21194096252E+02  0.00000000000E+00 0. -1.
</event>
<event>
 7    1  0.6593656E-013  0.5930198E+02  0.7816164E-02  0.1266605E+00
        -11   -1    0    0    0    0  0.00000000000E+00  0.00000000000E+00  0.45593999997E+02  0.45594000000E+02  0.51100000000E-03 0.  1.
         11   -1    0    0    0    0 -0.00000000000E+00 -0.00000000000E+00 -0.45593999997E+02  0.45594000000E+02  0.51100000000E-03 0. -1.
    9900012    2    1    2    0    0  0.14484519352E+02 -0.18167084366E+02  0.21837445284E+02  0.59301979995E+02  0.50000065595E+02 0.  0.
         12    1    1    2    0    0 -0.14484519352E+02  0.18167084366E+02 -0.21837445284E+02  0.31886020005E+02  0.00000000000E+00 0. -1.
         11    1    3    3    0    0 -0.24333906383E+01 -0.71889872233E+01 -0.66629386639E+01  0.10099390041E+02  0.51100000000E-03 0. -1.
        -11    1    3    3    0    0 -0.87764826734E+01 -0.29544712726E+01 -0.94389034430E+00  0.93084089866E+01  0.51100000000E-03 0.  1.
        -12    1    3    3    0    0  0.25694392664E+02 -0.80236258699E+01  0.29444274293E+02  0.39894180968E+02  0.00000000000E+00 0.  1.
</event>
<event>
 7    1  0.6593656E-013  0.5930195E+02  0.7816164E-02  0.1266605E+00
        -11   -1    0    0    0    0  0.00000000000E+00  0.00000000000E+00  0.45593999997E+02  0.45594000000E+02  0.51100000000E-03 0. -1.
         11   -1    0    0    0    0 -0.00000000000E+00 -0.00000000000E+00 -0.45593999997E+02  0.45594000000E+02  0.51100000000E-03 0.  1.
    9900012    2    1    2    0    0 -0.24861019384E+02  0.45661851015E+01 -0.19437078598E+02  0.59301947319E+02  0.50000006002E+02 0.  0.
         12    1    1    2    0    0  0.24861019384E+02 -0.45661851015E+01  0.19437078598E+02  0.31886052681E+02  0.00000000000E+00 0. -1.
         11    1    3    3    0    0 -0.20343189186E+01 -0.12001352256E+02  0.85961392269E+01  0.14901829394E+02  0.51100000000E-03 0. -1.
        -11    1    3    3    0    0 -0.10475422374E+02  0.36847067885E+01  0.74702685806E-01  0.11104824122E+02  0.51100000000E-03 0.  1.
        -12    1    3    3    0    0 -0.12351278091E+02  0.12882830569E+02 -0.28107920511E+02  0.33295293802E+02  0.00000000000E+00 0.  1.
</event>
<event>
 7    1  0.6593656E-013  0.5930194E+02  0.7816164E-02  0.1266605E+00
        -11   -1    0    0    0    0  0.00000000000E+00  0.00000000000E+00  0.45593999997E+02  0.45594000000E+02  0.51100000000E-03 0.  1.
         11   -1    0    0    0    0 -0.00000000000E+00 -0.00000000000E+00 -0.45593999997E+02  0.45594000000E+02  0.51100000000E-03 0. -1.
    9900012    2    1    2    0    0  0.13943078470E+02 -0.28237812580E+02  0.49937399544E+01  0.59301938229E+02  0.49999989425E+02 0.  0.
         12    1    1    2    0    0 -0.13943078470E+02  0.28237812580E+02 -0.49937399544E+01  0.31886061771E+02  0.00000000000E+00 0. -1.
         11    1    3    3    0    0 -0.70300871089E+01 -0.77812979383E+01 -0.18000215913E+01  0.10640056407E+02  0.51100000000E-03 0. -1.
        -11    1    3    3    0    0  0.25077859846E+02 -0.25760795151E+02 -0.37700867329E+01  0.36148736845E+02  0.51100000000E-03 0.  1.
         12    1    3    3    0    0 -0.41046942669E+01  0.53042805093E+01  0.10563848279E+02  0.12513144976E+02  0.00000000000E+00 0. -1.
</event>
<event>
 7    1  0.6593656E-013  0.5930194E+02  0.7816164E-02  0.1266605E+00
        -11   -1    0    0    0    0  0.00000000000E+00  0.00000000000E+00  0.45593999997E+02  0.45594000000E+02  0.51100000000E-03 0.  1.
         11   -1    0    0    0    0 -0.00000000000E+00 -0.00000000000E+00 -0.45593999997E+02  0.45594000000E+02  0.51100000000E-03 0. -1.
    9900012    2    1    2    0    0  0.21189026375E+02  0.11819475712E+02  0.20689271813E+02  0.59301940147E+02  0.49999992922E+02 0.  0.
         12    1    1    2    0    0 -0.21189026375E+02 -0.11819475712E+02 -0.20689271813E+02  0.31886059853E+02  0.00000000000E+00 0. -1.
         11    1    3    3    0    0 -0.25293421026E+01  0.99112015403E+01  0.94224754713E+01  0.13907283405E+02  0.51100000000E-03 0. -1.
        -11    1    3    3    0    0 -0.47122738649E+01  0.12569110803E+02  0.54026763649E+01  0.14469864668E+02  0.51100000000E-03 0.  1.
        -12    1    3    3    0    0  0.28430642342E+02 -0.10660836631E+02  0.58641199769E+01  0.30924792073E+02  0.00000000000E+00 0.  1.
</event>
<event>
 7    1  0.6593656E-013  0.5930194E+02  0.7816164E-02  0.1266605E+00
        -11   -1    0    0    0    0  0.00000000000E+00  0.00000000000E+00  0.45593999997E+02  0.45594000000E+02  0.51100000000E-03 0.  1.
         11   -1    0    0    0    0 -0.00000000000E+00 -0.00000000000E+00 -0.45593999997E+02  0.45594000000E+02  0.51100000000E-03 0. -1.
    9900012    2    1    2    0    0  0.75767055157E+01 -0.28770219792E+02  0.11471205818E+02  0.59301943859E+02  0.49999999692E+02 0.  0.
         12    1    1    2    0    0 -0.75767055157E+01  0.28770219792E+02 -0.11471205818E+02  0.31886056141E+02  0.00000000000E+00 0. -1.
         11    1    3    3    0    0 -0.11454294460E+02 -0.20689798408E+02  0.20813607905E+01  0.23740275541E+02  0.51100000000E-03 0. -1.
        -11    1    3    3    0    0  0.42411293155E+01 -0.16666811465E+02  0.47112591970E+01  0.17831594033E+02  0.51100000000E-03 0.  1.
        -12    1    3    3    0    0  0.14789870660E+02  0.85863900816E+01  0.46785858302E+01  0.17730074285E+02  0.00000000000E+00 0.  1.
</event>
<event>
 7    1  0.6593656E-013  0.5930189E+02  0.7816164E-02  0.1266605E+00
        -11   -1    0    0    0    0  0.00000000000E+00  0.00000000000E+00  0.45593999997E+02  0.45594000000E+02  0.51100000000E-03 0.  1.
         11   -1    0    0    0    0 -0.00000000000E+00 -0.00000000000E+00 -0.45593999997E+02  0.45594000000E+02  0.51100000000E-03 0. -1.
    9900012    2    1    2    0    0  0.86374234363E+01  0.18759678028E+02  0.24293896138E+02  0.59301890282E+02  0.49999901982E+02 0.  0.
         12    1    1    2    0    0 -0.86374234363E+01 -0.18759678028E+02 -0.24293896138E+02  0.31886109718E+02  0.00000000000E+00 0. -1.
         11    1    3    3    0    0 -0.59306955918E+01  0.15143463921E+02 -0.83916004384E+01  0.18300726978E+02  0.51100000000E-03 0. -1.
        -11    1    3    3    0    0  0.10549547023E+02  0.10083418684E+02  0.11787638487E+02  0.18759442852E+02  0.51100000000E-03 0.  1.
        -12    1    3    3    0    0  0.40185720049E+01 -0.64672045764E+01  0.20897858089E+02  0.22241720453E+02  0.00000000000E+00 0.  1.
</event>
<event>
 7    1  0.6593656E-013  0.5930195E+02  0.7816164E-02  0.1266605E+00
        -11   -1    0    0    0    0  0.00000000000E+00  0.00000000000E+00  0.45593999997E+02  0.45594000000E+02  0.51100000000E-03 0.  1.
         11   -1    0    0    0    0 -0.00000000000E+00 -0.00000000000E+00 -0.45593999997E+02  0.45594000000E+02  0.51100000000E-03 0. -1.
    9900012    2    1    2    0    0 -0.27103956912E+02 -0.14414740834E+02  0.86203859490E+01  0.59301948387E+02  0.50000007949E+02 0.  0.
         12    1    1    2    0    0  0.27103956912E+02  0.14414740834E+02 -0.86203859490E+01  0.31886051613E+02  0.00000000000E+00 0. -1.
         11    1    3    3    0    0  0.88492179355E+01 -0.25705925674E+01 -0.34965999434E+01  0.98561055007E+01  0.51100000000E-03 0. -1.
        -11    1    3    3    0    0 -0.12063566695E+02 -0.90266616169E+01 -0.89030302273E+01  0.17500691668E+02  0.51100000000E-03 0.  1.
        -12    1    3    3    0    0 -0.23889608152E+02 -0.28174866498E+01  0.21020016120E+02  0.31945151218E+02  0.00000000000E+00 0.  1.
</event>
<event>
 7    1  0.6593656E-013  0.5930184E+02  0.7816164E-02  0.1266605E+00
        -11   -1    0    0    0    0  0.00000000000E+00  0.00000000000E+00  0.45593999997E+02  0.45594000000E+02  0.51100000000E-03 0. -1.
         11   -1    0    0    0    0 -0.00000000000E+00 -0.00000000000E+00 -0.45593999997E+02  0.45594000000E+02  0.51100000000E-03 0.  1.
    9900012    2    1    2    0    0  0.86822079092E+01 -0.18861936812E+02 -0.24198632991E+02  0.59301839473E+02  0.49999809318E+02 0.  0.
         12    1    1    2    0    0 -0.86822079092E+01  0.18861936812E+02  0.24198632991E+02  0.31886160527E+02  0.00000000000E+00 0. -1.
         11    1    3    3    0    0 -0.35074792336E+01 -0.17377330513E+02 -0.28514948461E+02  0.33576424948E+02  0.51100000000E-03 0.  1.
        -11    1    3    3    0    0 -0.59681375426E+01 -0.16258997786E+01  0.43585704076E+01  0.75669909526E+01  0.51100000000E-03 0. -1.
        -12    1    3    3    0    0  0.18157824685E+02  0.14129347921E+00 -0.42254937878E-01  0.18158423572E+02  0.00000000000E+00 0.  1.
</event>
<event>
 7    1  0.6593656E-013  0.5930205E+02  0.7816164E-02  0.1266604E+00
        -11   -1    0    0    0    0  0.00000000000E+00  0.00000000000E+00  0.45593999997E+02  0.45594000000E+02  0.51100000000E-03 0.  1.
         11   -1    0    0    0    0 -0.00000000000E+00 -0.00000000000E+00 -0.45593999997E+02  0.45594000000E+02  0.51100000000E-03 0. -1.
    9900012    2    1    2    0    0 -0.18294966143E+02 -0.37275125955E-01  0.26115256618E+02  0.59302050056E+02  0.50000193370E+02 0.  0.
         12    1    1    2    0    0  0.18294966143E+02  0.37275125955E-01 -0.26115256618E+02  0.31885949944E+02  0.00000000000E+00 0. -1.
         11    1    3    3    0    0 -0.78892668903E+01 -0.48984093572E+01  0.17124352390E+01  0.94428481406E+01  0.51100000000E-03 0.  1.
        -11    1    3    3    0    0 -0.24697160566E+02 -0.54887383037E+01  0.18157067098E+02  0.31140890707E+02  0.51100000000E-03 0. -1.
        -12    1    3    3    0    0  0.14291461313E+02  0.10349872535E+02  0.62457542813E+01  0.18718311209E+02  0.00000000000E+00 0.  1.
</event>
<event>
 7    1  0.6593656E-013  0.5930193E+02  0.7816164E-02  0.1266605E+00
        -11   -1    0    0    0    0  0.00000000000E+00  0.00000000000E+00  0.45593999997E+02  0.45594000000E+02  0.51100000000E-03 0.  1.
         11   -1    0    0    0    0 -0.00000000000E+00 -0.00000000000E+00 -0.45593999997E+02  0.45594000000E+02  0.51100000000E-03 0. -1.
    9900012    2    1    2    0    0  0.13434371426E+02  0.15877397283E+02  0.24169136517E+02  0.59301933449E+02  0.49999980707E+02 0.  0.
         12    1    1    2    0    0 -0.13434371426E+02 -0.15877397283E+02 -0.24169136517E+02  0.31886066551E+02  0.00000000000E+00 0. -1.
         11    1    3    3    0    0 -0.52073356440E+01  0.14086984542E+02  0.54783398701E+01  0.15986609584E+02  0.51100000000E-03 0. -1.
        -11    1    3    3    0    0  0.19774625606E+02  0.13100363015E+02  0.29551134103E+01  0.23903724072E+02  0.51100000000E-03 0.  1.
         12    1    3    3    0    0 -0.11329185361E+01 -0.11309950274E+02  0.15735683237E+02  0.19411599793E+02  0.00000000000E+00 0. -1.
</event>
<event>
 7    1  0.6593656E-013  0.5930194E+02  0.7816164E-02  0.1266605E+00
        -11   -1    0    0    0    0  0.00000000000E+00  0.00000000000E+00  0.45593999997E+02  0.45594000000E+02  0.51100000000E-03 0.  1.
         11   -1    0    0    0    0 -0.00000000000E+00 -0.00000000000E+00 -0.45593999997E+02  0.45594000000E+02  0.51100000000E-03 0. -1.
    9900012    2    1    2    0    0  0.18991263364E+02 -0.25204031977E+02  0.45617654726E+01  0.59301936959E+02  0.49999987108E+02 0.  0.
         12    1    1    2    0    0 -0.18991263364E+02  0.25204031977E+02 -0.45617654726E+01  0.31886063041E+02  0.00000000000E+00 0. -1.
         11    1    3    3    0    0  0.27369681324E+01 -0.72951070348E+01 -0.51655328033E+01  0.93483854547E+01  0.51100000000E-03 0.  1.
        -11    1    3    3    0    0  0.18126759613E+02 -0.25231471830E+02  0.20185965945E+02  0.37049693740E+02  0.51100000000E-03 0. -1.
         12    1    3    3    0    0 -0.18724643818E+01  0.73225468885E+01 -0.10458667669E+02  0.12903857765E+02  0.00000000000E+00 0. -1.
</event>
<event>
 7    1  0.6593656E-013  0.5930196E+02  0.7816164E-02  0.1266605E+00
        -11   -1    0    0    0    0  0.00000000000E+00  0.00000000000E+00  0.45593999997E+02  0.45594000000E+02  0.51100000000E-03 0.  1.
         11   -1    0    0    0    0 -0.00000000000E+00 -0.00000000000E+00 -0.45593999997E+02  0.45594000000E+02  0.51100000000E-03 0. -1.
    9900012    2    1    2    0    0  0.59888539835E+01  0.31316302213E+02  0.37711603780E+00  0.59301962729E+02  0.50000034107E+02 0.  0.
         12    1    1    2    0    0 -0.59888539835E+01 -0.31316302213E+02 -0.37711603780E+00  0.31886037271E+02  0.00000000000E+00 0. -1.
         11    1    3    3    0    0  0.20284182111E+01 -0.84509716244E+00  0.12098291453E+02  0.12296232187E+02  0.51100000000E-03 0. -1.
        -11    1    3    3    0    0 -0.58912476361E+01 -0.29726486888E+01 -0.79356549428E+01  0.10320758624E+02  0.51100000000E-03 0.  1.
        -12    1    3    3    0    0  0.98516834085E+01  0.35134048064E+02 -0.37855204727E+01  0.36684971918E+02  0.00000000000E+00 0.  1.
</event>
<event>
 7    1  0.6593656E-013  0.5930195E+02  0.7816164E-02  0.1266605E+00
        -11   -1    0    0    0    0  0.00000000000E+00  0.00000000000E+00  0.45593999997E+02  0.45594000000E+02  0.51100000000E-03 0. -1.
         11   -1    0    0    0    0 -0.00000000000E+00 -0.00000000000E+00 -0.45593999997E+02  0.45594000000E+02  0.51100000000E-03 0.  1.
    9900012    2    1    2    0    0 -0.22207582356E+02 -0.22712784980E+02 -0.27699877667E+01  0.59301950575E+02  0.50000011941E+02 0.  0.
         12    1    1    2    0    0  0.22207582356E+02  0.22712784980E+02  0.27699877667E+01  0.31886049425E+02  0.00000000000E+00 0. -1.
         11    1    3    3    0    0  0.14044201312E+01 -0.22192665730E+01 -0.40776180081E+01  0.48502070995E+01  0.51100000000E-03 0. -1.
        -11    1    3    3    0    0 -0.30167321037E+01  0.76840267916E+01 -0.14069613429E+02  0.16312540042E+02  0.51100000000E-03 0.  1.
         12    1    3    3    0    0 -0.20595270384E+02 -0.28177545199E+02  0.15377243671E+02  0.38139203434E+02  0.00000000000E+00 0. -1.
</event>
<event>
 7    1  0.6593656E-013  0.5930196E+02  0.7816164E-02  0.1266605E+00
        -11   -1    0    0    0    0  0.00000000000E+00  0.00000000000E+00  0.45593999997E+02  0.45594000000E+02  0.51100000000E-03 0.  1.
         11   -1    0    0    0    0 -0.00000000000E+00 -0.00000000000E+00 -0.45593999997E+02  0.45594000000E+02  0.51100000000E-03 0. -1.
    9900012    2    1    2    0    0 -0.11161916824E+02  0.10421785983E+02  0.27991379643E+02  0.59301963173E+02  0.50000034916E+02 0.  0.
         12    1    1    2    0    0  0.11161916824E+02 -0.10421785983E+02 -0.27991379643E+02  0.31886036827E+02  0.00000000000E+00 0. -1.
         11    1    3    3    0    0 -0.48829322524E+01 -0.15505803671E+02 -0.23518433843E+01  0.16425715888E+02  0.51100000000E-03 0. -1.
        -11    1    3    3    0    0 -0.55954822309E+01  0.35512523894E+01  0.12875574885E+02  0.14481065010E+02  0.51100000000E-03 0.  1.
        -12    1    3    3    0    0 -0.68350234061E+00  0.22376337265E+02  0.17467648141E+02  0.28395182275E+02  0.00000000000E+00 0.  1.
</event>
<event>
 7    1  0.6593656E-013  0.5930194E+02  0.7816164E-02  0.1266605E+00
        -11   -1    0    0    0    0  0.00000000000E+00  0.00000000000E+00  0.45593999997E+02  0.45594000000E+02  0.51100000000E-03 0.  1.
         11   -1    0    0    0    0 -0.00000000000E+00 -0.00000000000E+00 -0.45593999997E+02  0.45594000000E+02  0.51100000000E-03 0. -1.
    9900012    2    1    2    0    0  0.80443384871E+01 -0.38623420398E+01  0.30611954329E+02  0.59301940106E+02  0.49999992848E+02 0.  0.
         12    1    1    2    0    0 -0.80443384871E+01  0.38623420398E+01 -0.30611954329E+02  0.31886059894E+02  0.00000000000E+00 0. -1.
         11    1    3    3    0    0  0.34943849281E+01 -0.17021321965E+02  0.82629066049E-01  0.17376505842E+02  0.51100000000E-03 0. -1.
        -11    1    3    3    0    0  0.11694817694E+02  0.17926627347E+01  0.24502148521E+02  0.27209147047E+02  0.51100000000E-03 0.  1.
        -12    1    3    3    0    0 -0.71448641350E+01  0.11366317190E+02  0.60271767415E+01  0.14716287217E+02  0.00000000000E+00 0.  1.
</event>
<event>
 7    1  0.6593656E-013  0.5930190E+02  0.7816164E-02  0.1266605E+00
        -11   -1    0    0    0    0  0.00000000000E+00  0.00000000000E+00  0.45593999997E+02  0.45594000000E+02  0.51100000000E-03 0.  1.
         11   -1    0    0    0    0 -0.00000000000E+00 -0.00000000000E+00 -0.45593999997E+02  0.45594000000E+02  0.51100000000E-03 0. -1.
    9900012    2    1    2    0    0  0.10879678319E+02  0.19271693841E+02  0.22955557092E+02  0.59301902947E+02  0.49999925079E+02 0.  0.
         12    1    1    2    0    0 -0.10879678319E+02 -0.19271693841E+02 -0.22955557092E+02  0.31886097053E+02  0.00000000000E+00 0. -1.
         11    1    3    3    0    0  0.27060912382E+01 -0.54252115001E+01 -0.46166952754E+01  0.76203494105E+01  0.51100000000E-03 0. -1.
        -11    1    3    3    0    0  0.19932037999E+02  0.49700336915E+01  0.10533190048E+02  0.23085395092E+02  0.51100000000E-03 0.  1.
         12    1    3    3    0    0 -0.11758450918E+02  0.19726871650E+02  0.17039062320E+02  0.28596158445E+02  0.00000000000E+00 0. -1.
</event>
<event>
 7    1  0.6593656E-013  0.5930196E+02  0.7816164E-02  0.1266605E+00
        -11   -1    0    0    0    0  0.00000000000E+00  0.00000000000E+00  0.45593999997E+02  0.45594000000E+02  0.51100000000E-03 0. -1.
         11   -1    0    0    0    0 -0.00000000000E+00 -0.00000000000E+00 -0.45593999997E+02  0.45594000000E+02  0.51100000000E-03 0.  1.
    9900012    2    1    2    0    0 -0.29219166018E+00 -0.91006152907E+01 -0.30558354678E+02  0.59301958928E+02  0.50000027174E+02 0.  0.
         12    1    1    2    0    0  0.29219166018E+00  0.91006152907E+01  0.30558354678E+02  0.31886041072E+02  0.00000000000E+00 0. -1.
         11    1    3    3    0    0  0.59835470480E+01 -0.31452280402E+01  0.36137432064E+01  0.76651441555E+01  0.51100000000E-03 0. -1.
        -11    1    3    3    0    0  0.55821252271E+01 -0.14587418504E+02 -0.13385516239E+01  0.15676243854E+02  0.51100000000E-03 0.  1.
         12    1    3    3    0    0 -0.11857863935E+02  0.86320312539E+01 -0.32833546261E+02  0.35960570918E+02  0.00000000000E+00 0. -1.
</event>
<event>
 7    1  0.6593656E-013  0.5930198E+02  0.7816164E-02  0.1266605E+00
        -11   -1    0    0    0    0  0.00000000000E+00  0.00000000000E+00  0.45593999997E+02  0.45594000000E+02  0.51100000000E-03 0. -1.
         11   -1    0    0    0    0 -0.00000000000E+00 -0.00000000000E+00 -0.45593999997E+02  0.45594000000E+02  0.51100000000E-03 0.  1.
    9900012    2    1    2    0    0  0.21386269931E+02 -0.12585263622E+02 -0.20023901331E+02  0.59301983841E+02  0.50000072610E+02 0.  0.
         12    1    1    2    0    0 -0.21386269931E+02  0.12585263622E+02  0.20023901331E+02  0.31886016159E+02  0.00000000000E+00 0. -1.
         11    1    3    3    0    0  0.19494435512E+02  0.68328458733E+01 -0.57665745205E+01  0.21447008663E+02  0.51100000000E-03 0. -1.
        -11    1    3    3    0    0 -0.57047187237E+01 -0.62762703441E+01 -0.19922560769E+02  0.21652801504E+02  0.51100000000E-03 0.  1.
         12    1    3    3    0    0  0.75965531434E+01 -0.13141839151E+02  0.56652339585E+01  0.16202173673E+02  0.00000000000E+00 0. -1.
</event>
<event>
 7    1  0.6593656E-013  0.5930193E+02  0.7816164E-02  0.1266605E+00
        -11   -1    0    0    0    0  0.00000000000E+00  0.00000000000E+00  0.45593999997E+02  0.45594000000E+02  0.51100000000E-03 0. -1.
         11   -1    0    0    0    0 -0.00000000000E+00 -0.00000000000E+00 -0.45593999997E+02  0.45594000000E+02  0.51100000000E-03 0.  1.
    9900012    2    1    2    0    0  0.11563563742E+02 -0.13617021714E+02 -0.26411784048E+02  0.59301927439E+02  0.49999969745E+02 0.  0.
         12    1    1    2    0    0 -0.11563563742E+02  0.13617021714E+02  0.26411784048E+02  0.31886072561E+02  0.00000000000E+00 0. -1.
         11    1    3    3    0    0 -0.90240109122E+01  0.21753966703E+01 -0.54699711885E+00  0.92986197753E+01  0.51100000000E-03 0. -1.
        -11    1    3    3    0    0  0.10371974352E+02 -0.26192497869E+02 -0.15951710329E+02  0.32374092408E+02  0.51100000000E-03 0.  1.
         12    1    3    3    0    0  0.10215600303E+02  0.10400079485E+02 -0.99130766000E+01  0.17629215255E+02  0.00000000000E+00 0. -1.
</event>
<event>
 7    1  0.6593656E-013  0.5930195E+02  0.7816164E-02  0.1266605E+00
        -11   -1    0    0    0    0  0.00000000000E+00  0.00000000000E+00  0.45593999997E+02  0.45594000000E+02  0.51100000000E-03 0. -1.
         11   -1    0    0    0    0 -0.00000000000E+00 -0.00000000000E+00 -0.45593999997E+02  0.45594000000E+02  0.51100000000E-03 0.  1.
    9900012    2    1    2    0    0  0.15182809431E+02  0.12366883208E+00 -0.28039035270E+02  0.59301945131E+02  0.50000002013E+02 0.  0.
         12    1    1    2    0    0 -0.15182809431E+02 -0.12366883208E+00  0.28039035270E+02  0.31886054869E+02  0.00000000000E+00 0. -1.
         11    1    3    3    0    0  0.14602067933E+02  0.16312981362E+02 -0.17422708981E+02  0.27980073933E+02  0.51100000000E-03 0. -1.
        -11    1    3    3    0    0  0.59963252694E+01  0.35886995854E+01 -0.80433056347E+01  0.10655019814E+02  0.51100000000E-03 0.  1.
         12    1    3    3    0    0 -0.54155837712E+01 -0.19778012115E+02 -0.25730206549E+01  0.20666851383E+02  0.00000000000E+00 0. -1.
</event>
<event>
 7    1  0.6593656E-013  0.5930196E+02  0.7816164E-02  0.1266605E+00
        -11   -1    0    0    0    0  0.00000000000E+00  0.00000000000E+00  0.45593999997E+02  0.45594000000E+02  0.51100000000E-03 0. -1.
         11   -1    0    0    0    0 -0.00000000000E+00 -0.00000000000E+00 -0.45593999997E+02  0.45594000000E+02  0.51100000000E-03 0.  1.
    9900012    2    1    2    0    0 -0.70527604495E+01 -0.18748004538E+02 -0.24809079409E+02  0.59301960340E+02  0.50000029749E+02 0.  0.
         12    1    1    2    0    0  0.70527604495E+01  0.18748004538E+02  0.24809079409E+02  0.31886039660E+02  0.00000000000E+00 0. -1.
         11    1    3    3    0    0  0.15248732108E+02  0.25453178880E+00 -0.10778948418E+01  0.15288900382E+02  0.51100000000E-03 0. -1.
        -11    1    3    3    0    0 -0.11105140458E+02  0.35862182095E+01 -0.96027447515E+01  0.15112836023E+02  0.51100000000E-03 0.  1.
        -12    1    3    3    0    0 -0.11196352100E+02 -0.22588754536E+02 -0.14128439816E+02  0.28900223934E+02  0.00000000000E+00 0.  1.
</event>
<event>
 7    1  0.6593656E-013  0.5930196E+02  0.7816164E-02  0.1266605E+00
        -11   -1    0    0    0    0  0.00000000000E+00  0.00000000000E+00  0.45593999997E+02  0.45594000000E+02  0.51100000000E-03 0. -1.
         11   -1    0    0    0    0 -0.00000000000E+00 -0.00000000000E+00 -0.45593999997E+02  0.45594000000E+02  0.51100000000E-03 0.  1.
    9900012    2    1    2    0    0 -0.65315720604E+01  0.28437682414E+02  0.12859102871E+02  0.59301956951E+02  0.50000023569E+02 0.  0.
         12    1    1    2    0    0  0.65315720604E+01 -0.28437682414E+02 -0.12859102871E+02  0.31886043049E+02  0.00000000000E+00 0. -1.
         11    1    3    3    0    0 -0.11375538872E+02  0.17322147794E+02  0.16447723729E+02  0.26457273195E+02  0.51100000000E-03 0. -1.
        -11    1    3    3    0    0 -0.68390302727E+01  0.15834524026E+02 -0.86137301305E+01  0.19279544425E+02  0.51100000000E-03 0.  1.
        -12    1    3    3    0    0  0.11682997084E+02 -0.47189894051E+01  0.50251092730E+01  0.13565139331E+02  0.00000000000E+00 0.  1.
</event>
<event>
 7    1  0.6593656E-013  0.5930196E+02  0.7816164E-02  0.1266605E+00
        -11   -1    0    0    0    0  0.00000000000E+00  0.00000000000E+00  0.45593999997E+02  0.45594000000E+02  0.51100000000E-03 0.  1.
         11   -1    0    0    0    0 -0.00000000000E+00 -0.00000000000E+00 -0.45593999997E+02  0.45594000000E+02  0.51100000000E-03 0. -1.
    9900012    2    1    2    0    0 -0.18628260322E+02 -0.11437246836E+02  0.23214150141E+02  0.59301961291E+02  0.50000031483E+02 0.  0.
         12    1    1    2    0    0  0.18628260322E+02  0.11437246836E+02 -0.23214150141E+02  0.31886038709E+02  0.00000000000E+00 0. -1.
         11    1    3    3    0    0 -0.19961941480E+02 -0.19002731501E+02  0.21739359549E+02  0.35102459543E+02  0.51100000000E-03 0. -1.
        -11    1    3    3    0    0  0.78155584389E+01 -0.41535510240E+01  0.52432569776E+01  0.10287209720E+02  0.51100000000E-03 0.  1.
        -12    1    3    3    0    0 -0.64818772813E+01  0.11719035689E+02 -0.37684663851E+01  0.13912292028E+02  0.00000000000E+00 0.  1.
</event>
<event>
 7    1  0.6593656E-013  0.5930194E+02  0.7816164E-02  0.1266605E+00
        -11   -1    0    0    0    0  0.00000000000E+00  0.00000000000E+00  0.45593999997E+02  0.45594000000E+02  0.51100000000E-03 0.  1.
         11   -1    0    0    0    0 -0.00000000000E+00 -0.00000000000E+00 -0.45593999997E+02  0.45594000000E+02  0.51100000000E-03 0. -1.
    9900012    2    1    2    0    0  0.12741217591E+02  0.27261226840E+02 -0.10545511807E+02  0.59301938252E+02  0.49999989467E+02 0.  0.
         12    1    1    2    0    0 -0.12741217591E+02 -0.27261226840E+02  0.10545511807E+02  0.31886061748E+02  0.00000000000E+00 0. -1.
         11    1    3    3    0    0 -0.61621126940E+01 -0.12238994657E+01  0.22574488778E+01  0.66757500292E+01  0.51100000000E-03 0. -1.
        -11    1    3    3    0    0  0.18260184298E+02 -0.20185719657E+01  0.24178157932E+01  0.18529835316E+02  0.51100000000E-03 0.  1.
         12    1    3    3    0    0  0.64314598753E+00  0.30503698271E+02 -0.15220776478E+02  0.34096352907E+02  0.00000000000E+00 0. -1.
</event>
<event>
 7    1  0.6593656E-013  0.5930194E+02  0.7816164E-02  0.1266605E+00
        -11   -1    0    0    0    0  0.00000000000E+00  0.00000000000E+00  0.45593999997E+02  0.45594000000E+02  0.51100000000E-03 0.  1.
         11   -1    0    0    0    0 -0.00000000000E+00 -0.00000000000E+00 -0.45593999997E+02  0.45594000000E+02  0.51100000000E-03 0. -1.
    9900012    2    1    2    0    0 -0.10100998269E+02  0.15551342381E+02  0.25939283487E+02  0.59301939664E+02  0.49999992043E+02 0.  0.
         12    1    1    2    0    0  0.10100998269E+02 -0.15551342381E+02 -0.25939283487E+02  0.31886060336E+02  0.00000000000E+00 0. -1.
         11    1    3    3    0    0 -0.20787022471E+02  0.23674634818E+02  0.13974754083E+02  0.34465669715E+02  0.51100000000E-03 0. -1.
        -11    1    3    3    0    0  0.44641866402E+01  0.53087246439E+01  0.32662160700E+01  0.76667912050E+01  0.51100000000E-03 0.  1.
        -12    1    3    3    0    0  0.62218375615E+01 -0.13432017081E+02  0.86983133344E+01  0.17169478745E+02  0.00000000000E+00 0.  1.
</event>
<event>
 7    1  0.6593656E-013  0.5930194E+02  0.7816164E-02  0.1266605E+00
        -11   -1    0    0    0    0  0.00000000000E+00  0.00000000000E+00  0.45593999997E+02  0.45594000000E+02  0.51100000000E-03 0. -1.
         11   -1    0    0    0    0 -0.00000000000E+00 -0.00000000000E+00 -0.45593999997E+02  0.45594000000E+02  0.51100000000E-03 0.  1.
    9900012    2    1    2    0    0 -0.80731233936E+01  0.30795318509E+02  0.17872157107E+01  0.59301935592E+02  0.49999984616E+02 0.  0.
         12    1    1    2    0    0  0.80731233936E+01 -0.30795318509E+02 -0.17872157107E+01  0.31886064408E+02  0.00000000000E+00 0. -1.
         11    1    3    3    0    0  0.24090835872E+01  0.26142126285E+01 -0.90496430187E+01  0.97228509411E+01  0.51100000000E-03 0. -1.
        -11    1    3    3    0    0 -0.10733755589E+02  0.35253130122E+02  0.25838496506E+00  0.36851912508E+02  0.51100000000E-03 0.  1.
         12    1    3    3    0    0  0.25154860839E+00 -0.70720242417E+01  0.10578473764E+02  0.12727172143E+02  0.00000000000E+00 0. -1.
</event>
<event>
 7    1  0.6593656E-013  0.5930193E+02  0.7816164E-02  0.1266605E+00
        -11   -1    0    0    0    0  0.00000000000E+00  0.00000000000E+00  0.45593999997E+02  0.45594000000E+02  0.51100000000E-03 0.  1.
         11   -1    0    0    0    0 -0.00000000000E+00 -0.00000000000E+00 -0.45593999997E+02  0.45594000000E+02  0.51100000000E-03 0. -1.
    9900012    2    1    2    0    0 -0.19366348147E+02  0.21014408667E+02  0.14144278388E+02  0.59301930576E+02  0.49999975468E+02 0.  0.
         12    1    1    2    0    0  0.19366348147E+02 -0.21014408667E+02 -0.14144278388E+02  0.31886069424E+02  0.00000000000E+00 0. -1.
         11    1    3    3    0    0  0.91536185690E+01  0.99886131596E+01 -0.60180113867E+01  0.14824897540E+02  0.51100000000E-03 0. -1.
        -11    1    3    3    0    0 -0.76221005798E+01  0.12321456420E+02 -0.12334138317E+01  0.14540839573E+02  0.51100000000E-03 0.  1.
        -12    1    3    3    0    0 -0.20897866137E+02 -0.12956609125E+01  0.21395703606E+02  0.29936193463E+02  0.00000000000E+00 0.  1.
</event>
<event>
 7    1  0.6593656E-013  0.5930193E+02  0.7816164E-02  0.1266605E+00
        -11   -1    0    0    0    0  0.00000000000E+00  0.00000000000E+00  0.45593999997E+02  0.45594000000E+02  0.51100000000E-03 0.  1.
         11   -1    0    0    0    0 -0.00000000000E+00 -0.00000000000E+00 -0.45593999997E+02  0.45594000000E+02  0.51100000000E-03 0. -1.
    9900012    2    1    2    0    0 -0.29398462768E+02  0.55378936205E+01  0.11035562593E+02  0.59301929050E+02  0.49999972684E+02 0.  0.
         12    1    1    2    0    0  0.29398462768E+02 -0.55378936205E+01 -0.11035562593E+02  0.31886070950E+02  0.00000000000E+00 0. -1.
         11    1    3    3    0    0 -0.14280704166E+02  0.81141742283E+01  0.10134289678E+02  0.19299796953E+02  0.51100000000E-03 0. -1.
        -11    1    3    3    0    0 -0.20398954905E+02  0.54608663975E+01  0.12807104175E+02  0.24697375177E+02  0.51100000000E-03 0.  1.
         12    1    3    3    0    0  0.52811963031E+01 -0.80371470053E+01 -0.11905831260E+02  0.15304756920E+02  0.00000000000E+00 0. -1.
</event>
<event>
 7    1  0.6593656E-013  0.5930201E+02  0.7816164E-02  0.1266605E+00
        -11   -1    0    0    0    0  0.00000000000E+00  0.00000000000E+00  0.45593999997E+02  0.45594000000E+02  0.51100000000E-03 0. -1.
         11   -1    0    0    0    0 -0.00000000000E+00 -0.00000000000E+00 -0.45593999997E+02  0.45594000000E+02  0.51100000000E-03 0.  1.
    9900012    2    1    2    0    0 -0.18138997743E+02  0.26216921502E+02 -0.60526107210E+00  0.59302006945E+02  0.50000114746E+02 0.  0.
         12    1    1    2    0    0  0.18138997743E+02 -0.26216921502E+02  0.60526107210E+00  0.31885993055E+02  0.00000000000E+00 0. -1.
         11    1    3    3    0    0 -0.24091616040E+02  0.17408459043E+02  0.72864983954E+00  0.29731991870E+02  0.51100000000E-03 0. -1.
        -11    1    3    3    0    0 -0.41388671404E+01  0.15908250983E+02  0.25498989783E+01  0.16634441848E+02  0.51100000000E-03 0.  1.
        -12    1    3    3    0    0  0.10091485438E+02 -0.70997885246E+01 -0.38838098900E+01  0.12935573227E+02  0.00000000000E+00 0.  1.
</event>
<event>
 7    1  0.6593656E-013  0.5930194E+02  0.7816164E-02  0.1266605E+00
        -11   -1    0    0    0    0  0.00000000000E+00  0.00000000000E+00  0.45593999997E+02  0.45594000000E+02  0.51100000000E-03 0.  1.
         11   -1    0    0    0    0 -0.00000000000E+00 -0.00000000000E+00 -0.45593999997E+02  0.45594000000E+02  0.51100000000E-03 0. -1.
    9900012    2    1    2    0    0 -0.25269009451E+02 -0.22377834392E+00  0.19446021087E+02  0.59301942679E+02  0.49999997540E+02 0.  0.
         12    1    1    2    0    0  0.25269009451E+02  0.22377834392E+00 -0.19446021087E+02  0.31886057321E+02  0.00000000000E+00 0. -1.
         11    1    3    3    0    0 -0.82470183877E+01 -0.57817378054E+01 -0.88231894081E+00  0.10110405101E+02  0.51100000000E-03 0. -1.
        -11    1    3    3    0    0 -0.28589533193E+02  0.55481923840E+01  0.43205337052E+01  0.29441651766E+02  0.51100000000E-03 0.  1.
         12    1    3    3    0    0  0.11567542130E+02  0.97670774622E-02  0.16007806322E+02  0.19749885812E+02  0.00000000000E+00 0. -1.
</event>
<event>
 7    1  0.6593656E-013  0.5930193E+02  0.7816164E-02  0.1266605E+00
        -11   -1    0    0    0    0  0.00000000000E+00  0.00000000000E+00  0.45593999997E+02  0.45594000000E+02  0.51100000000E-03 0.  1.
         11   -1    0    0    0    0 -0.00000000000E+00 -0.00000000000E+00 -0.45593999997E+02  0.45594000000E+02  0.51100000000E-03 0. -1.
    9900012    2    1    2    0    0  0.24308693071E+02  0.14398530409E+02  0.14781451362E+02  0.59301928729E+02  0.49999972098E+02 0.  0.
         12    1    1    2    0    0 -0.24308693071E+02 -0.14398530409E+02 -0.14781451362E+02  0.31886071271E+02  0.00000000000E+00 0. -1.
         11    1    3    3    0    0  0.78152921429E+01  0.18527970016E+02  0.56195376722E+00  0.20116666137E+02  0.51100000000E-03 0. -1.
        -11    1    3    3    0    0  0.21681112478E+02  0.79284828123E+01  0.11453754427E+02  0.25770525193E+02  0.51100000000E-03 0.  1.
        -12    1    3    3    0    0 -0.51877115499E+01 -0.12057922419E+02  0.27657431679E+01  0.13414737398E+02  0.00000000000E+00 0.  1.
</event>
<event>
 7    1  0.6593656E-013  0.5930194E+02  0.7816164E-02  0.1266605E+00
        -11   -1    0    0    0    0  0.00000000000E+00  0.00000000000E+00  0.45593999997E+02  0.45594000000E+02  0.51100000000E-03 0.  1.
         11   -1    0    0    0    0 -0.00000000000E+00 -0.00000000000E+00 -0.45593999997E+02  0.45594000000E+02  0.51100000000E-03 0. -1.
    9900012    2    1    2    0    0  0.28078637061E+02  0.85928178684E+01  0.12428771587E+02  0.59301941271E+02  0.49999994972E+02 0.  0.
         12    1    1    2    0    0 -0.28078637061E+02 -0.85928178684E+01 -0.12428771587E+02  0.31886058729E+02  0.00000000000E+00 0. -1.
         11    1    3    3    0    0  0.28087843624E+02  0.11632821639E+02 -0.60531580963E+01  0.30998229335E+02  0.51100000000E-03 0. -1.
        -11    1    3    3    0    0 -0.34432887290E+01 -0.77373718905E+01 -0.46668371434E+00  0.84818014002E+01  0.51100000000E-03 0.  1.
        -12    1    3    3    0    0  0.34340821658E+01  0.46973681203E+01  0.18948613398E+02  0.19821910535E+02  0.00000000000E+00 0.  1.
</event>
<event>
 7    1  0.6593656E-013  0.5930194E+02  0.7816164E-02  0.1266605E+00
        -11   -1    0    0    0    0  0.00000000000E+00  0.00000000000E+00  0.45593999997E+02  0.45594000000E+02  0.51100000000E-03 0.  1.
         11   -1    0    0    0    0 -0.00000000000E+00 -0.00000000000E+00 -0.45593999997E+02  0.45594000000E+02  0.51100000000E-03 0. -1.
    9900012    2    1    2    0    0 -0.11331838434E+02 -0.31252166543E+01  0.29640230974E+02  0.59301939823E+02  0.49999992331E+02 0.  0.
         12    1    1    2    0    0  0.11331838434E+02  0.31252166543E+01 -0.29640230974E+02  0.31886060177E+02  0.00000000000E+00 0. -1.
         11    1    3    3    0    0  0.32728696218E+01 -0.49044820191E+01 -0.75628222968E+01  0.95896767824E+01  0.51100000000E-03 0. -1.
        -11    1    3    3    0    0  0.60099168765E+01  0.92603704438E+01  0.12111479089E+02  0.16387845728E+02  0.51100000000E-03 0.  1.
        -12    1    3    3    0    0 -0.20614624932E+02 -0.74811050790E+01  0.25091574182E+02  0.33324417312E+02  0.00000000000E+00 0.  1.
</event>
<event>
 7    1  0.6593656E-013  0.5930194E+02  0.7816164E-02  0.1266605E+00
        -11   -1    0    0    0    0  0.00000000000E+00  0.00000000000E+00  0.45593999997E+02  0.45594000000E+02  0.51100000000E-03 0.  1.
         11   -1    0    0    0    0 -0.00000000000E+00 -0.00000000000E+00 -0.45593999997E+02  0.45594000000E+02  0.51100000000E-03 0. -1.
    9900012    2    1    2    0    0  0.29433795206E+02 -0.11999694982E+02  0.25258934342E+01  0.59301935371E+02  0.49999984212E+02 0.  0.
         12    1    1    2    0    0 -0.29433795206E+02  0.11999694982E+02 -0.25258934342E+01  0.31886064629E+02  0.00000000000E+00 0. -1.
         11    1    3    3    0    0  0.28408704704E+02  0.53094280372E+01 -0.19717399527E+01  0.28967780166E+02  0.51100000000E-03 0. -1.
        -11    1    3    3    0    0  0.47720986041E+01 -0.79014934392E+01 -0.93764081367E+01  0.13157642398E+02  0.51100000000E-03 0.  1.
         12    1    3    3    0    0 -0.37470081015E+01 -0.94076295796E+01  0.13874041524E+02  0.17176512807E+02  0.00000000000E+00 0. -1.
</event>
<event>
 7    1  0.6593656E-013  0.5930195E+02  0.7816164E-02  0.1266605E+00
        -11   -1    0    0    0    0  0.00000000000E+00  0.00000000000E+00  0.45593999997E+02  0.45594000000E+02  0.51100000000E-03 0.  1.
         11   -1    0    0    0    0 -0.00000000000E+00 -0.00000000000E+00 -0.45593999997E+02  0.45594000000E+02  0.51100000000E-03 0. -1.
    9900012    2    1    2    0    0  0.18363444976E+01 -0.30479869550E+02 -0.91829079765E+01  0.59301946500E+02  0.50000004509E+02 0.  0.
         12    1    1    2    0    0 -0.18363444976E+01  0.30479869550E+02  0.91829079765E+01  0.31886053500E+02  0.00000000000E+00 0. -1.
         11    1    3    3    0    0  0.14933480416E+01 -0.24559381345E+02 -0.69689685521E+01  0.25572638177E+02  0.51100000000E-03 0. -1.
        -11    1    3    3    0    0 -0.14478504156E+02 -0.21081604815E+01  0.66195597768E+01  0.16058953736E+02  0.51100000000E-03 0.  1.
         12    1    3    3    0    0  0.14821500612E+02 -0.38123277239E+01 -0.88334992011E+01  0.17670354586E+02  0.00000000000E+00 0. -1.
</event>
<event>
 7    1  0.6593656E-013  0.5930195E+02  0.7816164E-02  0.1266605E+00
        -11   -1    0    0    0    0  0.00000000000E+00  0.00000000000E+00  0.45593999997E+02  0.45594000000E+02  0.51100000000E-03 0.  1.
         11   -1    0    0    0    0 -0.00000000000E+00 -0.00000000000E+00 -0.45593999997E+02  0.45594000000E+02  0.51100000000E-03 0. -1.
    9900012    2    1    2    0    0 -0.21011861050E+02 -0.10898540141E+02  0.21364539668E+02  0.59301952311E+02  0.50000015108E+02 0.  0.
         12    1    1    2    0    0  0.21011861050E+02  0.10898540141E+02 -0.21364539668E+02  0.31886047689E+02  0.00000000000E+00 0. -1.
         11    1    3    3    0    0 -0.43320638715E-01  0.29511427989E+01 -0.97229186496E+00  0.31074864809E+01  0.51100000000E-03 0. -1.
        -11    1    3    3    0    0 -0.32966436275E+02 -0.86469841745E+01  0.49509840359E+01  0.34439345220E+02  0.51100000000E-03 0.  1.
         12    1    3    3    0    0  0.11997895864E+02 -0.52026987650E+01  0.17385847497E+02  0.21755120611E+02  0.00000000000E+00 0. -1.
</event>
<event>
 7    1  0.6593656E-013  0.5930190E+02  0.7816164E-02  0.1266605E+00
        -11   -1    0    0    0    0  0.00000000000E+00  0.00000000000E+00  0.45593999997E+02  0.45594000000E+02  0.51100000000E-03 0.  1.
         11   -1    0    0    0    0 -0.00000000000E+00 -0.00000000000E+00 -0.45593999997E+02  0.45594000000E+02  0.51100000000E-03 0. -1.
    9900012    2    1    2    0    0  0.25963300603E+02  0.18390308338E+02  0.21039838453E+01  0.59301903234E+02  0.49999925602E+02 0.  0.
         12    1    1    2    0    0 -0.25963300603E+02 -0.18390308338E+02 -0.21039838453E+01  0.31886096766E+02  0.00000000000E+00 0. -1.
         11    1    3    3    0    0 -0.71577843230E+01  0.35506787571E+00  0.46176915275E+01  0.85254340016E+01  0.51100000000E-03 0. -1.
        -11    1    3    3    0    0  0.21702017055E+02 -0.66938068321E+01  0.32294633375E+01  0.22939355437E+02  0.51100000000E-03 0.  1.
         12    1    3    3    0    0  0.11419067871E+02  0.24729047294E+02 -0.57431710196E+01  0.27837113796E+02  0.00000000000E+00 0. -1.
</event>
<event>
 7    1  0.6593656E-013  0.5930208E+02  0.7816164E-02  0.1266604E+00
        -11   -1    0    0    0    0  0.00000000000E+00  0.00000000000E+00  0.45593999997E+02  0.45594000000E+02  0.51100000000E-03 0. -1.
         11   -1    0    0    0    0 -0.00000000000E+00 -0.00000000000E+00 -0.45593999997E+02  0.45594000000E+02  0.51100000000E-03 0.  1.
    9900012    2    1    2    0    0  0.31021282953E+01  0.12667046350E+02 -0.29096988190E+02  0.59302078578E+02  0.50000245387E+02 0.  0.
         12    1    1    2    0    0 -0.31021282953E+01 -0.12667046350E+02  0.29096988190E+02  0.31885921422E+02  0.00000000000E+00 0. -1.
         11    1    3    3    0    0 -0.29399045662E+01  0.24406755775E+00 -0.97752818031E+01  0.10210717038E+02  0.51100000000E-03 0. -1.
        -11    1    3    3    0    0 -0.16642625451E+02  0.91871773535E+01 -0.17935038767E+02  0.26135164539E+02  0.51100000000E-03 0.  1.
        -12    1    3    3    0    0  0.22684658312E+02  0.32358014390E+01 -0.13866676194E+01  0.22956197002E+02  0.00000000000E+00 0.  1.
</event>
<event>
 7    1  0.6593656E-013  0.5930194E+02  0.7816164E-02  0.1266605E+00
        -11   -1    0    0    0    0  0.00000000000E+00  0.00000000000E+00  0.45593999997E+02  0.45594000000E+02  0.51100000000E-03 0. -1.
         11   -1    0    0    0    0 -0.00000000000E+00 -0.00000000000E+00 -0.45593999997E+02  0.45594000000E+02  0.51100000000E-03 0.  1.
    9900012    2    1    2    0    0  0.86850066870E+01  0.66715622222E+01 -0.29946311137E+02  0.59301942947E+02  0.49999998030E+02 0.  0.
         12    1    1    2    0    0 -0.86850066870E+01 -0.66715622222E+01  0.29946311137E+02  0.31886057053E+02  0.00000000000E+00 0. -1.
         11    1    3    3    0    0 -0.62471336996E+01 -0.30718712533E+01  0.42147578925E+00  0.69742895380E+01  0.51100000000E-03 0. -1.
        -11    1    3    3    0    0  0.97939309084E+01  0.71419142077E+01 -0.39618130860E+02  0.41430958404E+02  0.51100000000E-03 0.  1.
         12    1    3    3    0    0  0.51382094782E+01  0.26015192678E+01  0.92503439338E+01  0.10896695005E+02  0.00000000000E+00 0. -1.
</event>
<event>
 7    1  0.6593656E-013  0.5930192E+02  0.7816164E-02  0.1266605E+00
        -11   -1    0    0    0    0  0.00000000000E+00  0.00000000000E+00  0.45593999997E+02  0.45594000000E+02  0.51100000000E-03 0.  1.
         11   -1    0    0    0    0 -0.00000000000E+00 -0.00000000000E+00 -0.45593999997E+02  0.45594000000E+02  0.51100000000E-03 0. -1.
    9900012    2    1    2    0    0  0.17621799634E+02  0.53870858604E+01  0.26022554387E+02  0.59301923834E+02  0.49999963172E+02 0.  0.
         12    1    1    2    0    0 -0.17621799634E+02 -0.53870858604E+01 -0.26022554387E+02  0.31886076166E+02  0.00000000000E+00 0. -1.
         11    1    3    3    0    0  0.15632017564E+02 -0.40913853422E+01  0.32995714833E+01  0.16492015625E+02  0.51100000000E-03 0. -1.
        -11    1    3    3    0    0  0.10514088527E+02 -0.90753334736E+01  0.16278910237E+02  0.21398847025E+02  0.51100000000E-03 0.  1.
        -12    1    3    3    0    0 -0.85243064569E+01  0.18553804676E+02  0.64440726666E+01  0.21411061185E+02  0.00000000000E+00 0.  1.
</event>
<event>
 7    1  0.6593656E-013  0.5930200E+02  0.7816164E-02  0.1266605E+00
        -11   -1    0    0    0    0  0.00000000000E+00  0.00000000000E+00  0.45593999997E+02  0.45594000000E+02  0.51100000000E-03 0. -1.
         11   -1    0    0    0    0 -0.00000000000E+00 -0.00000000000E+00 -0.45593999997E+02  0.45594000000E+02  0.51100000000E-03 0.  1.
    9900012    2    1    2    0    0  0.37995025411E+01 -0.27177320955E+02 -0.16238050633E+02  0.59301995512E+02  0.50000093894E+02 0.  0.
         12    1    1    2    0    0 -0.37995025411E+01  0.27177320955E+02  0.16238050633E+02  0.31886004488E+02  0.00000000000E+00 0. -1.
         11    1    3    3    0    0  0.26677126112E+01  0.13266049367E+01 -0.81014255318E+01  0.86318982351E+01  0.51100000000E-03 0. -1.
        -11    1    3    3    0    0 -0.17860425197E+01 -0.27633495536E+02 -0.22691027732E+02  0.35800597247E+02  0.51100000000E-03 0.  1.
        -12    1    3    3    0    0  0.29178324496E+01 -0.87043035594E+00  0.14554402631E+02  0.14869500030E+02  0.00000000000E+00 0.  1.
</event>
<event>
 7    1  0.6593656E-013  0.5930196E+02  0.7816164E-02  0.1266605E+00
        -11   -1    0    0    0    0  0.00000000000E+00  0.00000000000E+00  0.45593999997E+02  0.45594000000E+02  0.51100000000E-03 0. -1.
         11   -1    0    0    0    0 -0.00000000000E+00 -0.00000000000E+00 -0.45593999997E+02  0.45594000000E+02  0.51100000000E-03 0.  1.
    9900012    2    1    2    0    0  0.12453921657E+01  0.77803352444E+01 -0.30897163310E+02  0.59301963577E+02  0.50000035653E+02 0.  0.
         12    1    1    2    0    0 -0.12453921657E+01 -0.77803352444E+01  0.30897163310E+02  0.31886036423E+02  0.00000000000E+00 0. -1.
         11    1    3    3    0    0 -0.98018511605E+01  0.62439572219E+01 -0.21593799883E+02  0.24522550471E+02  0.51100000000E-03 0. -1.
        -11    1    3    3    0    0 -0.87472110128E+01 -0.74900942798E+01 -0.52217303090E+01  0.12644432787E+02  0.51100000000E-03 0.  1.
         12    1    3    3    0    0  0.19794454339E+02  0.90264723023E+01 -0.40816331186E+01  0.22134980319E+02  0.00000000000E+00 0. -1.
</event>
<event>
 7    1  0.6593656E-013  0.5930200E+02  0.7816164E-02  0.1266605E+00
        -11   -1    0    0    0    0  0.00000000000E+00  0.00000000000E+00  0.45593999997E+02  0.45594000000E+02  0.51100000000E-03 0.  1.
         11   -1    0    0    0    0 -0.00000000000E+00 -0.00000000000E+00 -0.45593999997E+02  0.45594000000E+02  0.51100000000E-03 0. -1.
    9900012    2    1    2    0    0 -0.33465679742E+00 -0.29969971299E+02  0.10881457808E+02  0.59301995251E+02  0.50000093419E+02 0.  0.
         12    1    1    2    0    0  0.33465679742E+00  0.29969971299E+02 -0.10881457808E+02  0.31886004749E+02  0.00000000000E+00 0. -1.
         11    1    3    3    0    0 -0.86142810198E+01 -0.12434358802E+00  0.42214685595E+01  0.95938571949E+01  0.51100000000E-03 0. -1.
        -11    1    3    3    0    0  0.30121036186E+01 -0.35329189192E+02 -0.49793107906E+01  0.35805277731E+02  0.51100000000E-03 0.  1.
         12    1    3    3    0    0  0.52675206037E+01  0.54835614814E+01  0.11639300039E+02  0.13902860325E+02  0.00000000000E+00 0. -1.
</event>
<event>
 7    1  0.6593656E-013  0.5930195E+02  0.7816164E-02  0.1266605E+00
        -11   -1    0    0    0    0  0.00000000000E+00  0.00000000000E+00  0.45593999997E+02  0.45594000000E+02  0.51100000000E-03 0.  1.
         11   -1    0    0    0    0 -0.00000000000E+00 -0.00000000000E+00 -0.45593999997E+02  0.45594000000E+02  0.51100000000E-03 0. -1.
    9900012    2    1    2    0    0  0.11252221262E+02 -0.19060507596E+02  0.22952225155E+02  0.59301951755E+02  0.50000014092E+02 0.  0.
         12    1    1    2    0    0 -0.11252221262E+02  0.19060507596E+02 -0.22952225155E+02  0.31886048245E+02  0.00000000000E+00 0. -1.
         11    1    3    3    0    0  0.79342430138E+01 -0.96484875697E+01  0.78965500511E+01  0.14778397327E+02  0.51100000000E-03 0. -1.
        -11    1    3    3    0    0  0.18001370112E+02 -0.10656844327E+02  0.20038105082E+02  0.28967970458E+02  0.51100000000E-03 0.  1.
         12    1    3    3    0    0 -0.14683391864E+02  0.12448243009E+01 -0.49824299778E+01  0.15555583970E+02  0.00000000000E+00 0. -1.
</event>
<event>
 7    1  0.6593656E-013  0.5930194E+02  0.7816164E-02  0.1266605E+00
        -11   -1    0    0    0    0  0.00000000000E+00  0.00000000000E+00  0.45593999997E+02  0.45594000000E+02  0.51100000000E-03 0.  1.
         11   -1    0    0    0    0 -0.00000000000E+00 -0.00000000000E+00 -0.45593999997E+02  0.45594000000E+02  0.51100000000E-03 0. -1.
    9900012    2    1    2    0    0  0.18268352618E+02 -0.40750870859E+01  0.25814370308E+02  0.59301941031E+02  0.49999994536E+02 0.  0.
         12    1    1    2    0    0 -0.18268352618E+02  0.40750870859E+01 -0.25814370308E+02  0.31886058969E+02  0.00000000000E+00 0. -1.
         11    1    3    3    0    0 -0.83559160558E+01 -0.19252175717E+01 -0.24374509741E+01  0.89145366308E+01  0.51100000000E-03 0. -1.
        -11    1    3    3    0    0 -0.75044628664E+01 -0.74379485612E-02  0.57169058011E+01  0.94339827452E+01  0.51100000000E-03 0.  1.
         12    1    3    3    0    0  0.34128731540E+02 -0.21424315657E+01  0.22534915481E+02  0.40953421655E+02  0.00000000000E+00 0. -1.
</event>
<event>
 7    1  0.6593656E-013  0.5930199E+02  0.7816164E-02  0.1266605E+00
        -11   -1    0    0    0    0  0.00000000000E+00  0.00000000000E+00  0.45593999997E+02  0.45594000000E+02  0.51100000000E-03 0. -1.
         11   -1    0    0    0    0 -0.00000000000E+00 -0.00000000000E+00 -0.45593999997E+02  0.45594000000E+02  0.51100000000E-03 0.  1.
    9900012    2    1    2    0    0 -0.10712141718E+02  0.29858219436E+02  0.32333653934E+01  0.59301985827E+02  0.50000076233E+02 0.  0.
         12    1    1    2    0    0  0.10712141718E+02 -0.29858219436E+02 -0.32333653934E+01  0.31886014173E+02  0.00000000000E+00 0. -1.
         11    1    3    3    0    0 -0.21732316492E+02  0.16267339174E+02 -0.41800668883E+01  0.27466213124E+02  0.51100000000E-03 0. -1.
        -11    1    3    3    0    0  0.89246674796E+01  0.42881454486E+01 -0.86549450244E+01  0.13150891781E+02  0.51100000000E-03 0.  1.
        -12    1    3    3    0    0  0.20955072947E+01  0.93027348132E+01  0.16068377306E+02  0.18684880922E+02  0.00000000000E+00 0.  1.
</event>
<event>
 7    1  0.6593656E-013  0.5930195E+02  0.7816164E-02  0.1266605E+00
        -11   -1    0    0    0    0  0.00000000000E+00  0.00000000000E+00  0.45593999997E+02  0.45594000000E+02  0.51100000000E-03 0.  1.
         11   -1    0    0    0    0 -0.00000000000E+00 -0.00000000000E+00 -0.45593999997E+02  0.45594000000E+02  0.51100000000E-03 0. -1.
    9900012    2    1    2    0    0  0.23228298916E+02 -0.12828748485E+01  0.21806433336E+02  0.59301950178E+02  0.50000011216E+02 0.  0.
         12    1    1    2    0    0 -0.23228298916E+02  0.12828748485E+01 -0.21806433336E+02  0.31886049822E+02  0.00000000000E+00 0. -1.
         11    1    3    3    0    0  0.45866518232E+01 -0.42839026727E+01  0.14292066810E+01  0.64367560972E+01  0.51100000000E-03 0. -1.
        -11    1    3    3    0    0  0.21565593971E+02 -0.53320528865E+01 -0.76377158723E+01  0.23491282113E+02  0.51100000000E-03 0.  1.
         12    1    3    3    0    0 -0.29239468776E+01  0.83330807107E+01  0.28014942527E+02  0.29373911968E+02  0.00000000000E+00 0. -1.
</event>
<event>
 7    1  0.6593656E-013  0.5930196E+02  0.7816164E-02  0.1266605E+00
        -11   -1    0    0    0    0  0.00000000000E+00  0.00000000000E+00  0.45593999997E+02  0.45594000000E+02  0.51100000000E-03 0.  1.
         11   -1    0    0    0    0 -0.00000000000E+00 -0.00000000000E+00 -0.45593999997E+02  0.45594000000E+02  0.51100000000E-03 0. -1.
    9900012    2    1    2    0    0  0.15259676495E+02  0.24416833971E+02  0.13699642258E+02  0.59301957507E+02  0.50000024582E+02 0.  0.
         12    1    1    2    0    0 -0.15259676495E+02 -0.24416833971E+02 -0.13699642258E+02  0.31886042493E+02  0.00000000000E+00 0. -1.
         11    1    3    3    0    0  0.86050470525E+01 -0.66231659870E+01 -0.24588425230E+01  0.11133690730E+02  0.51100000000E-03 0. -1.
        -11    1    3    3    0    0  0.33003666721E+01  0.59835928601E+01  0.21301289869E+02  0.22370533163E+02  0.51100000000E-03 0.  1.
         12    1    3    3    0    0  0.33542627708E+01  0.25056407098E+02 -0.51428050878E+01  0.25797733613E+02  0.00000000000E+00 0. -1.
</event>
<event>
 7    1  0.6593656E-013  0.5930186E+02  0.7816164E-02  0.1266605E+00
        -11   -1    0    0    0    0  0.00000000000E+00  0.00000000000E+00  0.45593999997E+02  0.45594000000E+02  0.51100000000E-03 0.  1.
         11   -1    0    0    0    0 -0.00000000000E+00 -0.00000000000E+00 -0.45593999997E+02  0.45594000000E+02  0.51100000000E-03 0. -1.
    9900012    2    1    2    0    0  0.16670503569E+02 -0.74767360899E+01  0.26132716017E+02  0.59301856956E+02  0.49999841202E+02 0.  0.
         12    1    1    2    0    0 -0.16670503569E+02  0.74767360899E+01 -0.26132716017E+02  0.31886143044E+02  0.00000000000E+00 0. -1.
         11    1    3    3    0    0  0.23052589577E+02 -0.11542211922E+01  0.17985291709E+02  0.29261319705E+02  0.51100000000E-03 0. -1.
        -11    1    3    3    0    0  0.44378142154E+01 -0.11645424486E+02  0.12080960275E+02  0.17356834616E+02  0.51100000000E-03 0.  1.
        -12    1    3    3    0    0 -0.10819900223E+02  0.53229095880E+01 -0.39335359671E+01  0.12683702635E+02  0.00000000000E+00 0.  1.
</event>
<event>
 7    1  0.6593656E-013  0.5930196E+02  0.7816164E-02  0.1266605E+00
        -11   -1    0    0    0    0  0.00000000000E+00  0.00000000000E+00  0.45593999997E+02  0.45594000000E+02  0.51100000000E-03 0. -1.
         11   -1    0    0    0    0 -0.00000000000E+00 -0.00000000000E+00 -0.45593999997E+02  0.45594000000E+02  0.51100000000E-03 0.  1.
    9900012    2    1    2    0    0 -0.13784907874E+02  0.20625875955E+02 -0.20031708154E+02  0.59301956414E+02  0.50000022589E+02 0.  0.
         12    1    1    2    0    0  0.13784907874E+02 -0.20625875955E+02  0.20031708154E+02  0.31886043586E+02  0.00000000000E+00 0. -1.
         11    1    3    3    0    0 -0.23206767692E+01 -0.31508573976E+01  0.19221894095E+01  0.43598457993E+01  0.51100000000E-03 0. -1.
        -11    1    3    3    0    0 -0.85342203157E+01 -0.32735483210E+00 -0.28534078016E+02  0.29784789508E+02  0.51100000000E-03 0.  1.
         12    1    3    3    0    0 -0.29300107895E+01  0.24104088185E+02  0.65801804525E+01  0.25157321106E+02  0.00000000000E+00 0. -1.
</event>
<event>
 7    1  0.6593656E-013  0.5930191E+02  0.7816164E-02  0.1266605E+00
        -11   -1    0    0    0    0  0.00000000000E+00  0.00000000000E+00  0.45593999997E+02  0.45594000000E+02  0.51100000000E-03 0. -1.
         11   -1    0    0    0    0 -0.00000000000E+00 -0.00000000000E+00 -0.45593999997E+02  0.45594000000E+02  0.51100000000E-03 0.  1.
    9900012    2    1    2    0    0  0.29392713582E+02 -0.35007697079E+01 -0.11854779629E+02  0.59301908984E+02  0.49999936089E+02 0.  0.
         12    1    1    2    0    0 -0.29392713582E+02  0.35007697079E+01  0.11854779629E+02  0.31886091016E+02  0.00000000000E+00 0. -1.
         11    1    3    3    0    0  0.41463991484E+01 -0.46465534324E+01  0.13738412648E+01  0.63773446496E+01  0.51100000000E-03 0. -1.
        -11    1    3    3    0    0  0.38215032338E+02  0.15408138647E+01 -0.91727536667E+01  0.39330677772E+02  0.51100000000E-03 0.  1.
         12    1    3    3    0    0 -0.12968717905E+02 -0.39503014020E+00 -0.40558672266E+01  0.13593886562E+02  0.00000000000E+00 0. -1.
</event>
<event>
 7    1  0.6593656E-013  0.5930195E+02  0.7816164E-02  0.1266605E+00
        -11   -1    0    0    0    0  0.00000000000E+00  0.00000000000E+00  0.45593999997E+02  0.45594000000E+02  0.51100000000E-03 0.  1.
         11   -1    0    0    0    0 -0.00000000000E+00 -0.00000000000E+00 -0.45593999997E+02  0.45594000000E+02  0.51100000000E-03 0. -1.
    9900012    2    1    2    0    0 -0.17628131196E+02  0.56436016582E+01  0.25963802202E+02  0.59301948600E+02  0.50000008338E+02 0.  0.
         12    1    1    2    0    0  0.17628131196E+02 -0.56436016582E+01 -0.25963802202E+02  0.31886051400E+02  0.00000000000E+00 0. -1.
         11    1    3    3    0    0 -0.19690075252E+02  0.11650712948E+02 -0.58852235055E+01  0.23623590574E+02  0.51100000000E-03 0.  1.
        -11    1    3    3    0    0 -0.29092163450E+00  0.16624778279E+01 -0.93336494247E+00  0.19286363843E+01  0.51100000000E-03 0. -1.
        -12    1    3    3    0    0  0.23528656911E+01 -0.76695891174E+01  0.32782390649E+02  0.33749721642E+02  0.00000000000E+00 0.  1.
</event>
<event>
 7    1  0.6593656E-013  0.5930194E+02  0.7816164E-02  0.1266605E+00
        -11   -1    0    0    0    0  0.00000000000E+00  0.00000000000E+00  0.45593999997E+02  0.45594000000E+02  0.51100000000E-03 0. -1.
         11   -1    0    0    0    0 -0.00000000000E+00 -0.00000000000E+00 -0.45593999997E+02  0.45594000000E+02  0.51100000000E-03 0.  1.
    9900012    2    1    2    0    0 -0.21881840254E+02 -0.39149826873E+01  0.22859985647E+02  0.59301937745E+02  0.49999988542E+02 0.  0.
         12    1    1    2    0    0  0.21881840254E+02  0.39149826873E+01 -0.22859985647E+02  0.31886062255E+02  0.00000000000E+00 0. -1.
         11    1    3    3    0    0  0.47791115243E-01 -0.69008194120E+01 -0.16073146453E+01  0.70856935566E+01  0.51100000000E-03 0. -1.
        -11    1    3    3    0    0 -0.12042257955E+02 -0.14030688015E+02 -0.26827054262E+01  0.18683497839E+02  0.51100000000E-03 0.  1.
        -12    1    3    3    0    0 -0.98873734148E+01  0.17016524740E+02  0.27150005718E+02  0.33532746350E+02  0.00000000000E+00 0.  1.
</event>
<event>
 7    1  0.6593656E-013  0.5930194E+02  0.7816164E-02  0.1266605E+00
        -11   -1    0    0    0    0  0.00000000000E+00  0.00000000000E+00  0.45593999997E+02  0.45594000000E+02  0.51100000000E-03 0. -1.
         11   -1    0    0    0    0 -0.00000000000E+00 -0.00000000000E+00 -0.45593999997E+02  0.45594000000E+02  0.51100000000E-03 0.  1.
    9900012    2    1    2    0    0 -0.23963199167E+02 -0.17502990284E+02 -0.11667533698E+02  0.59301938378E+02  0.49999989696E+02 0.  0.
         12    1    1    2    0    0  0.23963199167E+02  0.17502990284E+02  0.11667533698E+02  0.31886061622E+02  0.00000000000E+00 0. -1.
         11    1    3    3    0    0 -0.22675017905E+02 -0.67513057752E+01  0.69419805087E+01  0.24656189088E+02  0.51100000000E-03 0. -1.
        -11    1    3    3    0    0 -0.54520337716E+01  0.26940465999E+01  0.45150362705E+01  0.75741740219E+01  0.51100000000E-03 0.  1.
        -12    1    3    3    0    0  0.41638525103E+01 -0.13445731109E+02 -0.23124550477E+02  0.27071575269E+02  0.00000000000E+00 0.  1.
</event>
<event>
 7    1  0.6593656E-013  0.5930186E+02  0.7816164E-02  0.1266605E+00
        -11   -1    0    0    0    0  0.00000000000E+00  0.00000000000E+00  0.45593999997E+02  0.45594000000E+02  0.51100000000E-03 0. -1.
         11   -1    0    0    0    0 -0.00000000000E+00 -0.00000000000E+00 -0.45593999997E+02  0.45594000000E+02  0.51100000000E-03 0.  1.
    9900012    2    1    2    0    0  0.17141894330E+02 -0.24921178009E+02 -0.10090390966E+02  0.59301864386E+02  0.49999854752E+02 0.  0.
         12    1    1    2    0    0 -0.17141894330E+02  0.24921178009E+02  0.10090390966E+02  0.31886135614E+02  0.00000000000E+00 0. -1.
         11    1    3    3    0    0 -0.15895911330E+01  0.13178729317E+01  0.12591631909E+02  0.12759811262E+02  0.51100000000E-03 0. -1.
        -11    1    3    3    0    0  0.17696239258E+02 -0.16422152822E+02 -0.27483746777E+01  0.24298097679E+02  0.51100000000E-03 0.  1.
        -12    1    3    3    0    0  0.10352462047E+01 -0.98168981182E+01 -0.19933648197E+02  0.22243955445E+02  0.00000000000E+00 0.  1.
</event>
<event>
 7    1  0.6593656E-013  0.5930196E+02  0.7816164E-02  0.1266605E+00
        -11   -1    0    0    0    0  0.00000000000E+00  0.00000000000E+00  0.45593999997E+02  0.45594000000E+02  0.51100000000E-03 0. -1.
         11   -1    0    0    0    0 -0.00000000000E+00 -0.00000000000E+00 -0.45593999997E+02  0.45594000000E+02  0.51100000000E-03 0.  1.
    9900012    2    1    2    0    0 -0.72997527398E+01 -0.31035548497E+02 -0.47770724128E+00  0.59301955015E+02  0.50000020039E+02 0.  0.
         12    1    1    2    0    0  0.72997527398E+01  0.31035548497E+02  0.47770724128E+00  0.31886044985E+02  0.00000000000E+00 0. -1.
         11    1    3    3    0    0  0.86167310770E+01 -0.56307392084E+01 -0.76816530117E+01  0.12843717209E+02  0.51100000000E-03 0. -1.
        -11    1    3    3    0    0 -0.54196341908E+01  0.11104706522E+01 -0.11218094578E+02  0.12508046452E+02  0.51100000000E-03 0.  1.
         12    1    3    3    0    0 -0.10496849626E+02 -0.26515279941E+02  0.18422040348E+02  0.33950191354E+02  0.00000000000E+00 0. -1.
</event>
<event>
 7    1  0.6593656E-013  0.5930196E+02  0.7816164E-02  0.1266605E+00
        -11   -1    0    0    0    0  0.00000000000E+00  0.00000000000E+00  0.45593999997E+02  0.45594000000E+02  0.51100000000E-03 0.  1.
         11   -1    0    0    0    0 -0.00000000000E+00 -0.00000000000E+00 -0.45593999997E+02  0.45594000000E+02  0.51100000000E-03 0. -1.
    9900012    2    1    2    0    0 -0.21027950945E+02  0.22693747324E+02  0.77161096797E+01  0.59301964857E+02  0.50000037987E+02 0.  0.
         12    1    1    2    0    0  0.21027950945E+02 -0.22693747324E+02 -0.77161096797E+01  0.31886035143E+02  0.00000000000E+00 0. -1.
         11    1    3    3    0    0  0.13755704939E+01 -0.60085162538E+01 -0.76094412702E+01  0.97927554070E+01  0.51100000000E-03 0. -1.
        -11    1    3    3    0    0 -0.12367023240E+02  0.27363595968E+00 -0.47912596888E+01  0.13265530902E+02  0.51100000000E-03 0.  1.
        -12    1    3    3    0    0 -0.10036498199E+02  0.28428627618E+02  0.20116810639E+02  0.36243678547E+02  0.00000000000E+00 0.  1.
</event>
<event>
 7    1  0.6593656E-013  0.5930195E+02  0.7816164E-02  0.1266605E+00
        -11   -1    0    0    0    0  0.00000000000E+00  0.00000000000E+00  0.45593999997E+02  0.45594000000E+02  0.51100000000E-03 0.  1.
         11   -1    0    0    0    0 -0.00000000000E+00 -0.00000000000E+00 -0.45593999997E+02  0.45594000000E+02  0.51100000000E-03 0. -1.
    9900012    2    1    2    0    0 -0.18434806050E+02 -0.52704089465E+01  0.25477461948E+02  0.59301947377E+02  0.50000006109E+02 0.  0.
         12    1    1    2    0    0  0.18434806050E+02  0.52704089465E+01 -0.25477461948E+02  0.31886052623E+02  0.00000000000E+00 0. -1.
         11    1    3    3    0    0  0.26184284860E+01 -0.49435783916E+01  0.22035647463E+02  0.22734662839E+02  0.51100000000E-03 0.  1.
        -11    1    3    3    0    0  0.68510246940E+01 -0.26206339865E+01 -0.28522457507E+01  0.78701694983E+01  0.51100000000E-03 0. -1.
        -12    1    3    3    0    0 -0.27904259230E+02  0.22938034316E+01  0.62940602357E+01  0.28697115039E+02  0.00000000000E+00 0.  1.
</event>
<event>
 7    1  0.6593656E-013  0.5930186E+02  0.7816164E-02  0.1266605E+00
        -11   -1    0    0    0    0  0.00000000000E+00  0.00000000000E+00  0.45593999997E+02  0.45594000000E+02  0.51100000000E-03 0.  1.
         11   -1    0    0    0    0 -0.00000000000E+00 -0.00000000000E+00 -0.45593999997E+02  0.45594000000E+02  0.51100000000E-03 0. -1.
    9900012    2    1    2    0    0 -0.36388181252E+01  0.19763353613E+02 -0.24756708335E+02  0.59301862715E+02  0.49999851705E+02 0.  0.
         12    1    1    2    0    0  0.36388181252E+01 -0.19763353613E+02  0.24756708335E+02  0.31886137285E+02  0.00000000000E+00 0. -1.
         11    1    3    3    0    0 -0.57990449989E+01 -0.70868613891E+01 -0.45259538457E+01  0.10214537959E+02  0.51100000000E-03 0. -1.
        -11    1    3    3    0    0 -0.10562460198E+02  0.74203567812E+01  0.58435492987E+01  0.14169485836E+02  0.51100000000E-03 0.  1.
         12    1    3    3    0    0  0.12722687071E+02  0.19429858220E+02 -0.26074303788E+02  0.34917838920E+02  0.00000000000E+00 0. -1.
</event>
<event>
 7    1  0.6593656E-013  0.5930196E+02  0.7816164E-02  0.1266605E+00
        -11   -1    0    0    0    0  0.00000000000E+00  0.00000000000E+00  0.45593999997E+02  0.45594000000E+02  0.51100000000E-03 0. -1.
         11   -1    0    0    0    0 -0.00000000000E+00 -0.00000000000E+00 -0.45593999997E+02  0.45594000000E+02  0.51100000000E-03 0.  1.
    9900012    2    1    2    0    0  0.76342266814E+01  0.24492039053E+02  0.18936165110E+02  0.59301956924E+02  0.50000023519E+02 0.  0.
         12    1    1    2    0    0 -0.76342266814E+01 -0.24492039053E+02 -0.18936165110E+02  0.31886043076E+02  0.00000000000E+00 0. -1.
         11    1    3    3    0    0 -0.26385043137E+01  0.10372349540E+02 -0.37729245262E+01  0.11348228925E+02  0.51100000000E-03 0. -1.
        -11    1    3    3    0    0  0.45948991674E-01 -0.11694929915E+02 -0.58574665126E+00  0.11709679604E+02  0.51100000000E-03 0.  1.
         12    1    3    3    0    0  0.10226782003E+02  0.25814619427E+02  0.23294836288E+02  0.36244048394E+02  0.00000000000E+00 0. -1.
</event>
<event>
 7    1  0.6593656E-013  0.5930199E+02  0.7816164E-02  0.1266605E+00
        -11   -1    0    0    0    0  0.00000000000E+00  0.00000000000E+00  0.45593999997E+02  0.45594000000E+02  0.51100000000E-03 0.  1.
         11   -1    0    0    0    0 -0.00000000000E+00 -0.00000000000E+00 -0.45593999997E+02  0.45594000000E+02  0.51100000000E-03 0. -1.
    9900012    2    1    2    0    0  0.15884437732E+00  0.31205661752E+02  0.65497253502E+01  0.59301992739E+02  0.50000088837E+02 0.  0.
         12    1    1    2    0    0 -0.15884437732E+00 -0.31205661752E+02 -0.65497253502E+01  0.31886007261E+02  0.00000000000E+00 0. -1.
         11    1    3    3    0    0 -0.73866955657E+00  0.62440932092E+01 -0.49514933882E+01  0.80032255843E+01  0.51100000000E-03 0. -1.
        -11    1    3    3    0    0  0.10307698252E+02  0.29707980859E+02 -0.48781357566E+01  0.31821517542E+02  0.51100000000E-03 0.  1.
        -12    1    3    3    0    0 -0.94101843179E+01 -0.47464123163E+01  0.16379354495E+02  0.19477249612E+02  0.00000000000E+00 0.  1.
</event>
<event>
 7    1  0.6593656E-013  0.5930192E+02  0.7816164E-02  0.1266605E+00
        -11   -1    0    0    0    0  0.00000000000E+00  0.00000000000E+00  0.45593999997E+02  0.45594000000E+02  0.51100000000E-03 0. -1.
         11   -1    0    0    0    0 -0.00000000000E+00 -0.00000000000E+00 -0.45593999997E+02  0.45594000000E+02  0.51100000000E-03 0.  1.
    9900012    2    1    2    0    0  0.39928180771E+01 -0.31479830646E+02  0.31304600876E+01  0.59301919744E+02  0.49999955713E+02 0.  0.
         12    1    1    2    0    0 -0.39928180771E+01  0.31479830646E+02 -0.31304600876E+01  0.31886080256E+02  0.00000000000E+00 0. -1.
         11    1    3    3    0    0  0.10370369167E+02 -0.16317093827E+02 -0.15106777407E+01  0.19392634042E+02  0.51100000000E-03 0. -1.
        -11    1    3    3    0    0  0.73245396120E+01 -0.35520248067E+01 -0.12608082813E+02  0.15007648491E+02  0.51100000000E-03 0.  1.
         12    1    3    3    0    0 -0.13702090702E+02 -0.11610712013E+02  0.17249220641E+02  0.24901637211E+02  0.00000000000E+00 0. -1.
</event>
<event>
 7    1  0.6593656E-013  0.5930196E+02  0.7816164E-02  0.1266605E+00
        -11   -1    0    0    0    0  0.00000000000E+00  0.00000000000E+00  0.45593999997E+02  0.45594000000E+02  0.51100000000E-03 0. -1.
         11   -1    0    0    0    0 -0.00000000000E+00 -0.00000000000E+00 -0.45593999997E+02  0.45594000000E+02  0.51100000000E-03 0.  1.
    9900012    2    1    2    0    0  0.85482247163E+01 -0.24004044822E+02 -0.19169077709E+02  0.59301955187E+02  0.50000020352E+02 0.  0.
         12    1    1    2    0    0 -0.85482247163E+01  0.24004044822E+02  0.19169077709E+02  0.31886044813E+02  0.00000000000E+00 0. -1.
         11    1    3    3    0    0  0.36407645040E-01  0.66605413667E+01  0.42616063545E+01  0.79073020554E+01  0.51100000000E-03 0. -1.
        -11    1    3    3    0    0 -0.89363409185E+01  0.10988518907E+01 -0.17745497483E+01  0.91768563005E+01  0.51100000000E-03 0.  1.
        -12    1    3    3    0    0  0.17448157990E+02 -0.31763438079E+02 -0.21656134315E+02  0.42217796831E+02  0.00000000000E+00 0.  1.
</event>
<event>
 7    1  0.6593656E-013  0.5930194E+02  0.7816164E-02  0.1266605E+00
        -11   -1    0    0    0    0  0.00000000000E+00  0.00000000000E+00  0.45593999997E+02  0.45594000000E+02  0.51100000000E-03 0. -1.
         11   -1    0    0    0    0 -0.00000000000E+00 -0.00000000000E+00 -0.45593999997E+02  0.45594000000E+02  0.51100000000E-03 0.  1.
    9900012    2    1    2    0    0  0.33917958418E+01 -0.26476311801E+01 -0.31594403626E+02  0.59301943950E+02  0.49999999859E+02 0.  0.
         12    1    1    2    0    0 -0.33917958418E+01  0.26476311801E+01  0.31594403626E+02  0.31886056050E+02  0.00000000000E+00 0. -1.
         11    1    3    3    0    0  0.11555285667E+02 -0.89236826863E+01 -0.29849517600E+01  0.14901901785E+02  0.51100000000E-03 0. -1.
        -11    1    3    3    0    0 -0.34236336240E+01 -0.12970094333E+02 -0.72020520265E+01  0.15225444750E+02  0.51100000000E-03 0.  1.
        -12    1    3    3    0    0 -0.47398562009E+01  0.19246145839E+02 -0.21407399840E+02  0.29174597416E+02  0.00000000000E+00 0.  1.
</event>
<event>
 7    1  0.6593656E-013  0.5930191E+02  0.7816164E-02  0.1266605E+00
        -11   -1    0    0    0    0  0.00000000000E+00  0.00000000000E+00  0.45593999997E+02  0.45594000000E+02  0.51100000000E-03 0. -1.
         11   -1    0    0    0    0 -0.00000000000E+00 -0.00000000000E+00 -0.45593999997E+02  0.45594000000E+02  0.51100000000E-03 0.  1.
    9900012    2    1    2    0    0  0.18290337270E+02 -0.13158136053E+02 -0.22562124458E+02  0.59301914604E+02  0.49999946338E+02 0.  0.
         12    1    1    2    0    0 -0.18290337270E+02  0.13158136053E+02  0.22562124458E+02  0.31886085396E+02  0.00000000000E+00 0. -1.
         11    1    3    3    0    0 -0.32085542428E+01 -0.16146720181E+02 -0.34639131316E-01  0.16462460116E+02  0.51100000000E-03 0. -1.
        -11    1    3    3    0    0 -0.25110678116E+01 -0.88135790908E+01 -0.27465873602E+01  0.95670465836E+01  0.51100000000E-03 0.  1.
         12    1    3    3    0    0  0.24009959324E+02  0.11802163219E+02 -0.19780897966E+02  0.33272407905E+02  0.00000000000E+00 0. -1.
</event>
<event>
 7    1  0.6593656E-013  0.5930200E+02  0.7816164E-02  0.1266605E+00
        -11   -1    0    0    0    0  0.00000000000E+00  0.00000000000E+00  0.45593999997E+02  0.45594000000E+02  0.51100000000E-03 0.  1.
         11   -1    0    0    0    0 -0.00000000000E+00 -0.00000000000E+00 -0.45593999997E+02  0.45594000000E+02  0.51100000000E-03 0. -1.
    9900012    2    1    2    0    0  0.25335488912E+02 -0.18081091208E+02  0.69212660876E+01  0.59302003357E+02  0.50000108202E+02 0.  0.
         12    1    1    2    0    0 -0.25335488912E+02  0.18081091208E+02 -0.69212660876E+01  0.31885996643E+02  0.00000000000E+00 0. -1.
         11    1    3    3    0    0  0.82288538022E+01 -0.30706563574E+01  0.44977854458E+01  0.98677778420E+01  0.51100000000E-03 0. -1.
        -11    1    3    3    0    0  0.61049501066E+01  0.13037924313E+02  0.10989281389E+02  0.18111382937E+02  0.51100000000E-03 0.  1.
        -12    1    3    3    0    0  0.11001685003E+02 -0.28048359164E+02 -0.85658007475E+01  0.31322842577E+02  0.00000000000E+00 0.  1.
</event>
<event>
 7    1  0.6593656E-013  0.5930197E+02  0.7816164E-02  0.1266605E+00
        -11   -1    0    0    0    0  0.00000000000E+00  0.00000000000E+00  0.45593999997E+02  0.45594000000E+02  0.51100000000E-03 0. -1.
         11   -1    0    0    0    0 -0.00000000000E+00 -0.00000000000E+00 -0.45593999997E+02  0.45594000000E+02  0.51100000000E-03 0.  1.
    9900012    2    1    2    0    0  0.15437784556E+02 -0.20243317728E+02 -0.19199013301E+02  0.59301965183E+02  0.50000038582E+02 0.  0.
         12    1    1    2    0    0 -0.15437784556E+02  0.20243317728E+02  0.19199013301E+02  0.31886034817E+02  0.00000000000E+00 0. -1.
         11    1    3    3    0    0  0.12388541490E+02 -0.49780588939E+01  0.18785709282E+01  0.13482806073E+02  0.51100000000E-03 0. -1.
        -11    1    3    3    0    0  0.10914041202E+02  0.76803172226E+01  0.49958203594E+00  0.13354892379E+02  0.51100000000E-03 0.  1.
        -12    1    3    3    0    0 -0.78647981361E+01 -0.22945576057E+02 -0.21577166265E+02  0.32464266730E+02  0.00000000000E+00 0.  1.
</event>
<event>
 7    1  0.6593656E-013  0.5930196E+02  0.7816164E-02  0.1266605E+00
        -11   -1    0    0    0    0  0.00000000000E+00  0.00000000000E+00  0.45593999997E+02  0.45594000000E+02  0.51100000000E-03 0.  1.
         11   -1    0    0    0    0 -0.00000000000E+00 -0.00000000000E+00 -0.45593999997E+02  0.45594000000E+02  0.51100000000E-03 0. -1.
    9900012    2    1    2    0    0  0.22812110106E+02  0.16852280412E+02  0.14571479604E+02  0.59301956965E+02  0.50000023595E+02 0.  0.
         12    1    1    2    0    0 -0.22812110106E+02 -0.16852280412E+02 -0.14571479604E+02  0.31886043035E+02  0.00000000000E+00 0. -1.
         11    1    3    3    0    0  0.54498129007E+01  0.11073001019E+02 -0.26770775060E+01  0.12628481954E+02  0.51100000000E-03 0. -1.
        -11    1    3    3    0    0  0.21655026880E+02  0.27591565336E+01  0.27527006702E+02  0.35132452693E+02  0.51100000000E-03 0.  1.
         12    1    3    3    0    0 -0.42927296748E+01  0.30201228588E+01 -0.10278449592E+02  0.11541022319E+02  0.00000000000E+00 0. -1.
</event>
<event>
 7    1  0.6593656E-013  0.5930196E+02  0.7816164E-02  0.1266605E+00
        -11   -1    0    0    0    0  0.00000000000E+00  0.00000000000E+00  0.45593999997E+02  0.45594000000E+02  0.51100000000E-03 0.  1.
         11   -1    0    0    0    0 -0.00000000000E+00 -0.00000000000E+00 -0.45593999997E+02  0.45594000000E+02  0.51100000000E-03 0. -1.
    9900012    2    1    2    0    0  0.24264618454E+02  0.61060789094E+01  0.19765217484E+02  0.59301957120E+02  0.50000023877E+02 0.  0.
         12    1    1    2    0    0 -0.24264618454E+02 -0.61060789094E+01 -0.19765217484E+02  0.31886042880E+02  0.00000000000E+00 0. -1.
         11    1    3    3    0    0  0.77746132168E+01  0.78670730709E+01  0.23086534180E+02  0.25599287296E+02  0.51100000000E-03 0. -1.
        -11    1    3    3    0    0 -0.17021198717E+01 -0.54006851189E+01  0.95638141177E+01  0.11114456917E+02  0.51100000000E-03 0.  1.
         12    1    3    3    0    0  0.18192125109E+02  0.36396909573E+01 -0.12885130813E+02  0.22588212907E+02  0.00000000000E+00 0. -1.
</event>
<event>
 7    1  0.6593656E-013  0.5930192E+02  0.7816164E-02  0.1266605E+00
        -11   -1    0    0    0    0  0.00000000000E+00  0.00000000000E+00  0.45593999997E+02  0.45594000000E+02  0.51100000000E-03 0.  1.
         11   -1    0    0    0    0 -0.00000000000E+00 -0.00000000000E+00 -0.45593999997E+02  0.45594000000E+02  0.51100000000E-03 0. -1.
    9900012    2    1    2    0    0  0.87451984717E+01 -0.13777181504E+02  0.27394033030E+02  0.59301917265E+02  0.49999951192E+02 0.  0.
         12    1    1    2    0    0 -0.87451984717E+01  0.13777181504E+02 -0.27394033030E+02  0.31886082735E+02  0.00000000000E+00 0. -1.
         11    1    3    3    0    0  0.49044287642E+01 -0.55024076477E+00 -0.52331750033E+01  0.71932125841E+01  0.51100000000E-03 0. -1.
        -11    1    3    3    0    0 -0.16974515372E+02 -0.77601644344E+01  0.19012411172E+02  0.26642561870E+02  0.51100000000E-03 0.  1.
         12    1    3    3    0    0  0.20815285079E+02 -0.54667763051E+01  0.13614796861E+02  0.25466142811E+02  0.00000000000E+00 0. -1.
</event>
<event>
 7    1  0.6593656E-013  0.5930195E+02  0.7816164E-02  0.1266605E+00
        -11   -1    0    0    0    0  0.00000000000E+00  0.00000000000E+00  0.45593999997E+02  0.45594000000E+02  0.51100000000E-03 0.  1.
         11   -1    0    0    0    0 -0.00000000000E+00 -0.00000000000E+00 -0.45593999997E+02  0.45594000000E+02  0.51100000000E-03 0. -1.
    9900012    2    1    2    0    0 -0.19988372442E+02  0.82896389827E+01  0.23419376226E+02  0.59301947718E+02  0.50000006730E+02 0.  0.
         12    1    1    2    0    0  0.19988372442E+02 -0.82896389827E+01 -0.23419376226E+02  0.31886052282E+02  0.00000000000E+00 0. -1.
         11    1    3    3    0    0 -0.32162521596E+02 -0.11137182672E+01  0.17522606309E+02  0.36643006098E+02  0.51100000000E-03 0. -1.
        -11    1    3    3    0    0  0.62457261869E+01  0.74206016361E+01 -0.43704642291E+01  0.10638391894E+02  0.51100000000E-03 0.  1.
        -12    1    3    3    0    0  0.59284229673E+01  0.19827556139E+01  0.10267234146E+02  0.12020549726E+02  0.00000000000E+00 0.  1.
</event>
<event>
 7    1  0.6593656E-013  0.5930203E+02  0.7816164E-02  0.1266604E+00
        -11   -1    0    0    0    0  0.00000000000E+00  0.00000000000E+00  0.45593999997E+02  0.45594000000E+02  0.51100000000E-03 0. -1.
         11   -1    0    0    0    0 -0.00000000000E+00 -0.00000000000E+00 -0.45593999997E+02  0.45594000000E+02  0.51100000000E-03 0.  1.
    9900012    2    1    2    0    0  0.15342535695E+02 -0.15791983765E+02 -0.23063717253E+02  0.59302028064E+02  0.50000153262E+02 0.  0.
         12    1    1    2    0    0 -0.15342535695E+02  0.15791983765E+02  0.23063717253E+02  0.31885971936E+02  0.00000000000E+00 0. -1.
         11    1    3    3    0    0  0.76728631209E+01 -0.59086578337E+01 -0.17214290605E+02  0.19751376336E+02  0.51100000000E-03 0.  1.
        -11    1    3    3    0    0  0.76689111421E+01 -0.14877269232E+02 -0.19096606501E+02  0.25393418794E+02  0.51100000000E-03 0. -1.
         12    1    3    3    0    0  0.76143222470E-03  0.49939433010E+01  0.13247179854E+02  0.14157232934E+02  0.00000000000E+00 0. -1.
</event>
<event>
 7    1  0.6593656E-013  0.5930194E+02  0.7816164E-02  0.1266605E+00
        -11   -1    0    0    0    0  0.00000000000E+00  0.00000000000E+00  0.45593999997E+02  0.45594000000E+02  0.51100000000E-03 0.  1.
         11   -1    0    0    0    0 -0.00000000000E+00 -0.00000000000E+00 -0.45593999997E+02  0.45594000000E+02  0.51100000000E-03 0. -1.
    9900012    2    1    2    0    0  0.27703987084E+02  0.15007649127E+02 -0.48969839611E+01  0.59301939024E+02  0.49999990875E+02 0.  0.
         12    1    1    2    0    0 -0.27703987084E+02 -0.15007649127E+02  0.48969839611E+01  0.31886060976E+02  0.00000000000E+00 0. -1.
         11    1    3    3    0    0 -0.14611691166E+01 -0.48138893575E+01 -0.81592507125E+00  0.50964968279E+01  0.51100000000E-03 0. -1.
        -11    1    3    3    0    0  0.13453340238E+02  0.13934997822E+02 -0.22232948242E+02  0.29486955008E+02  0.51100000000E-03 0.  1.
        -12    1    3    3    0    0  0.15711815962E+02  0.58865406626E+01  0.18151889353E+02  0.24718487188E+02  0.00000000000E+00 0.  1.
</event>
<event>
 7    1  0.6593656E-013  0.5930195E+02  0.7816164E-02  0.1266605E+00
        -11   -1    0    0    0    0  0.00000000000E+00  0.00000000000E+00  0.45593999997E+02  0.45594000000E+02  0.51100000000E-03 0. -1.
         11   -1    0    0    0    0 -0.00000000000E+00 -0.00000000000E+00 -0.45593999997E+02  0.45594000000E+02  0.51100000000E-03 0.  1.
    9900012    2    1    2    0    0 -0.26576719176E+02 -0.63369047340E+01  0.16439034298E+02  0.59301949564E+02  0.50000010097E+02 0.  0.
         12    1    1    2    0    0  0.26576719176E+02  0.63369047340E+01 -0.16439034298E+02  0.31886050436E+02  0.00000000000E+00 0. -1.
         11    1    3    3    0    0 -0.23781148220E+02 -0.69046514910E+00  0.18025146612E+02  0.29848377902E+02  0.51100000000E-03 0. -1.
        -11    1    3    3    0    0 -0.77294342550E+01 -0.60005279947E+01  0.11714051141E+02  0.15263337922E+02  0.51100000000E-03 0.  1.
        -12    1    3    3    0    0  0.49338632988E+01  0.35408840977E+00 -0.13300163455E+02  0.14190233740E+02  0.00000000000E+00 0.  1.
</event>
<event>
 7    1  0.6593656E-013  0.5930187E+02  0.7816164E-02  0.1266605E+00
        -11   -1    0    0    0    0  0.00000000000E+00  0.00000000000E+00  0.45593999997E+02  0.45594000000E+02  0.51100000000E-03 0.  1.
         11   -1    0    0    0    0 -0.00000000000E+00 -0.00000000000E+00 -0.45593999997E+02  0.45594000000E+02  0.51100000000E-03 0. -1.
    9900012    2    1    2    0    0 -0.13690481915E+02 -0.24562712695E+02  0.15032268990E+02  0.59301870398E+02  0.49999865718E+02 0.  0.
         12    1    1    2    0    0  0.13690481915E+02  0.24562712695E+02 -0.15032268990E+02  0.31886129602E+02  0.00000000000E+00 0. -1.
         11    1    3    3    0    0 -0.13058590899E+02 -0.70324074979E+01  0.13454763434E+01  0.14892678011E+02  0.51100000000E-03 0. -1.
        -11    1    3    3    0    0 -0.11225550113E+02 -0.19103886217E+02  0.21714974046E+02  0.31024370130E+02  0.51100000000E-03 0.  1.
        -12    1    3    3    0    0  0.10593659097E+02  0.15735810201E+01 -0.80281813991E+01  0.13384822257E+02  0.00000000000E+00 0.  1.
</event>
<event>
 7    1  0.6593656E-013  0.5930194E+02  0.7816164E-02  0.1266605E+00
        -11   -1    0    0    0    0  0.00000000000E+00  0.00000000000E+00  0.45593999997E+02  0.45594000000E+02  0.51100000000E-03 0.  1.
         11   -1    0    0    0    0 -0.00000000000E+00 -0.00000000000E+00 -0.45593999997E+02  0.45594000000E+02  0.51100000000E-03 0. -1.
    9900012    2    1    2    0    0 -0.25781005293E+02  0.17981036373E+02 -0.53612252458E+01  0.59301942873E+02  0.49999997894E+02 0.  0.
         12    1    1    2    0    0  0.25781005293E+02 -0.17981036373E+02  0.53612252458E+01  0.31886057127E+02  0.00000000000E+00 0. -1.
         11    1    3    3    0    0 -0.12716310047E+02  0.50835284405E+01 -0.87776718533E+01  0.16266355648E+02  0.51100000000E-03 0. -1.
        -11    1    3    3    0    0 -0.23707992634E+02  0.14512568211E+02 -0.63356154810E+01  0.28510060936E+02  0.51100000000E-03 0.  1.
        -12    1    3    3    0    0  0.10643297388E+02 -0.16150602784E+01  0.97520620885E+01  0.14525526289E+02  0.00000000000E+00 0.  1.
</event>
<event>
 7    1  0.6593656E-013  0.5930195E+02  0.7816164E-02  0.1266605E+00
        -11   -1    0    0    0    0  0.00000000000E+00  0.00000000000E+00  0.45593999997E+02  0.45594000000E+02  0.51100000000E-03 0.  1.
         11   -1    0    0    0    0 -0.00000000000E+00 -0.00000000000E+00 -0.45593999997E+02  0.45594000000E+02  0.51100000000E-03 0. -1.
    9900012    2    1    2    0    0 -0.67937874435E+01 -0.69693971356E+01  0.30364321868E+02  0.59301951534E+02  0.50000013690E+02 0.  0.
         12    1    1    2    0    0  0.67937874435E+01  0.69693971356E+01 -0.30364321868E+02  0.31886048466E+02  0.00000000000E+00 0. -1.
         11    1    3    3    0    0 -0.40737632409E+01  0.18731102922E+02  0.12504457773E+02  0.22886922643E+02  0.51100000000E-03 0. -1.
        -11    1    3    3    0    0  0.25674940117E+01 -0.38867372862E+01 -0.31880704506E+01  0.56446918154E+01  0.51100000000E-03 0.  1.
        -12    1    3    3    0    0 -0.52875182143E+01 -0.21813762771E+02  0.21047934546E+02  0.30770337076E+02  0.00000000000E+00 0.  1.
</event>
<event>
 7    1  0.6593656E-013  0.5930192E+02  0.7816164E-02  0.1266605E+00
        -11   -1    0    0    0    0  0.00000000000E+00  0.00000000000E+00  0.45593999997E+02  0.45594000000E+02  0.51100000000E-03 0. -1.
         11   -1    0    0    0    0 -0.00000000000E+00 -0.00000000000E+00 -0.45593999997E+02  0.45594000000E+02  0.51100000000E-03 0.  1.
    9900012    2    1    2    0    0 -0.14842339846E+02  0.27095101905E+02 -0.78919079356E+01  0.59301924510E+02  0.49999964404E+02 0.  0.
         12    1    1    2    0    0  0.14842339846E+02 -0.27095101905E+02  0.78919079356E+01  0.31886075490E+02  0.00000000000E+00 0. -1.
         11    1    3    3    0    0 -0.65047916937E+01  0.28761206448E+02  0.12116169321E+02  0.31879787807E+02  0.51100000000E-03 0. -1.
        -11    1    3    3    0    0 -0.37403281334E+01  0.75596449433E+01 -0.94569148869E+01  0.12671682037E+02  0.51100000000E-03 0.  1.
        -12    1    3    3    0    0 -0.45972200184E+01 -0.92257494870E+01 -0.10551162370E+02  0.14750454666E+02  0.00000000000E+00 0.  1.
</event>
<event>
 7    1  0.8764188E-013  0.5930194E+02  0.7816164E-02  0.1266605E+00
        -11   -1    0    0    0    0  0.00000000000E+00  0.00000000000E+00  0.45593999997E+02  0.45594000000E+02  0.51100000000E-03 0. -1.
         11   -1    0    0    0    0 -0.00000000000E+00 -0.00000000000E+00 -0.45593999997E+02  0.45594000000E+02  0.51100000000E-03 0.  1.
    9900012    2    1    2    0    0  0.67215130777E+01 -0.14210201371E+02 -0.27741890116E+02  0.59301936770E+02  0.49999986764E+02 0.  0.
         12    1    1    2    0    0 -0.67215130777E+01  0.14210201371E+02  0.27741890116E+02  0.31886063230E+02  0.00000000000E+00 0. -1.
         11    1    3    3    0    0 -0.51041002023E-01 -0.15919674554E+02 -0.79386793955E+01  0.17789358445E+02  0.51100000000E-03 0. -1.
        -11    1    3    3    0    0 -0.33541135072E+00  0.10183406987E+01 -0.29472463776E+02  0.29491958902E+02  0.51100000000E-03 0.  1.
         12    1    3    3    0    0  0.71079654305E+01  0.69113248357E+00  0.96692530556E+01  0.12020619423E+02  0.00000000000E+00 0. -1.
</event>
<event>
 7    1  0.6593656E-013  0.5930195E+02  0.7816164E-02  0.1266605E+00
        -11   -1    0    0    0    0  0.00000000000E+00  0.00000000000E+00  0.45593999997E+02  0.45594000000E+02  0.51100000000E-03 0. -1.
         11   -1    0    0    0    0 -0.00000000000E+00 -0.00000000000E+00 -0.45593999997E+02  0.45594000000E+02  0.51100000000E-03 0.  1.
    9900012    2    1    2    0    0 -0.21563556399E+02  0.23477671813E+02 -0.72936895829E+00  0.59301952622E+02  0.50000015674E+02 0.  0.
         12    1    1    2    0    0  0.21563556399E+02 -0.23477671813E+02  0.72936895829E+00  0.31886047378E+02  0.00000000000E+00 0. -1.
         11    1    3    3    0    0  0.58699300313E+01  0.18685450538E+02 -0.35292843258E+00  0.19588943288E+02  0.51100000000E-03 0. -1.
        -11    1    3    3    0    0 -0.17429043352E+02  0.11014097858E+02 -0.11416496698E+02  0.23567314248E+02  0.51100000000E-03 0.  1.
         12    1    3    3    0    0 -0.10004443078E+02 -0.62218765827E+01  0.11040056172E+02  0.16145695086E+02  0.00000000000E+00 0. -1.
</event>
<event>
 7    1  0.6593656E-013  0.5930194E+02  0.7816164E-02  0.1266605E+00
        -11   -1    0    0    0    0  0.00000000000E+00  0.00000000000E+00  0.45593999997E+02  0.45594000000E+02  0.51100000000E-03 0.  1.
         11   -1    0    0    0    0 -0.00000000000E+00 -0.00000000000E+00 -0.45593999997E+02  0.45594000000E+02  0.51100000000E-03 0. -1.
    9900012    2    1    2    0    0  0.15255432784E+02  0.11972863717E+02  0.25310925924E+02  0.59301942449E+02  0.49999997121E+02 0.  0.
         12    1    1    2    0    0 -0.15255432784E+02 -0.11972863717E+02 -0.25310925924E+02  0.31886057551E+02  0.00000000000E+00 0. -1.
         11    1    3    3    0    0  0.53113412647E+01 -0.13280710422E+00 -0.95828154330E+01  0.10957113472E+02  0.51100000000E-03 0. -1.
        -11    1    3    3    0    0  0.19923852658E+02  0.53220571576E+01  0.16814899977E+02  0.26608740268E+02  0.51100000000E-03 0.  1.
         12    1    3    3    0    0 -0.99797611391E+01  0.67836136632E+01  0.18078841380E+02  0.21736088709E+02  0.00000000000E+00 0. -1.
</event>
<event>
 7    1  0.6593656E-013  0.5930190E+02  0.7816164E-02  0.1266605E+00
        -11   -1    0    0    0    0  0.00000000000E+00  0.00000000000E+00  0.45593999997E+02  0.45594000000E+02  0.51100000000E-03 0.  1.
         11   -1    0    0    0    0 -0.00000000000E+00 -0.00000000000E+00 -0.45593999997E+02  0.45594000000E+02  0.51100000000E-03 0. -1.
    9900012    2    1    2    0    0 -0.22717433727E+02  0.16373448481E+02  0.15249644118E+02  0.59301901838E+02  0.49999923055E+02 0.  0.
         12    1    1    2    0    0  0.22717433727E+02 -0.16373448481E+02 -0.15249644118E+02  0.31886098162E+02  0.00000000000E+00 0. -1.
         11    1    3    3    0    0  0.27133163418E+01  0.43418479273E+01 -0.51994997622E+01  0.72971588329E+01  0.51100000000E-03 0. -1.
        -11    1    3    3    0    0  0.37325511643E+01  0.47137926624E+01  0.21090177186E+02  0.21930511928E+02  0.51100000000E-03 0.  1.
         12    1    3    3    0    0 -0.29163301233E+02  0.73178078915E+01 -0.64103330510E+00  0.30074231076E+02  0.00000000000E+00 0. -1.
</event>
<event>
 7    1  0.6593656E-013  0.5930233E+02  0.7816164E-02  0.1266603E+00
        -11   -1    0    0    0    0  0.00000000000E+00  0.00000000000E+00  0.45593999997E+02  0.45594000000E+02  0.51100000000E-03 0.  1.
         11   -1    0    0    0    0 -0.00000000000E+00 -0.00000000000E+00 -0.45593999997E+02  0.45594000000E+02  0.51100000000E-03 0. -1.
    9900012    2    1    2    0    0 -0.17199120593E+02  0.55527929352E+01  0.26268852261E+02  0.59302331469E+02  0.50000706595E+02 0.  0.
         12    1    1    2    0    0  0.17199120593E+02 -0.55527929352E+01 -0.26268852261E+02  0.31885668531E+02  0.00000000000E+00 0. -1.
         11    1    3    3    0    0 -0.84292186384E+01 -0.39413851149E+01  0.54314044155E+01  0.10774339779E+02  0.51100000000E-03 0.  1.
        -11    1    3    3    0    0  0.68723125676E+01 -0.20635227180E+01 -0.98560737091E+01  0.12191349197E+02  0.51100000000E-03 0. -1.
         12    1    3    3    0    0 -0.15642214522E+02  0.11557700768E+02  0.30693521555E+02  0.36336642493E+02  0.00000000000E+00 0. -1.
</event>
<event>
 7    1  0.6593656E-013  0.5930199E+02  0.7816164E-02  0.1266605E+00
        -11   -1    0    0    0    0  0.00000000000E+00  0.00000000000E+00  0.45593999997E+02  0.45594000000E+02  0.51100000000E-03 0.  1.
         11   -1    0    0    0    0 -0.00000000000E+00 -0.00000000000E+00 -0.45593999997E+02  0.45594000000E+02  0.51100000000E-03 0. -1.
    9900012    2    1    2    0    0 -0.22505074889E+01  0.29994729221E+02 -0.10581552256E+02  0.59301987187E+02  0.50000078711E+02 0.  0.
         12    1    1    2    0    0  0.22505074889E+01 -0.29994729221E+02  0.10581552256E+02  0.31886012813E+02  0.00000000000E+00 0. -1.
         11    1    3    3    0    0 -0.54352830226E+01  0.11677166330E+02 -0.21405065048E+02  0.24981499655E+02  0.51100000000E-03 0. -1.
        -11    1    3    3    0    0 -0.35908523581E+01  0.14794420544E-01 -0.70144191333E+01  0.78801342356E+01  0.51100000000E-03 0.  1.
        -12    1    3    3    0    0  0.67756278918E+01  0.18302768471E+02  0.17837931926E+02  0.26440353296E+02  0.00000000000E+00 0.  1.
</event>
<event>
 7    1  0.6593656E-013  0.5930217E+02  0.7816164E-02  0.1266604E+00
        -11   -1    0    0    0    0  0.00000000000E+00  0.00000000000E+00  0.45593999997E+02  0.45594000000E+02  0.51100000000E-03 0.  1.
         11   -1    0    0    0    0 -0.00000000000E+00 -0.00000000000E+00 -0.45593999997E+02  0.45594000000E+02  0.51100000000E-03 0. -1.
    9900012    2    1    2    0    0 -0.19943236698E+02  0.19934994547E+02  0.14885215154E+02  0.59302167288E+02  0.50000407171E+02 0.  0.
         12    1    1    2    0    0  0.19943236698E+02 -0.19934994547E+02 -0.14885215154E+02  0.31885832712E+02  0.00000000000E+00 0. -1.
         11    1    3    3    0    0 -0.20117880990E-01  0.76488267515E+01  0.57581677277E+01  0.95739987071E+01  0.51100000000E-03 0. -1.
        -11    1    3    3    0    0  0.59829733681E+01  0.20656831977E+02  0.59816154644E+01  0.22322195265E+02  0.51100000000E-03 0.  1.
         12    1    3    3    0    0 -0.25906092185E+02 -0.83706641808E+01  0.31454319618E+01  0.27405973315E+02  0.00000000000E+00 0. -1.
</event>
<event>
 7    1  0.6593656E-013  0.5930194E+02  0.7816164E-02  0.1266605E+00
        -11   -1    0    0    0    0  0.00000000000E+00  0.00000000000E+00  0.45593999997E+02  0.45594000000E+02  0.51100000000E-03 0. -1.
         11   -1    0    0    0    0 -0.00000000000E+00 -0.00000000000E+00 -0.45593999997E+02  0.45594000000E+02  0.51100000000E-03 0.  1.
    9900012    2    1    2    0    0  0.26252157343E+02 -0.15655197956E+02 -0.90807341962E+01  0.59301941577E+02  0.49999995530E+02 0.  0.
         12    1    1    2    0    0 -0.26252157343E+02  0.15655197956E+02  0.90807341962E+01  0.31886058423E+02  0.00000000000E+00 0. -1.
         11    1    3    3    0    0  0.89617933688E+01 -0.82763792938E+01 -0.45538104047E+01  0.13021113012E+02  0.51100000000E-03 0. -1.
        -11    1    3    3    0    0  0.26844253662E+02 -0.31169179354E+01 -0.15472092110E+02  0.31140243521E+02  0.51100000000E-03 0.  1.
         12    1    3    3    0    0 -0.95538896870E+01 -0.42619007265E+01  0.10945168318E+02  0.15140585044E+02  0.00000000000E+00 0. -1.
</event>
<event>
 7    1  0.6593656E-013  0.5930194E+02  0.7816164E-02  0.1266605E+00
        -11   -1    0    0    0    0  0.00000000000E+00  0.00000000000E+00  0.45593999997E+02  0.45594000000E+02  0.51100000000E-03 0. -1.
         11   -1    0    0    0    0 -0.00000000000E+00 -0.00000000000E+00 -0.45593999997E+02  0.45594000000E+02  0.51100000000E-03 0.  1.
    9900012    2    1    2    0    0  0.28996275469E+02  0.12680105171E+02 -0.38925489043E+01  0.59301937289E+02  0.49999987710E+02 0.  0.
         12    1    1    2    0    0 -0.28996275469E+02 -0.12680105171E+02  0.38925489043E+01  0.31886062711E+02  0.00000000000E+00 0. -1.
         11    1    3    3    0    0  0.19545470863E+02  0.10182972964E+02 -0.25848862603E+01  0.22190088033E+02  0.51100000000E-03 0.  1.
        -11    1    3    3    0    0  0.10588923347E+02  0.84590857307E+01 -0.16145951770E+02  0.21080161002E+02  0.51100000000E-03 0. -1.
         12    1    3    3    0    0 -0.11381187411E+01 -0.59619535234E+01  0.14838289126E+02  0.16031688254E+02  0.00000000000E+00 0. -1.
</event>
<event>
 7    1  0.6593656E-013  0.5930194E+02  0.7816164E-02  0.1266605E+00
        -11   -1    0    0    0    0  0.00000000000E+00  0.00000000000E+00  0.45593999997E+02  0.45594000000E+02  0.51100000000E-03 0.  1.
         11   -1    0    0    0    0 -0.00000000000E+00 -0.00000000000E+00 -0.45593999997E+02  0.45594000000E+02  0.51100000000E-03 0. -1.
    9900012    2    1    2    0    0  0.72739334936E+01  0.17930984846E+02  0.25343454358E+02  0.59301937138E+02  0.49999987435E+02 0.  0.
         12    1    1    2    0    0 -0.72739334936E+01 -0.17930984846E+02 -0.25343454358E+02  0.31886062862E+02  0.00000000000E+00 0. -1.
         11    1    3    3    0    0 -0.75411244704E+01  0.18862937509E+02  0.10095788391E+02  0.22684882923E+02  0.51100000000E-03 0. -1.
        -11    1    3    3    0    0 -0.22358461552E+00  0.11990804178E+02  0.11138508576E+02  0.16367521146E+02  0.51100000000E-03 0.  1.
         12    1    3    3    0    0  0.15038642579E+02 -0.12922756841E+02  0.41091573914E+01  0.20249533068E+02  0.00000000000E+00 0. -1.
</event>
<event>
 7    1  0.6593656E-013  0.5930195E+02  0.7816164E-02  0.1266605E+00
        -11   -1    0    0    0    0  0.00000000000E+00  0.00000000000E+00  0.45593999997E+02  0.45594000000E+02  0.51100000000E-03 0.  1.
         11   -1    0    0    0    0 -0.00000000000E+00 -0.00000000000E+00 -0.45593999997E+02  0.45594000000E+02  0.51100000000E-03 0. -1.
    9900012    2    1    2    0    0  0.14780240028E+02  0.14384599298E+02  0.24317641800E+02  0.59301954541E+02  0.50000019174E+02 0.  0.
         12    1    1    2    0    0 -0.14780240028E+02 -0.14384599298E+02 -0.24317641800E+02  0.31886045459E+02  0.00000000000E+00 0. -1.
         11    1    3    3    0    0 -0.31243156483E+00  0.97457107145E+00  0.60442951053E+01  0.61303267317E+01  0.51100000000E-03 0.  1.
        -11    1    3    3    0    0 -0.90964632539E+01  0.17344327436E+02  0.20758179764E+02  0.28538979753E+02  0.51100000000E-03 0. -1.
         12    1    3    3    0    0  0.24189134847E+02 -0.39342992092E+01 -0.24848330691E+01  0.24632648057E+02  0.00000000000E+00 0. -1.
</event>
<event>
 7    1  0.6593656E-013  0.5930194E+02  0.7816164E-02  0.1266605E+00
        -11   -1    0    0    0    0  0.00000000000E+00  0.00000000000E+00  0.45593999997E+02  0.45594000000E+02  0.51100000000E-03 0.  1.
         11   -1    0    0    0    0 -0.00000000000E+00 -0.00000000000E+00 -0.45593999997E+02  0.45594000000E+02  0.51100000000E-03 0. -1.
    9900012    2    1    2    0    0  0.24104919749E+02 -0.70936135528E+01  0.19630443370E+02  0.59301940096E+02  0.49999992829E+02 0.  0.
         12    1    1    2    0    0 -0.24104919749E+02  0.70936135528E+01 -0.19630443370E+02  0.31886059904E+02  0.00000000000E+00 0. -1.
         11    1    3    3    0    0  0.74696772947E+01  0.10859418861E+02 -0.69999941458E+00  0.13198979367E+02  0.51100000000E-03 0. -1.
        -11    1    3    3    0    0  0.22810622625E+00  0.53306709294E+01 -0.54916804389E+01  0.76568034657E+01  0.51100000000E-03 0.  1.
        -12    1    3    3    0    0  0.16407136228E+02 -0.23283703343E+02  0.25822123223E+02  0.38446157263E+02  0.00000000000E+00 0.  1.
</event>
<event>
 7    1  0.6593656E-013  0.5930195E+02  0.7816164E-02  0.1266605E+00
        -11   -1    0    0    0    0  0.00000000000E+00  0.00000000000E+00  0.45593999997E+02  0.45594000000E+02  0.51100000000E-03 0.  1.
         11   -1    0    0    0    0 -0.00000000000E+00 -0.00000000000E+00 -0.45593999997E+02  0.45594000000E+02  0.51100000000E-03 0. -1.
    9900012    2    1    2    0    0  0.29891589294E+02 -0.92748385878E+01  0.60983752994E+01  0.59301954108E+02  0.50000018384E+02 0.  0.
         12    1    1    2    0    0 -0.29891589294E+02  0.92748385878E+01 -0.60983752994E+01  0.31886045892E+02  0.00000000000E+00 0. -1.
         11    1    3    3    0    0  0.13859019785E+02 -0.89098442509E+01  0.55962462126E+01  0.17400451888E+02  0.51100000000E-03 0. -1.
        -11    1    3    3    0    0  0.26557473285E+02 -0.52826105905E+01  0.78043605484E+01  0.28180017846E+02  0.51100000000E-03 0.  1.
         12    1    3    3    0    0 -0.10524903777E+02  0.49176162536E+01 -0.73022314616E+01  0.13721484375E+02  0.00000000000E+00 0. -1.
</event>
<event>
 7    1  0.6593656E-013  0.5930195E+02  0.7816164E-02  0.1266605E+00
        -11   -1    0    0    0    0  0.00000000000E+00  0.00000000000E+00  0.45593999997E+02  0.45594000000E+02  0.51100000000E-03 0.  1.
         11   -1    0    0    0    0 -0.00000000000E+00 -0.00000000000E+00 -0.45593999997E+02  0.45594000000E+02  0.51100000000E-03 0. -1.
    9900012    2    1    2    0    0  0.13796585602E+02  0.97766045261E+01  0.27033170855E+02  0.59301951377E+02  0.50000013403E+02 0.  0.
         12    1    1    2    0    0 -0.13796585602E+02 -0.97766045261E+01 -0.27033170855E+02  0.31886048623E+02  0.00000000000E+00 0. -1.
         11    1    3    3    0    0 -0.79157048647E+01 -0.48152985170E+01  0.90468349663E+01  0.12949544644E+02  0.51100000000E-03 0. -1.
        -11    1    3    3    0    0  0.95978199024E+01 -0.67831995282E+01 -0.49389675292E+01  0.12748464348E+02  0.51100000000E-03 0.  1.
        -12    1    3    3    0    0  0.12114470565E+02  0.21375102571E+02  0.22925303418E+02  0.33603942385E+02  0.00000000000E+00 0.  1.
</event>
<event>
 7    1  0.6593656E-013  0.5930180E+02  0.7816164E-02  0.1266605E+00
        -11   -1    0    0    0    0  0.00000000000E+00  0.00000000000E+00  0.45593999997E+02  0.45594000000E+02  0.51100000000E-03 0. -1.
         11   -1    0    0    0    0 -0.00000000000E+00 -0.00000000000E+00 -0.45593999997E+02  0.45594000000E+02  0.51100000000E-03 0.  1.
    9900012    2    1    2    0    0 -0.28883962807E+02  0.20651929293E+01 -0.13348464654E+02  0.59301798629E+02  0.49999734827E+02 0.  0.
         12    1    1    2    0    0  0.28883962807E+02 -0.20651929293E+01  0.13348464654E+02  0.31886201371E+02  0.00000000000E+00 0. -1.
         11    1    3    3    0    0  0.75936239872E+01 -0.12385274294E+02 -0.37265381657E+01  0.14998174274E+02  0.51100000000E-03 0. -1.
        -11    1    3    3    0    0 -0.16154589039E+02 -0.27207773668E+01 -0.60284823828E+01  0.17456115736E+02  0.51100000000E-03 0.  1.
        -12    1    3    3    0    0 -0.20322997755E+02  0.17171244590E+02 -0.35934441050E+01  0.26847508619E+02  0.00000000000E+00 0.  1.
</event>
<event>
 7    1  0.6593656E-013  0.5930193E+02  0.7816164E-02  0.1266605E+00
        -11   -1    0    0    0    0  0.00000000000E+00  0.00000000000E+00  0.45593999997E+02  0.45594000000E+02  0.51100000000E-03 0.  1.
         11   -1    0    0    0    0 -0.00000000000E+00 -0.00000000000E+00 -0.45593999997E+02  0.45594000000E+02  0.51100000000E-03 0. -1.
    9900012    2    1    2    0    0  0.15092840249E+02  0.66650089556E+01  0.27285620475E+02  0.59301933202E+02  0.49999980256E+02 0.  0.
         12    1    1    2    0    0 -0.15092840249E+02 -0.66650089556E+01 -0.27285620475E+02  0.31886066798E+02  0.00000000000E+00 0. -1.
         11    1    3    3    0    0  0.31016301398E+01  0.11768257358E+02  0.37033142635E+01  0.12721105596E+02  0.51100000000E-03 0.  1.
        -11    1    3    3    0    0 -0.81445061934E+01 -0.15088392641E+02  0.14049899951E+02  0.22167369319E+02  0.51100000000E-03 0. -1.
         12    1    3    3    0    0  0.20135716302E+02  0.99851442377E+01  0.95324062602E+01  0.24413458288E+02  0.00000000000E+00 0. -1.
</event>
<event>
 7    1  0.6593656E-013  0.5930194E+02  0.7816164E-02  0.1266605E+00
        -11   -1    0    0    0    0  0.00000000000E+00  0.00000000000E+00  0.45593999997E+02  0.45594000000E+02  0.51100000000E-03 0.  1.
         11   -1    0    0    0    0 -0.00000000000E+00 -0.00000000000E+00 -0.45593999997E+02  0.45594000000E+02  0.51100000000E-03 0. -1.
    9900012    2    1    2    0    0 -0.23584061068E+02  0.14938617142E+02 -0.15406191691E+02  0.59301937825E+02  0.49999988689E+02 0.  0.
         12    1    1    2    0    0  0.23584061068E+02 -0.14938617142E+02  0.15406191691E+02  0.31886062175E+02  0.00000000000E+00 0. -1.
         11    1    3    3    0    0 -0.81841199625E+01 -0.70359631083E+01  0.57793588924E+01  0.12242776886E+02  0.51100000000E-03 0. -1.
        -11    1    3    3    0    0 -0.53642348246E+00 -0.62224473635E+01 -0.12577149954E+02  0.14042482066E+02  0.51100000000E-03 0.  1.
        -12    1    3    3    0    0 -0.14863517623E+02  0.28197027614E+02 -0.86084006286E+01  0.33016678873E+02  0.00000000000E+00 0.  1.
</event>
<event>
 7    1  0.6593656E-013  0.5930193E+02  0.7816164E-02  0.1266605E+00
        -11   -1    0    0    0    0  0.00000000000E+00  0.00000000000E+00  0.45593999997E+02  0.45594000000E+02  0.51100000000E-03 0.  1.
         11   -1    0    0    0    0 -0.00000000000E+00 -0.00000000000E+00 -0.45593999997E+02  0.45594000000E+02  0.51100000000E-03 0. -1.
    9900012    2    1    2    0    0  0.14088674206E+01  0.30991648795E+02  0.73657534485E+01  0.59301928961E+02  0.49999972521E+02 0.  0.
         12    1    1    2    0    0 -0.14088674206E+01 -0.30991648795E+02 -0.73657534485E+01  0.31886071039E+02  0.00000000000E+00 0. -1.
         11    1    3    3    0    0  0.87802883662E+01  0.26348072521E+01  0.65116623349E+00  0.91901953610E+01  0.51100000000E-03 0. -1.
        -11    1    3    3    0    0  0.77341743262E+01 -0.71281866200E+01 -0.16555494005E+01  0.10647503983E+02  0.51100000000E-03 0.  1.
         12    1    3    3    0    0 -0.15105595272E+02  0.35485028163E+02  0.83701366155E+01  0.39464229616E+02  0.00000000000E+00 0. -1.
</event>
<event>
 7    1  0.6593656E-013  0.5930188E+02  0.7816164E-02  0.1266605E+00
        -11   -1    0    0    0    0  0.00000000000E+00  0.00000000000E+00  0.45593999997E+02  0.45594000000E+02  0.51100000000E-03 0.  1.
         11   -1    0    0    0    0 -0.00000000000E+00 -0.00000000000E+00 -0.45593999997E+02  0.45594000000E+02  0.51100000000E-03 0. -1.
    9900012    2    1    2    0    0  0.19016028008E+02  0.20042469898E+02  0.15919013415E+02  0.59301875918E+02  0.49999875785E+02 0.  0.
         12    1    1    2    0    0 -0.19016028008E+02 -0.20042469898E+02 -0.15919013415E+02  0.31886124082E+02  0.00000000000E+00 0. -1.
         11    1    3    3    0    0 -0.67513077309E+01 -0.80381233293E+01  0.64792853701E+01  0.12335830815E+02  0.51100000000E-03 0. -1.
        -11    1    3    3    0    0  0.75094938620E+01  0.21369527938E+01 -0.76507271234E+01  0.10931271247E+02  0.51100000000E-03 0.  1.
        -12    1    3    3    0    0  0.18257841877E+02  0.25943640434E+02  0.17090455168E+02  0.36034773856E+02  0.00000000000E+00 0.  1.
</event>
<event>
 7    1  0.6593656E-013  0.5930195E+02  0.7816164E-02  0.1266605E+00
        -11   -1    0    0    0    0  0.00000000000E+00  0.00000000000E+00  0.45593999997E+02  0.45594000000E+02  0.51100000000E-03 0. -1.
         11   -1    0    0    0    0 -0.00000000000E+00 -0.00000000000E+00 -0.45593999997E+02  0.45594000000E+02  0.51100000000E-03 0.  1.
    9900012    2    1    2    0    0  0.18716782085E+02 -0.25620250496E+02  0.31631199370E+01  0.59301945135E+02  0.50000002020E+02 0.  0.
         12    1    1    2    0    0 -0.18716782085E+02  0.25620250496E+02 -0.31631199370E+01  0.31886054865E+02  0.00000000000E+00 0. -1.
         11    1    3    3    0    0 -0.59825659430E+01 -0.31327991251E+01  0.12514575761E+01  0.68681636517E+01  0.51100000000E-03 0. -1.
        -11    1    3    3    0    0 -0.11170869518E+02 -0.66342145887E+01  0.24065321081E+01  0.13213346512E+02  0.51100000000E-03 0.  1.
        -12    1    3    3    0    0  0.35870217546E+02 -0.15853236782E+02 -0.49486974710E+00  0.39220434972E+02  0.00000000000E+00 0.  1.
</event>
<event>
 7    1  0.6593656E-013  0.5930203E+02  0.7816164E-02  0.1266604E+00
        -11   -1    0    0    0    0  0.00000000000E+00  0.00000000000E+00  0.45593999997E+02  0.45594000000E+02  0.51100000000E-03 0. -1.
         11   -1    0    0    0    0 -0.00000000000E+00 -0.00000000000E+00 -0.45593999997E+02  0.45594000000E+02  0.51100000000E-03 0.  1.
    9900012    2    1    2    0    0 -0.96419919055E+01  0.29579437370E+02 -0.69859952555E+01  0.59302027336E+02  0.50000151935E+02 0.  0.
         12    1    1    2    0    0  0.96419919055E+01 -0.29579437370E+02  0.69859952555E+01  0.31885972664E+02  0.00000000000E+00 0. -1.
         11    1    3    3    0    0 -0.68257779511E+01  0.31345312800E+00 -0.63872095676E+01  0.93533921025E+01  0.51100000000E-03 0. -1.
        -11    1    3    3    0    0 -0.19895258591E+02  0.21852590437E+02 -0.67993110906E+01  0.30324703705E+02  0.51100000000E-03 0.  1.
         12    1    3    3    0    0  0.17079044636E+02  0.74133938041E+01  0.62005254027E+01  0.19623931529E+02  0.00000000000E+00 0. -1.
</event>
<event>
 7    1  0.6593656E-013  0.5930194E+02  0.7816164E-02  0.1266605E+00
        -11   -1    0    0    0    0  0.00000000000E+00  0.00000000000E+00  0.45593999997E+02  0.45594000000E+02  0.51100000000E-03 0. -1.
         11   -1    0    0    0    0 -0.00000000000E+00 -0.00000000000E+00 -0.45593999997E+02  0.45594000000E+02  0.51100000000E-03 0.  1.
    9900012    2    1    2    0    0  0.25707336293E+02 -0.96196869268E+00 -0.18839549020E+02  0.59301935171E+02  0.49999983847E+02 0.  0.
         12    1    1    2    0    0 -0.25707336293E+02  0.96196869268E+00  0.18839549020E+02  0.31886064829E+02  0.00000000000E+00 0. -1.
         11    1    3    3    0    0  0.77151270392E+01 -0.15006111633E+02 -0.14904556717E+02  0.22513382304E+02  0.51100000000E-03 0.  1.
        -11    1    3    3    0    0  0.34105843239E+01 -0.87911663233E+01 -0.14291631971E+00  0.94306477026E+01  0.51100000000E-03 0. -1.
         12    1    3    3    0    0  0.14581624929E+02  0.22835309263E+02 -0.37920759833E+01  0.27357905165E+02  0.00000000000E+00 0. -1.
</event>
<event>
 7    1  0.6593656E-013  0.5930194E+02  0.7816164E-02  0.1266605E+00
        -11   -1    0    0    0    0  0.00000000000E+00  0.00000000000E+00  0.45593999997E+02  0.45594000000E+02  0.51100000000E-03 0. -1.
         11   -1    0    0    0    0 -0.00000000000E+00 -0.00000000000E+00 -0.45593999997E+02  0.45594000000E+02  0.51100000000E-03 0.  1.
    9900012    2    1    2    0    0  0.22977689771E+02  0.56723418200E+01 -0.21367520752E+02  0.59301942984E+02  0.49999998097E+02 0.  0.
         12    1    1    2    0    0 -0.22977689771E+02 -0.56723418200E+01  0.21367520752E+02  0.31886057016E+02  0.00000000000E+00 0. -1.
         11    1    3    3    0    0  0.24868400010E+02  0.15380058820E+02 -0.45557340179E+01  0.29592874836E+02  0.51100000000E-03 0. -1.
        -11    1    3    3    0    0  0.86991299968E+01 -0.10491499996E+02 -0.73399461477E+01  0.15479704280E+02  0.51100000000E-03 0.  1.
         12    1    3    3    0    0 -0.10589840236E+02  0.78378299638E+00 -0.94718405863E+01  0.14229363869E+02  0.00000000000E+00 0. -1.
</event>
<event>
 7    1  0.6593656E-013  0.5930189E+02  0.7816164E-02  0.1266605E+00
        -11   -1    0    0    0    0  0.00000000000E+00  0.00000000000E+00  0.45593999997E+02  0.45594000000E+02  0.51100000000E-03 0. -1.
         11   -1    0    0    0    0 -0.00000000000E+00 -0.00000000000E+00 -0.45593999997E+02  0.45594000000E+02  0.51100000000E-03 0.  1.
    9900012    2    1    2    0    0 -0.31026894966E+02 -0.32197996155E+01 -0.66097487857E+01  0.59301888606E+02  0.49999898924E+02 0.  0.
         12    1    1    2    0    0  0.31026894966E+02  0.32197996155E+01  0.66097487857E+01  0.31886111394E+02  0.00000000000E+00 0. -1.
         11    1    3    3    0    0 -0.11381560836E+02 -0.23065721394E+01  0.11250725770E+02  0.16169076434E+02  0.51100000000E-03 0. -1.
        -11    1    3    3    0    0 -0.25377801526E+02  0.72600658747E+01 -0.50214929209E+01  0.26869253027E+02  0.51100000000E-03 0.  1.
        -12    1    3    3    0    0  0.57324673960E+01 -0.81732933508E+01 -0.12838981635E+02  0.16263559145E+02  0.00000000000E+00 0.  1.
</event>
<event>
 7    1  0.6593656E-013  0.5930194E+02  0.7816164E-02  0.1266605E+00
        -11   -1    0    0    0    0  0.00000000000E+00  0.00000000000E+00  0.45593999997E+02  0.45594000000E+02  0.51100000000E-03 0. -1.
         11   -1    0    0    0    0 -0.00000000000E+00 -0.00000000000E+00 -0.45593999997E+02  0.45594000000E+02  0.51100000000E-03 0.  1.
    9900012    2    1    2    0    0  0.57544029930E+01  0.19550298985E+02 -0.24523329425E+02  0.59301936739E+02  0.49999986707E+02 0.  0.
         12    1    1    2    0    0 -0.57544029930E+01 -0.19550298985E+02  0.24523329425E+02  0.31886063261E+02  0.00000000000E+00 0. -1.
         11    1    3    3    0    0 -0.15643754129E+01  0.41995952602E+01 -0.42372515497E+01  0.61675093626E+01  0.51100000000E-03 0. -1.
        -11    1    3    3    0    0 -0.11598403751E+02  0.84022176612E+01 -0.28084270649E+02  0.31525330915E+02  0.51100000000E-03 0.  1.
         12    1    3    3    0    0  0.18917182157E+02  0.69484860639E+01  0.77981927733E+01  0.21609096461E+02  0.00000000000E+00 0. -1.
</event>
<event>
 7    1  0.6593656E-013  0.5930194E+02  0.7816164E-02  0.1266605E+00
        -11   -1    0    0    0    0  0.00000000000E+00  0.00000000000E+00  0.45593999997E+02  0.45594000000E+02  0.51100000000E-03 0.  1.
         11   -1    0    0    0    0 -0.00000000000E+00 -0.00000000000E+00 -0.45593999997E+02  0.45594000000E+02  0.51100000000E-03 0. -1.
    9900012    2    1    2    0    0  0.24262759671E+02 -0.18313989382E+02  0.96248088621E+01  0.59301942553E+02  0.49999997310E+02 0.  0.
         12    1    1    2    0    0 -0.24262759671E+02  0.18313989382E+02 -0.96248088621E+01  0.31886057447E+02  0.00000000000E+00 0. -1.
         11    1    3    3    0    0  0.86709101108E+01  0.73283097100E+01 -0.66699274506E+01  0.13167260072E+02  0.51100000000E-03 0. -1.
        -11    1    3    3    0    0  0.19745594339E+02 -0.15448068637E+02 -0.16040291726E+01  0.25121787959E+02  0.51100000000E-03 0.  1.
         12    1    3    3    0    0 -0.41537447791E+01 -0.10194230455E+02  0.17898765485E+02  0.21012894521E+02  0.00000000000E+00 0. -1.
</event>
<event>
 7    1  0.6593656E-013  0.5930207E+02  0.7816164E-02  0.1266604E+00
        -11   -1    0    0    0    0  0.00000000000E+00  0.00000000000E+00  0.45593999997E+02  0.45594000000E+02  0.51100000000E-03 0.  1.
         11   -1    0    0    0    0 -0.00000000000E+00 -0.00000000000E+00 -0.45593999997E+02  0.45594000000E+02  0.51100000000E-03 0. -1.
    9900012    2    1    2    0    0 -0.15895384057E+02 -0.24894216175E+02 -0.12013618377E+02  0.59302074268E+02  0.50000237526E+02 0.  0.
         12    1    1    2    0    0  0.15895384057E+02  0.24894216175E+02  0.12013618377E+02  0.31885925732E+02  0.00000000000E+00 0. -1.
         11    1    3    3    0    0 -0.25411877013E+02  0.16775615953E+01 -0.49356408404E+01  0.25941053506E+02  0.51100000000E-03 0. -1.
        -11    1    3    3    0    0  0.42884287896E+01 -0.86293076311E+01 -0.10619507013E+02  0.14339787346E+02  0.51100000000E-03 0.  1.
        -12    1    3    3    0    0  0.52280641663E+01 -0.17942470139E+02  0.35415294761E+01  0.19021233416E+02  0.00000000000E+00 0.  1.
</event>
<event>
 7    1  0.6593656E-013  0.5930192E+02  0.7816164E-02  0.1266605E+00
        -11   -1    0    0    0    0  0.00000000000E+00  0.00000000000E+00  0.45593999997E+02  0.45594000000E+02  0.51100000000E-03 0. -1.
         11   -1    0    0    0    0 -0.00000000000E+00 -0.00000000000E+00 -0.45593999997E+02  0.45594000000E+02  0.51100000000E-03 0.  1.
    9900012    2    1    2    0    0  0.15322396906E+02  0.19897714469E+02 -0.19647572556E+02  0.59301921606E+02  0.49999959107E+02 0.  0.
         12    1    1    2    0    0 -0.15322396906E+02 -0.19897714469E+02  0.19647572556E+02  0.31886078394E+02  0.00000000000E+00 0. -1.
         11    1    3    3    0    0  0.53697561906E+01  0.10174870159E+02  0.68879155220E+01  0.13409162718E+02  0.51100000000E-03 0. -1.
        -11    1    3    3    0    0  0.16218927140E+02  0.17596671231E+02 -0.87932531293E+01  0.25495445414E+02  0.51100000000E-03 0.  1.
        -12    1    3    3    0    0 -0.62662864246E+01 -0.78738269220E+01 -0.17742234949E+02  0.20397313473E+02  0.00000000000E+00 0.  1.
</event>
<event>
 7    1  0.6593656E-013  0.5930194E+02  0.7816164E-02  0.1266605E+00
        -11   -1    0    0    0    0  0.00000000000E+00  0.00000000000E+00  0.45593999997E+02  0.45594000000E+02  0.51100000000E-03 0. -1.
         11   -1    0    0    0    0 -0.00000000000E+00 -0.00000000000E+00 -0.45593999997E+02  0.45594000000E+02  0.51100000000E-03 0.  1.
    9900012    2    1    2    0    0 -0.13515143329E+02 -0.31937180529E+01 -0.28702989093E+02  0.59301944787E+02  0.50000001384E+02 0.  0.
         12    1    1    2    0    0  0.13515143329E+02  0.31937180529E+01  0.28702989093E+02  0.31886055213E+02  0.00000000000E+00 0. -1.
         11    1    3    3    0    0  0.99028772212E+01 -0.69568428917E+01 -0.12975835189E+00  0.12102953266E+02  0.51100000000E-03 0. -1.
        -11    1    3    3    0    0 -0.11867939912E+02  0.12083989532E+02 -0.28276063216E+02  0.32960681911E+02  0.51100000000E-03 0.  1.
         12    1    3    3    0    0 -0.11550080639E+02 -0.83208646929E+01 -0.29716752445E+00  0.14238309609E+02  0.00000000000E+00 0. -1.
</event>
<event>
 7    1  0.6593656E-013  0.5930235E+02  0.7816164E-02  0.1266603E+00
        -11   -1    0    0    0    0  0.00000000000E+00  0.00000000000E+00  0.45593999997E+02  0.45594000000E+02  0.51100000000E-03 0. -1.
         11   -1    0    0    0    0 -0.00000000000E+00 -0.00000000000E+00 -0.45593999997E+02  0.45594000000E+02  0.51100000000E-03 0.  1.
    9900012    2    1    2    0    0 -0.15388528023E+02 -0.14097405407E+02 -0.24107070618E+02  0.59302352951E+02  0.50000745773E+02 0.  0.
         12    1    1    2    0    0  0.15388528023E+02  0.14097405407E+02  0.24107070618E+02  0.31885647049E+02  0.00000000000E+00 0. -1.
         11    1    3    3    0    0 -0.20224905565E+02 -0.17257226186E+01 -0.16426399023E+02  0.26112286549E+02  0.51100000000E-03 0. -1.
        -11    1    3    3    0    0 -0.90577565032E+01  0.44096513982E+01 -0.49762826673E+01  0.11236163392E+02  0.51100000000E-03 0.  1.
         12    1    3    3    0    0  0.13894134045E+02 -0.16781334187E+02 -0.27043889273E+01  0.21953903011E+02  0.00000000000E+00 0. -1.
</event>
<event>
 7    1  0.6593656E-013  0.5930195E+02  0.7816164E-02  0.1266605E+00
        -11   -1    0    0    0    0  0.00000000000E+00  0.00000000000E+00  0.45593999997E+02  0.45594000000E+02  0.51100000000E-03 0. -1.
         11   -1    0    0    0    0 -0.00000000000E+00 -0.00000000000E+00 -0.45593999997E+02  0.45594000000E+02  0.51100000000E-03 0.  1.
    9900012    2    1    2    0    0  0.29361531293E+02  0.13407873955E+01 -0.12362160809E+02  0.59301948966E+02  0.50000009006E+02 0.  0.
         12    1    1    2    0    0 -0.29361531293E+02 -0.13407873955E+01  0.12362160809E+02  0.31886051034E+02  0.00000000000E+00 0. -1.
         11    1    3    3    0    0  0.45754838039E+01  0.97379426679E+00 -0.15651938195E+02  0.16336048997E+02  0.51100000000E-03 0. -1.
        -11    1    3    3    0    0 -0.56232707038E+01  0.95120956320E+01  0.16123187373E+01  0.11166947152E+02  0.51100000000E-03 0.  1.
         12    1    3    3    0    0  0.30409318193E+02 -0.91451025032E+01  0.16774586492E+01  0.31798952817E+02  0.00000000000E+00 0. -1.
</event>
<event>
 7    1  0.6593656E-013  0.5930195E+02  0.7816164E-02  0.1266605E+00
        -11   -1    0    0    0    0  0.00000000000E+00  0.00000000000E+00  0.45593999997E+02  0.45594000000E+02  0.51100000000E-03 0.  1.
         11   -1    0    0    0    0 -0.00000000000E+00 -0.00000000000E+00 -0.45593999997E+02  0.45594000000E+02  0.51100000000E-03 0. -1.
    9900012    2    1    2    0    0  0.53251260631E+01 -0.12257091627E+02  0.28950420924E+02  0.59301950787E+02  0.50000012327E+02 0.  0.
         12    1    1    2    0    0 -0.53251260631E+01  0.12257091627E+02 -0.28950420924E+02  0.31886049213E+02  0.00000000000E+00 0. -1.
         11    1    3    3    0    0  0.97409124482E+01 -0.13111797759E+02  0.18948521968E+01  0.16443694259E+02  0.51100000000E-03 0. -1.
        -11    1    3    3    0    0  0.97344729192E+01 -0.71591640116E+01  0.97467476883E+00  0.12122853770E+02  0.51100000000E-03 0.  1.
        -12    1    3    3    0    0 -0.14150259304E+02  0.80138701427E+01  0.26080893958E+02  0.30735402758E+02  0.00000000000E+00 0.  1.
</event>
<event>
 7    1  0.6593656E-013  0.5930198E+02  0.7816164E-02  0.1266605E+00
        -11   -1    0    0    0    0  0.00000000000E+00  0.00000000000E+00  0.45593999997E+02  0.45594000000E+02  0.51100000000E-03 0. -1.
         11   -1    0    0    0    0 -0.00000000000E+00 -0.00000000000E+00 -0.45593999997E+02  0.45594000000E+02  0.51100000000E-03 0.  1.
    9900012    2    1    2    0    0 -0.10648617922E+02  0.29482631948E+02 -0.58394774782E+01  0.59301981944E+02  0.50000069150E+02 0.  0.
         12    1    1    2    0    0  0.10648617922E+02 -0.29482631948E+02  0.58394774782E+01  0.31886018056E+02  0.00000000000E+00 0. -1.
         11    1    3    3    0    0  0.19207918620E+01  0.15255428420E+02 -0.16097648112E+02  0.22260993074E+02  0.51100000000E-03 0. -1.
        -11    1    3    3    0    0 -0.72865008822E+01  0.10975088403E+02 -0.95584356101E+01  0.16276036131E+02  0.51100000000E-03 0.  1.
         12    1    3    3    0    0 -0.52829089021E+01  0.32521151254E+01  0.19816606243E+02  0.20764952739E+02  0.00000000000E+00 0. -1.
</event>
<event>
 7    1  0.6593656E-013  0.5930196E+02  0.7816164E-02  0.1266605E+00
        -11   -1    0    0    0    0  0.00000000000E+00  0.00000000000E+00  0.45593999997E+02  0.45594000000E+02  0.51100000000E-03 0. -1.
         11   -1    0    0    0    0 -0.00000000000E+00 -0.00000000000E+00 -0.45593999997E+02  0.45594000000E+02  0.51100000000E-03 0.  1.
    9900012    2    1    2    0    0 -0.62377966682E+01 -0.11640152152E+02 -0.29022684666E+02  0.59301961133E+02  0.50000031197E+02 0.  0.
         12    1    1    2    0    0  0.62377966682E+01  0.11640152152E+02  0.29022684666E+02  0.31886038867E+02  0.00000000000E+00 0. -1.
         11    1    3    3    0    0  0.94425975763E+01 -0.26606078270E+01 -0.34857648791E+01  0.10411149795E+02  0.51100000000E-03 0. -1.
        -11    1    3    3    0    0  0.73517743795E+01 -0.15583562019E+02 -0.14459218221E+02  0.22493665409E+02  0.51100000000E-03 0.  1.
        -12    1    3    3    0    0 -0.23032168624E+02  0.66040176944E+01 -0.11077701565E+02  0.26397145929E+02  0.00000000000E+00 0.  1.
</event>
<event>
 7    1  0.6593656E-013  0.5930195E+02  0.7816164E-02  0.1266605E+00
        -11   -1    0    0    0    0  0.00000000000E+00  0.00000000000E+00  0.45593999997E+02  0.45594000000E+02  0.51100000000E-03 0. -1.
         11   -1    0    0    0    0 -0.00000000000E+00 -0.00000000000E+00 -0.45593999997E+02  0.45594000000E+02  0.51100000000E-03 0.  1.
    9900012    2    1    2    0    0  0.22789294513E+02 -0.20718333088E+02 -0.82534215449E+01  0.59301949170E+02  0.50000009379E+02 0.  0.
         12    1    1    2    0    0 -0.22789294513E+02  0.20718333088E+02  0.82534215449E+01  0.31886050830E+02  0.00000000000E+00 0. -1.
         11    1    3    3    0    0  0.20349125692E+02 -0.23136464929E+02 -0.20096232701E+02  0.36786430853E+02  0.51100000000E-03 0. -1.
        -11    1    3    3    0    0 -0.22870538016E+01 -0.76345824673E+01  0.40001902188E+01  0.89173419016E+01  0.51100000000E-03 0.  1.
         12    1    3    3    0    0  0.47272226219E+01  0.10052714308E+02  0.78426209371E+01  0.13598176416E+02  0.00000000000E+00 0. -1.
</event>
<event>
 7    1  0.6593656E-013  0.5930195E+02  0.7816164E-02  0.1266605E+00
        -11   -1    0    0    0    0  0.00000000000E+00  0.00000000000E+00  0.45593999997E+02  0.45594000000E+02  0.51100000000E-03 0. -1.
         11   -1    0    0    0    0 -0.00000000000E+00 -0.00000000000E+00 -0.45593999997E+02  0.45594000000E+02  0.51100000000E-03 0.  1.
    9900012    2    1    2    0    0 -0.15769228717E+02 -0.26572442079E+02 -0.78712662320E+01  0.59301951570E+02  0.50000013756E+02 0.  0.
         12    1    1    2    0    0  0.15769228717E+02  0.26572442079E+02  0.78712662320E+01  0.31886048430E+02  0.00000000000E+00 0. -1.
         11    1    3    3    0    0  0.24059211712E+01 -0.98873676684E+00 -0.24671465672E+01  0.35850898903E+01  0.51100000000E-03 0. -1.
        -11    1    3    3    0    0 -0.13505117126E+01 -0.32166368823E+02  0.80561441010E+01  0.33187356375E+02  0.51100000000E-03 0.  1.
         12    1    3    3    0    0 -0.16824638176E+02  0.65826635107E+01 -0.13460263766E+02  0.22529505305E+02  0.00000000000E+00 0. -1.
</event>
<event>
 7    1  0.6593656E-013  0.5930194E+02  0.7816164E-02  0.1266605E+00
        -11   -1    0    0    0    0  0.00000000000E+00  0.00000000000E+00  0.45593999997E+02  0.45594000000E+02  0.51100000000E-03 0.  1.
         11   -1    0    0    0    0 -0.00000000000E+00 -0.00000000000E+00 -0.45593999997E+02  0.45594000000E+02  0.51100000000E-03 0. -1.
    9900012    2    1    2    0    0 -0.15016347601E+02  0.26199414328E+02 -0.10238196870E+02  0.59301942207E+02  0.49999996680E+02 0.  0.
         12    1    1    2    0    0  0.15016347601E+02 -0.26199414328E+02  0.10238196870E+02  0.31886057793E+02  0.00000000000E+00 0. -1.
         11    1    3    3    0    0 -0.27550986320E+02  0.16319175094E+01 -0.17093039966E+00  0.27599804700E+02  0.51100000000E-03 0. -1.
        -11    1    3    3    0    0  0.21978161404E+01  0.95680759623E+01 -0.92171456685E+01  0.13466040544E+02  0.51100000000E-03 0.  1.
        -12    1    3    3    0    0  0.10336822579E+02  0.14999420857E+02 -0.85012080221E+00  0.18236096963E+02  0.00000000000E+00 0.  1.
</event>
<event>
 7    1  0.6593656E-013  0.5930199E+02  0.7816164E-02  0.1266605E+00
        -11   -1    0    0    0    0  0.00000000000E+00  0.00000000000E+00  0.45593999997E+02  0.45594000000E+02  0.51100000000E-03 0. -1.
         11   -1    0    0    0    0 -0.00000000000E+00 -0.00000000000E+00 -0.45593999997E+02  0.45594000000E+02  0.51100000000E-03 0.  1.
    9900012    2    1    2    0    0  0.18225963227E+02 -0.18742216709E+02 -0.18255443289E+02  0.59301990020E+02  0.50000083880E+02 0.  0.
         12    1    1    2    0    0 -0.18225963227E+02  0.18742216709E+02  0.18255443289E+02  0.31886009980E+02  0.00000000000E+00 0. -1.
         11    1    3    3    0    0  0.24205834160E+01 -0.18020709143E+02  0.21969778326E+01  0.18314799861E+02  0.51100000000E-03 0. -1.
        -11    1    3    3    0    0 -0.94444055569E+00 -0.10605572407E+02  0.24654420962E+01  0.10929251531E+02  0.51100000000E-03 0.  1.
        -12    1    3    3    0    0  0.16749820367E+02  0.98840648407E+01 -0.22917863218E+02  0.30057938628E+02  0.00000000000E+00 0.  1.
</event>
<event>
 7    1  0.6593656E-013  0.5930195E+02  0.7816164E-02  0.1266605E+00
        -11   -1    0    0    0    0  0.00000000000E+00  0.00000000000E+00  0.45593999997E+02  0.45594000000E+02  0.51100000000E-03 0.  1.
         11   -1    0    0    0    0 -0.00000000000E+00 -0.00000000000E+00 -0.45593999997E+02  0.45594000000E+02  0.51100000000E-03 0. -1.
    9900012    2    1    2    0    0 -0.22395671754E+02 -0.18787001844E+02 -0.12735891652E+02  0.59301945246E+02  0.50000002221E+02 0.  0.
         12    1    1    2    0    0  0.22395671754E+02  0.18787001844E+02  0.12735891652E+02  0.31886054754E+02  0.00000000000E+00 0. -1.
         11    1    3    3    0    0  0.27186772806E+00 -0.26267513145E+01 -0.31072788209E+00  0.26590010545E+01  0.51100000000E-03 0. -1.
        -11    1    3    3    0    0 -0.13960359892E+02 -0.19998870909E+02  0.14301162549E+02  0.28273127461E+02  0.51100000000E-03 0.  1.
        -12    1    3    3    0    0 -0.87071795904E+01  0.38386203789E+01 -0.26726326318E+02  0.28369816730E+02  0.00000000000E+00 0.  1.
</event>
<event>
 7    1  0.6593656E-013  0.5930196E+02  0.7816164E-02  0.1266605E+00
        -11   -1    0    0    0    0  0.00000000000E+00  0.00000000000E+00  0.45593999997E+02  0.45594000000E+02  0.51100000000E-03 0. -1.
         11   -1    0    0    0    0 -0.00000000000E+00 -0.00000000000E+00 -0.45593999997E+02  0.45594000000E+02  0.51100000000E-03 0.  1.
    9900012    2    1    2    0    0  0.28021435673E+02 -0.14337066884E+02 -0.50958221553E+01  0.59301956855E+02  0.50000023394E+02 0.  0.
         12    1    1    2    0    0 -0.28021435673E+02  0.14337066884E+02  0.50958221553E+01  0.31886043145E+02  0.00000000000E+00 0. -1.
         11    1    3    3    0    0 -0.59844428347E+01 -0.18952997329E+02 -0.10540457528E+02  0.22497353377E+02  0.51100000000E-03 0. -1.
        -11    1    3    3    0    0  0.87814508431E+01 -0.39780625323E+01  0.18490160806E+00  0.96422533304E+01  0.51100000000E-03 0.  1.
        -12    1    3    3    0    0  0.25224427664E+02  0.85939929776E+01  0.52597337647E+01  0.27162350148E+02  0.00000000000E+00 0.  1.
</event>
<event>
 7    1  0.6593656E-013  0.5930193E+02  0.7816164E-02  0.1266605E+00
        -11   -1    0    0    0    0  0.00000000000E+00  0.00000000000E+00  0.45593999997E+02  0.45594000000E+02  0.51100000000E-03 0. -1.
         11   -1    0    0    0    0 -0.00000000000E+00 -0.00000000000E+00 -0.45593999997E+02  0.45594000000E+02  0.51100000000E-03 0.  1.
    9900012    2    1    2    0    0  0.25247184165E+02 -0.40305787741E+01 -0.19054014449E+02  0.59301931880E+02  0.49999977846E+02 0.  0.
         12    1    1    2    0    0 -0.25247184165E+02  0.40305787741E+01  0.19054014449E+02  0.31886068120E+02  0.00000000000E+00 0. -1.
         11    1    3    3    0    0  0.19062334570E+02  0.57673705187E+01 -0.15923689488E+02  0.25499000944E+02  0.51100000000E-03 0.  1.
        -11    1    3    3    0    0 -0.61980657184E+01 -0.57127684574E+01 -0.14322557739E+02  0.16618886923E+02  0.51100000000E-03 0. -1.
         12    1    3    3    0    0  0.12382915313E+02 -0.40851808354E+01  0.11192232778E+02  0.17184044014E+02  0.00000000000E+00 0. -1.
</event>
<event>
 7    1  0.8218214E-013  0.5930194E+02  0.7816164E-02  0.1266605E+00
        -11   -1    0    0    0    0  0.00000000000E+00  0.00000000000E+00  0.45593999997E+02  0.45594000000E+02  0.51100000000E-03 0. -1.
         11   -1    0    0    0    0 -0.00000000000E+00 -0.00000000000E+00 -0.45593999997E+02  0.45594000000E+02  0.51100000000E-03 0.  1.
    9900012    2    1    2    0    0  0.18914382564E+02 -0.23717617075E+02 -0.98204615408E+01  0.59301942038E+02  0.49999996370E+02 0.  0.
         12    1    1    2    0    0 -0.18914382564E+02  0.23717617075E+02  0.98204615408E+01  0.31886057962E+02  0.00000000000E+00 0. -1.
         11    1    3    3    0    0  0.17171178819E+02 -0.27121889095E+01  0.25802244386E+01  0.17574495985E+02  0.51100000000E-03 0. -1.
        -11    1    3    3    0    0  0.41178506138E+01 -0.23146623455E+02 -0.21638285446E+02  0.31952124630E+02  0.51100000000E-03 0.  1.
         12    1    3    3    0    0 -0.23746468681E+01  0.21411952891E+01  0.92375994670E+01  0.97753214232E+01  0.00000000000E+00 0. -1.
</event>
<event>
 7    1  0.6593656E-013  0.5930194E+02  0.7816164E-02  0.1266605E+00
        -11   -1    0    0    0    0  0.00000000000E+00  0.00000000000E+00  0.45593999997E+02  0.45594000000E+02  0.51100000000E-03 0.  1.
         11   -1    0    0    0    0 -0.00000000000E+00 -0.00000000000E+00 -0.45593999997E+02  0.45594000000E+02  0.51100000000E-03 0. -1.
    9900012    2    1    2    0    0 -0.20403363280E+02  0.24012960333E+02 -0.48786825408E+01  0.59301936580E+02  0.49999986417E+02 0.  0.
         12    1    1    2    0    0  0.20403363280E+02 -0.24012960333E+02  0.48786825408E+01  0.31886063420E+02  0.00000000000E+00 0. -1.
         11    1    3    3    0    0  0.10000588244E+01 -0.53124500428E+00 -0.83456703235E+01  0.84221465385E+01  0.51100000000E-03 0. -1.
        -11    1    3    3    0    0 -0.21374654288E+02  0.92696771855E+01 -0.14387938477E+02  0.27382759812E+02  0.51100000000E-03 0.  1.
        -12    1    3    3    0    0 -0.28767816929E-01  0.15274528151E+02  0.17854926260E+02  0.23497030229E+02  0.00000000000E+00 0.  1.
</event>
<event>
 7    1  0.6593656E-013  0.5930207E+02  0.7816164E-02  0.1266604E+00
        -11   -1    0    0    0    0  0.00000000000E+00  0.00000000000E+00  0.45593999997E+02  0.45594000000E+02  0.51100000000E-03 0. -1.
         11   -1    0    0    0    0 -0.00000000000E+00 -0.00000000000E+00 -0.45593999997E+02  0.45594000000E+02  0.51100000000E-03 0.  1.
    9900012    2    1    2    0    0 -0.22534255936E+02 -0.13450355657E+02  0.18110982239E+02  0.59302071511E+02  0.50000232499E+02 0.  0.
         12    1    1    2    0    0  0.22534255936E+02  0.13450355657E+02 -0.18110982239E+02  0.31885928489E+02  0.00000000000E+00 0. -1.
         11    1    3    3    0    0 -0.11503744079E+02 -0.20009174863E+02  0.17314542439E+02  0.28853016942E+02  0.51100000000E-03 0. -1.
        -11    1    3    3    0    0 -0.82813780994E+01  0.46498132289E+01 -0.13085763998E+02  0.16169081791E+02  0.51100000000E-03 0.  1.
         12    1    3    3    0    0 -0.27491337581E+01  0.19090059774E+01  0.13882203798E+02  0.14279972778E+02  0.00000000000E+00 0. -1.
</event>
<event>
 7    1  0.6593656E-013  0.5930178E+02  0.7816164E-02  0.1266605E+00
        -11   -1    0    0    0    0  0.00000000000E+00  0.00000000000E+00  0.45593999997E+02  0.45594000000E+02  0.51100000000E-03 0.  1.
         11   -1    0    0    0    0 -0.00000000000E+00 -0.00000000000E+00 -0.45593999997E+02  0.45594000000E+02  0.51100000000E-03 0. -1.
    9900012    2    1    2    0    0 -0.23800742719E+02  0.11005173000E+01  0.21190672106E+02  0.59301779205E+02  0.49999699402E+02 0.  0.
         12    1    1    2    0    0  0.23800742719E+02 -0.11005173000E+01 -0.21190672106E+02  0.31886220795E+02  0.00000000000E+00 0. -1.
         11    1    3    3    0    0  0.62465185046E+01  0.34498725608E+01 -0.30294245741E+00  0.71422957449E+01  0.51100000000E-03 0. -1.
        -11    1    3    3    0    0 -0.30784797590E+01 -0.15622769335E+02  0.13948845363E+02  0.21168803617E+02  0.51100000000E-03 0.  1.
         12    1    3    3    0    0 -0.26968781465E+02  0.13273414074E+02  0.75447691998E+01  0.30990679843E+02  0.00000000000E+00 0. -1.
</event>
<event>
 7    1  0.6593656E-013  0.5930196E+02  0.7816164E-02  0.1266605E+00
        -11   -1    0    0    0    0  0.00000000000E+00  0.00000000000E+00  0.45593999997E+02  0.45594000000E+02  0.51100000000E-03 0. -1.
         11   -1    0    0    0    0 -0.00000000000E+00 -0.00000000000E+00 -0.45593999997E+02  0.45594000000E+02  0.51100000000E-03 0.  1.
    9900012    2    1    2    0    0  0.24316592938E+02  0.26798105448E+01 -0.20450958930E+02  0.59301956065E+02  0.50000021953E+02 0.  0.
         12    1    1    2    0    0 -0.24316592938E+02 -0.26798105448E+01  0.20450958930E+02  0.31886043935E+02  0.00000000000E+00 0. -1.
         11    1    3    3    0    0  0.44857285449E+01 -0.10493705754E+02 -0.84813976761E+01  0.14218780814E+02  0.51100000000E-03 0. -1.
        -11    1    3    3    0    0  0.40916623900E+01 -0.78793126136E+01 -0.16186235011E+02  0.18461296608E+02  0.51100000000E-03 0.  1.
         12    1    3    3    0    0  0.15739202003E+02  0.21052828912E+02  0.42166737566E+01  0.26621878643E+02  0.00000000000E+00 0. -1.
</event>
<event>
 7    1  0.6593656E-013  0.5930189E+02  0.7816164E-02  0.1266605E+00
        -11   -1    0    0    0    0  0.00000000000E+00  0.00000000000E+00  0.45593999997E+02  0.45594000000E+02  0.51100000000E-03 0. -1.
         11   -1    0    0    0    0 -0.00000000000E+00 -0.00000000000E+00 -0.45593999997E+02  0.45594000000E+02  0.51100000000E-03 0.  1.
    9900012    2    1    2    0    0  0.11374659996E+02 -0.80096424251E+01 -0.28691236758E+02  0.59301885020E+02  0.49999892385E+02 0.  0.
         12    1    1    2    0    0 -0.11374659996E+02  0.80096424251E+01  0.28691236758E+02  0.31886114980E+02  0.00000000000E+00 0. -1.
         11    1    3    3    0    0  0.11317331394E+02 -0.21853686429E+01  0.31585785734E+01  0.11951336530E+02  0.51100000000E-03 0. -1.
        -11    1    3    3    0    0  0.16441723203E+02  0.81115212752E+00 -0.20712990468E+02  0.26457819337E+02  0.51100000000E-03 0.  1.
        -12    1    3    3    0    0 -0.16384394601E+02 -0.66354259098E+01 -0.11136824863E+02  0.20892729154E+02  0.00000000000E+00 0.  1.
</event>
<event>
 7    1  0.6593656E-013  0.5930194E+02  0.7816164E-02  0.1266605E+00
        -11   -1    0    0    0    0  0.00000000000E+00  0.00000000000E+00  0.45593999997E+02  0.45594000000E+02  0.51100000000E-03 0.  1.
         11   -1    0    0    0    0 -0.00000000000E+00 -0.00000000000E+00 -0.45593999997E+02  0.45594000000E+02  0.51100000000E-03 0. -1.
    9900012    2    1    2    0    0 -0.77603290371E+01  0.73337144319E+01  0.30045208234E+02  0.59301943298E+02  0.49999998670E+02 0.  0.
         12    1    1    2    0    0  0.77603290371E+01 -0.73337144319E+01 -0.30045208234E+02  0.31886056702E+02  0.00000000000E+00 0. -1.
         11    1    3    3    0    0 -0.42456729125E+01 -0.96629319657E+01  0.90712902421E+01  0.13917122532E+02  0.51100000000E-03 0. -1.
        -11    1    3    3    0    0 -0.17993086007E+02  0.23327274853E+00  0.77947401520E+01  0.19610291547E+02  0.51100000000E-03 0.  1.
        -12    1    3    3    0    0  0.14478429883E+02  0.16763373649E+02  0.13179177840E+02  0.25774529220E+02  0.00000000000E+00 0.  1.
</event>
<event>
 7    1  0.6593656E-013  0.5930195E+02  0.7816164E-02  0.1266605E+00
        -11   -1    0    0    0    0  0.00000000000E+00  0.00000000000E+00  0.45593999997E+02  0.45594000000E+02  0.51100000000E-03 0.  1.
         11   -1    0    0    0    0 -0.00000000000E+00 -0.00000000000E+00 -0.45593999997E+02  0.45594000000E+02  0.51100000000E-03 0. -1.
    9900012    2    1    2    0    0 -0.24346039841E+01  0.23829378392E+02  0.21046460093E+02  0.59301952055E+02  0.50000014639E+02 0.  0.
         12    1    1    2    0    0  0.24346039841E+01 -0.23829378392E+02 -0.21046460093E+02  0.31886047945E+02  0.00000000000E+00 0. -1.
         11    1    3    3    0    0  0.98153596864E+01 -0.40318739323E+01  0.16795073739E+02  0.19866348314E+02  0.51100000000E-03 0. -1.
        -11    1    3    3    0    0  0.57539686273E+01  0.17515580951E+02  0.16995391941E+01  0.18514647303E+02  0.51100000000E-03 0.  1.
         12    1    3    3    0    0 -0.18003932298E+02  0.10345671374E+02  0.25518471601E+01  0.20920956438E+02  0.00000000000E+00 0. -1.
</event>
<event>
 7    1  0.6593656E-013  0.5930194E+02  0.7816164E-02  0.1266605E+00
        -11   -1    0    0    0    0  0.00000000000E+00  0.00000000000E+00  0.45593999997E+02  0.45594000000E+02  0.51100000000E-03 0. -1.
         11   -1    0    0    0    0 -0.00000000000E+00 -0.00000000000E+00 -0.45593999997E+02  0.45594000000E+02  0.51100000000E-03 0.  1.
    9900012    2    1    2    0    0  0.20124784921E+01 -0.12188309167E+02 -0.29395846916E+02  0.59301940884E+02  0.49999994267E+02 0.  0.
         12    1    1    2    0    0 -0.20124784921E+01  0.12188309167E+02  0.29395846916E+02  0.31886059116E+02  0.00000000000E+00 0. -1.
         11    1    3    3    0    0 -0.26214603499E+01 -0.18579259751E+02 -0.16731106397E+01  0.18837734649E+02  0.51100000000E-03 0. -1.
        -11    1    3    3    0    0 -0.10196272045E-01 -0.29921454682E+01 -0.29665464085E+02  0.29815982260E+02  0.51100000000E-03 0.  1.
        -12    1    3    3    0    0  0.46441351141E+01  0.93830960519E+01  0.19427278091E+01  0.10648223975E+02  0.00000000000E+00 0.  1.
</event>
<event>
 7    1  0.6593656E-013  0.5930207E+02  0.7816164E-02  0.1266604E+00
        -11   -1    0    0    0    0  0.00000000000E+00  0.00000000000E+00  0.45593999997E+02  0.45594000000E+02  0.51100000000E-03 0. -1.
         11   -1    0    0    0    0 -0.00000000000E+00 -0.00000000000E+00 -0.45593999997E+02  0.45594000000E+02  0.51100000000E-03 0.  1.
    9900012    2    1    2    0    0 -0.22200309576E+02 -0.63311120328E+01 -0.21994909955E+02  0.59302065973E+02  0.50000222398E+02 0.  0.
         12    1    1    2    0    0  0.22200309576E+02  0.63311120328E+01  0.21994909955E+02  0.31885934027E+02  0.00000000000E+00 0. -1.
         11    1    3    3    0    0 -0.25509051992E+02  0.93668899922E+01 -0.59702189587E+01  0.27822542592E+02  0.51100000000E-03 0. -1.
        -11    1    3    3    0    0 -0.62238746328E+01  0.11232236880E+01 -0.88051156637E+01  0.10841047413E+02  0.51100000000E-03 0.  1.
         12    1    3    3    0    0  0.95326170481E+01 -0.16821225713E+02 -0.72195753328E+01  0.20638475967E+02  0.00000000000E+00 0. -1.
</event>
<event>
 7    1  0.6593656E-013  0.5930198E+02  0.7816164E-02  0.1266605E+00
        -11   -1    0    0    0    0  0.00000000000E+00  0.00000000000E+00  0.45593999997E+02  0.45594000000E+02  0.51100000000E-03 0. -1.
         11   -1    0    0    0    0 -0.00000000000E+00 -0.00000000000E+00 -0.45593999997E+02  0.45594000000E+02  0.51100000000E-03 0.  1.
    9900012    2    1    2    0    0  0.30645707039E+02 -0.73628438533E+01  0.48319434133E+01  0.59301976312E+02  0.50000058878E+02 0.  0.
         12    1    1    2    0    0 -0.30645707039E+02  0.73628438533E+01 -0.48319434133E+01  0.31886023688E+02  0.00000000000E+00 0. -1.
         11    1    3    3    0    0  0.15937041876E+02 -0.10063571007E+01 -0.12234990807E+02  0.20117083752E+02  0.51100000000E-03 0. -1.
        -11    1    3    3    0    0  0.13372018417E+02  0.99618833458E+01  0.17536973941E+01  0.16766796090E+02  0.51100000000E-03 0.  1.
        -12    1    3    3    0    0  0.13366467460E+01 -0.16318370098E+02  0.15313236826E+02  0.22418096469E+02  0.00000000000E+00 0.  1.
</event>
<event>
 7    1  0.6593656E-013  0.5930195E+02  0.7816164E-02  0.1266605E+00
        -11   -1    0    0    0    0  0.00000000000E+00  0.00000000000E+00  0.45593999997E+02  0.45594000000E+02  0.51100000000E-03 0. -1.
         11   -1    0    0    0    0 -0.00000000000E+00 -0.00000000000E+00 -0.45593999997E+02  0.45594000000E+02  0.51100000000E-03 0.  1.
    9900012    2    1    2    0    0 -0.21012492816E+02 -0.18727913969E+01 -0.23909993879E+02  0.59301952750E+02  0.50000015907E+02 0.  0.
         12    1    1    2    0    0  0.21012492816E+02  0.18727913969E+01  0.23909993879E+02  0.31886047250E+02  0.00000000000E+00 0. -1.
         11    1    3    3    0    0  0.11734850342E+02  0.60386382426E+01 -0.10102976043E+02  0.16620529161E+02  0.51100000000E-03 0. -1.
        -11    1    3    3    0    0  0.85341384491E+00  0.44479269147E+01 -0.85620101064E+00  0.46092786270E+01  0.51100000000E-03 0.  1.
        -12    1    3    3    0    0 -0.33600757003E+02 -0.12359356554E+02 -0.12950816824E+02  0.38072144962E+02  0.00000000000E+00 0.  1.
</event>
<event>
 7    1  0.6593656E-013  0.5930193E+02  0.7816164E-02  0.1266605E+00
        -11   -1    0    0    0    0  0.00000000000E+00  0.00000000000E+00  0.45593999997E+02  0.45594000000E+02  0.51100000000E-03 0. -1.
         11   -1    0    0    0    0 -0.00000000000E+00 -0.00000000000E+00 -0.45593999997E+02  0.45594000000E+02  0.51100000000E-03 0.  1.
    9900012    2    1    2    0    0  0.23333469220E+02 -0.92289145405E+01 -0.19674794797E+02  0.59301934082E+02  0.49999981861E+02 0.  0.
         12    1    1    2    0    0 -0.23333469220E+02  0.92289145405E+01  0.19674794797E+02  0.31886065918E+02  0.00000000000E+00 0. -1.
         11    1    3    3    0    0  0.40153559818E+01 -0.11186625138E+02  0.91537205375E+01  0.15001808744E+02  0.51100000000E-03 0. -1.
        -11    1    3    3    0    0 -0.60355539478E+01 -0.44138163172E+01 -0.58296514552E+01  0.94812721873E+01  0.51100000000E-03 0.  1.
        -12    1    3    3    0    0  0.25353667186E+02  0.63715269147E+01 -0.22998863879E+02  0.34818853151E+02  0.00000000000E+00 0.  1.
</event>
<event>
 7    1  0.6593656E-013  0.5930193E+02  0.7816164E-02  0.1266605E+00
        -11   -1    0    0    0    0  0.00000000000E+00  0.00000000000E+00  0.45593999997E+02  0.45594000000E+02  0.51100000000E-03 0. -1.
         11   -1    0    0    0    0 -0.00000000000E+00 -0.00000000000E+00 -0.45593999997E+02  0.45594000000E+02  0.51100000000E-03 0.  1.
    9900012    2    1    2    0    0 -0.16012191353E+02 -0.10231475950E+02 -0.25605625691E+02  0.59301930329E+02  0.49999975016E+02 0.  0.
         12    1    1    2    0    0  0.16012191353E+02  0.10231475950E+02  0.25605625691E+02  0.31886069671E+02  0.00000000000E+00 0. -1.
         11    1    3    3    0    0 -0.48708081751E+01  0.83088028986E+01 -0.62886411950E-01  0.96314553858E+01  0.51100000000E-03 0. -1.
        -11    1    3    3    0    0  0.18204961879E+01 -0.51228378677E+01 -0.30000798517E+02  0.30489434008E+02  0.51100000000E-03 0.  1.
         12    1    3    3    0    0 -0.12961879366E+02 -0.13417440981E+02  0.44580592380E+01  0.19181040935E+02  0.00000000000E+00 0. -1.
</event>
<event>
 7    1  0.6593656E-013  0.5930194E+02  0.7816164E-02  0.1266605E+00
        -11   -1    0    0    0    0  0.00000000000E+00  0.00000000000E+00  0.45593999997E+02  0.45594000000E+02  0.51100000000E-03 0. -1.
         11   -1    0    0    0    0 -0.00000000000E+00 -0.00000000000E+00 -0.45593999997E+02  0.45594000000E+02  0.51100000000E-03 0.  1.
    9900012    2    1    2    0    0  0.17737554093E+01 -0.15597490522E+02 -0.27754152468E+02  0.59301938813E+02  0.49999990490E+02 0.  0.
         12    1    1    2    0    0 -0.17737554093E+01  0.15597490522E+02  0.27754152468E+02  0.31886061187E+02  0.00000000000E+00 0. -1.
         11    1    3    3    0    0  0.11168225773E+02 -0.10470457025E+02  0.37179211818E+01  0.15753814630E+02  0.51100000000E-03 0. -1.
        -11    1    3    3    0    0  0.35553832916E+01 -0.13618324741E+02 -0.19108219830E+02  0.23732332048E+02  0.51100000000E-03 0.  1.
         12    1    3    3    0    0 -0.12949853655E+02  0.84912912440E+01 -0.12363853820E+02  0.19815792135E+02  0.00000000000E+00 0. -1.
</event>
<event>
 7    1  0.6593656E-013  0.5930195E+02  0.7816164E-02  0.1266605E+00
        -11   -1    0    0    0    0  0.00000000000E+00  0.00000000000E+00  0.45593999997E+02  0.45594000000E+02  0.51100000000E-03 0.  1.
         11   -1    0    0    0    0 -0.00000000000E+00 -0.00000000000E+00 -0.45593999997E+02  0.45594000000E+02  0.51100000000E-03 0. -1.
    9900012    2    1    2    0    0  0.42577105112E+01  0.28227233144E+02  0.14206183294E+02  0.59301946096E+02  0.50000003772E+02 0.  0.
         12    1    1    2    0    0 -0.42577105112E+01 -0.28227233144E+02 -0.14206183294E+02  0.31886053904E+02  0.00000000000E+00 0. -1.
         11    1    3    3    0    0  0.22341602534E+01  0.12639227588E+01 -0.12715771940E+02  0.12972271546E+02  0.51100000000E-03 0. -1.
        -11    1    3    3    0    0 -0.51943080617E+01  0.27742898047E+00  0.15620846585E+02  0.16464162638E+02  0.51100000000E-03 0.  1.
        -12    1    3    3    0    0  0.72178583194E+01  0.26685881405E+02  0.11301108649E+02  0.29865511912E+02  0.00000000000E+00 0.  1.
</event>
<event>
 7    1  0.6593656E-013  0.5930195E+02  0.7816164E-02  0.1266605E+00
        -11   -1    0    0    0    0  0.00000000000E+00  0.00000000000E+00  0.45593999997E+02  0.45594000000E+02  0.51100000000E-03 0.  1.
         11   -1    0    0    0    0 -0.00000000000E+00 -0.00000000000E+00 -0.45593999997E+02  0.45594000000E+02  0.51100000000E-03 0. -1.
    9900012    2    1    2    0    0  0.66564013667E+01  0.30069369245E+02 -0.82610712011E+01  0.59301953784E+02  0.50000017792E+02 0.  0.
         12    1    1    2    0    0 -0.66564013667E+01 -0.30069369245E+02  0.82610712011E+01  0.31886046216E+02  0.00000000000E+00 0. -1.
         11    1    3    3    0    0  0.12138419232E+02  0.11607144365E+02 -0.16481008728E+02  0.23530632604E+02  0.51100000000E-03 0. -1.
        -11    1    3    3    0    0  0.65845090619E+01 -0.49222261147E+01  0.39217286231E+01  0.91084589896E+01  0.51100000000E-03 0.  1.
         12    1    3    3    0    0 -0.12066526928E+02  0.23384450994E+02  0.42982089037E+01  0.26662862190E+02  0.00000000000E+00 0. -1.
</event>
<event>
 7    1  0.6593656E-013  0.5930204E+02  0.7816164E-02  0.1266604E+00
        -11   -1    0    0    0    0  0.00000000000E+00  0.00000000000E+00  0.45593999997E+02  0.45594000000E+02  0.51100000000E-03 0.  1.
         11   -1    0    0    0    0 -0.00000000000E+00 -0.00000000000E+00 -0.45593999997E+02  0.45594000000E+02  0.51100000000E-03 0. -1.
    9900012    2    1    2    0    0  0.22154418323E+02 -0.18418195967E+02  0.13662575358E+02  0.59302044482E+02  0.50000183204E+02 0.  0.
         12    1    1    2    0    0 -0.22154418323E+02  0.18418195967E+02 -0.13662575358E+02  0.31885955518E+02  0.00000000000E+00 0. -1.
         11    1    3    3    0    0 -0.91692085215E+00 -0.74305318467E+01 -0.66052524117E+01  0.99841327644E+01  0.51100000000E-03 0. -1.
        -11    1    3    3    0    0 -0.49616346063E+01 -0.14056796384E+02  0.56710453273E+00  0.14917538348E+02  0.51100000000E-03 0.  1.
        -12    1    3    3    0    0  0.28032973781E+02  0.30691322639E+01  0.19700723237E+02  0.34400373369E+02  0.00000000000E+00 0.  1.
</event>
<event>
 7    1  0.6593656E-013  0.5930200E+02  0.7816164E-02  0.1266605E+00
        -11   -1    0    0    0    0  0.00000000000E+00  0.00000000000E+00  0.45593999997E+02  0.45594000000E+02  0.51100000000E-03 0. -1.
         11   -1    0    0    0    0 -0.00000000000E+00 -0.00000000000E+00 -0.45593999997E+02  0.45594000000E+02  0.51100000000E-03 0.  1.
    9900012    2    1    2    0    0  0.25921620552E+02 -0.13501584648E+02 -0.12747301736E+02  0.59302001480E+02  0.50000104779E+02 0.  0.
         12    1    1    2    0    0 -0.25921620552E+02  0.13501584648E+02  0.12747301736E+02  0.31885998520E+02  0.00000000000E+00 0. -1.
         11    1    3    3    0    0  0.92790788854E+01 -0.24284748201E+02 -0.12764545297E+02  0.28961766470E+02  0.51100000000E-03 0. -1.
        -11    1    3    3    0    0  0.76127591545E+01 -0.68994324655E+01  0.17022075715E+01  0.10414114517E+02  0.51100000000E-03 0.  1.
         12    1    3    3    0    0  0.90297825124E+01  0.17682596019E+02 -0.16849640115E+01  0.19926120493E+02  0.00000000000E+00 0. -1.
</event>
<event>
 7    1  0.6593656E-013  0.5930192E+02  0.7816164E-02  0.1266605E+00
        -11   -1    0    0    0    0  0.00000000000E+00  0.00000000000E+00  0.45593999997E+02  0.45594000000E+02  0.51100000000E-03 0. -1.
         11   -1    0    0    0    0 -0.00000000000E+00 -0.00000000000E+00 -0.45593999997E+02  0.45594000000E+02  0.51100000000E-03 0.  1.
    9900012    2    1    2    0    0 -0.95189874122E+00 -0.29132666346E+02 -0.12926870475E+02  0.59301916203E+02  0.49999949254E+02 0.  0.
         12    1    1    2    0    0  0.95189874122E+00  0.29132666346E+02  0.12926870475E+02  0.31886083797E+02  0.00000000000E+00 0. -1.
         11    1    3    3    0    0 -0.66141069838E+01 -0.11025098361E+01 -0.79937084875E+01  0.10433662577E+02  0.51100000000E-03 0. -1.
        -11    1    3    3    0    0  0.77573794481E+01 -0.26753396018E+02  0.13020127013E+02  0.30748086804E+02  0.51100000000E-03 0.  1.
         12    1    3    3    0    0 -0.20951712056E+01 -0.12767604921E+01 -0.17953289000E+02  0.18120166822E+02  0.00000000000E+00 0. -1.
</event>
<event>
 7    1  0.6593656E-013  0.5930203E+02  0.7816164E-02  0.1266604E+00
        -11   -1    0    0    0    0  0.00000000000E+00  0.00000000000E+00  0.45593999997E+02  0.45594000000E+02  0.51100000000E-03 0.  1.
         11   -1    0    0    0    0 -0.00000000000E+00 -0.00000000000E+00 -0.45593999997E+02  0.45594000000E+02  0.51100000000E-03 0. -1.
    9900012    2    1    2    0    0 -0.84239004513E+01 -0.17646248658E+02 -0.25186564755E+02  0.59302027619E+02  0.50000152451E+02 0.  0.
         12    1    1    2    0    0  0.84239004513E+01  0.17646248658E+02  0.25186564755E+02  0.31885972381E+02  0.00000000000E+00 0. -1.
         11    1    3    3    0    0  0.78876215531E+01 -0.14840774727E+02 -0.26584631418E+02  0.31451642185E+02  0.51100000000E-03 0. -1.
        -11    1    3    3    0    0 -0.61783505737E+01  0.79797378850E+01 -0.55327225384E+01  0.11509094294E+02  0.51100000000E-03 0.  1.
        -12    1    3    3    0    0 -0.10133171431E+02 -0.10785211816E+02  0.69307892017E+01  0.16341291140E+02  0.00000000000E+00 0.  1.
</event>
<event>
 7    1  0.6593656E-013  0.5930200E+02  0.7816164E-02  0.1266605E+00
        -11   -1    0    0    0    0  0.00000000000E+00  0.00000000000E+00  0.45593999997E+02  0.45594000000E+02  0.51100000000E-03 0.  1.
         11   -1    0    0    0    0 -0.00000000000E+00 -0.00000000000E+00 -0.45593999997E+02  0.45594000000E+02  0.51100000000E-03 0. -1.
    9900012    2    1    2    0    0 -0.88422722554E+01  0.20635204059E+02  0.22643310651E+02  0.59302000840E+02  0.50000103611E+02 0.  0.
         12    1    1    2    0    0  0.88422722554E+01 -0.20635204059E+02 -0.22643310651E+02  0.31885999160E+02  0.00000000000E+00 0. -1.
         11    1    3    3    0    0  0.87295543134E+01 -0.27898658303E+00  0.17709733036E+01  0.89117505983E+01  0.51100000000E-03 0. -1.
        -11    1    3    3    0    0 -0.52218241543E+01  0.66143195376E+01 -0.10685308326E+02  0.13608544548E+02  0.51100000000E-03 0.  1.
         12    1    3    3    0    0 -0.12350002415E+02  0.14299871105E+02  0.31557645673E+02  0.36781705693E+02  0.00000000000E+00 0. -1.
</event>
<event>
 7    1  0.6593656E-013  0.5930196E+02  0.7816164E-02  0.1266605E+00
        -11   -1    0    0    0    0  0.00000000000E+00  0.00000000000E+00  0.45593999997E+02  0.45594000000E+02  0.51100000000E-03 0. -1.
         11   -1    0    0    0    0 -0.00000000000E+00 -0.00000000000E+00 -0.45593999997E+02  0.45594000000E+02  0.51100000000E-03 0.  1.
    9900012    2    1    2    0    0  0.31737191601E+02  0.50238894000E+00 -0.30360736486E+01  0.59301961228E+02  0.50000031370E+02 0.  0.
         12    1    1    2    0    0 -0.31737191601E+02 -0.50238894000E+00  0.30360736486E+01  0.31886038772E+02  0.00000000000E+00 0. -1.
         11    1    3    3    0    0  0.14898224049E+02 -0.83498322824E+01 -0.49623080964E+01  0.17784861002E+02  0.51100000000E-03 0.  1.
        -11    1    3    3    0    0  0.84239975624E+01  0.13881531253E+02 -0.14903499806E+02  0.22040302893E+02  0.51100000000E-03 0. -1.
         12    1    3    3    0    0  0.84149699888E+01 -0.50293100308E+01  0.16829734254E+02  0.19476797333E+02  0.00000000000E+00 0. -1.
</event>
<event>
 7    1  0.6593656E-013  0.5930195E+02  0.7816164E-02  0.1266605E+00
        -11   -1    0    0    0    0  0.00000000000E+00  0.00000000000E+00  0.45593999997E+02  0.45594000000E+02  0.51100000000E-03 0.  1.
         11   -1    0    0    0    0 -0.00000000000E+00 -0.00000000000E+00 -0.45593999997E+02  0.45594000000E+02  0.51100000000E-03 0. -1.
    9900012    2    1    2    0    0 -0.59525407029E+01  0.13611464611E+00  0.31325216830E+02  0.59301945407E+02  0.50000002516E+02 0.  0.
         12    1    1    2    0    0  0.59525407029E+01 -0.13611464611E+00 -0.31325216830E+02  0.31886054593E+02  0.00000000000E+00 0. -1.
         11    1    3    3    0    0  0.34330653860E+01 -0.30297391503E+01  0.26179571395E+02  0.26576967772E+02  0.51100000000E-03 0. -1.
        -11    1    3    3    0    0 -0.14662634522E+01 -0.12519488801E+02  0.79914658538E+01  0.14924846904E+02  0.51100000000E-03 0.  1.
         12    1    3    3    0    0 -0.79193426367E+01  0.15685342597E+02 -0.28458204188E+01  0.17800130731E+02  0.00000000000E+00 0. -1.
</event>
<event>
 7    1  0.6593656E-013  0.5930194E+02  0.7816164E-02  0.1266605E+00
        -11   -1    0    0    0    0  0.00000000000E+00  0.00000000000E+00  0.45593999997E+02  0.45594000000E+02  0.51100000000E-03 0.  1.
         11   -1    0    0    0    0 -0.00000000000E+00 -0.00000000000E+00 -0.45593999997E+02  0.45594000000E+02  0.51100000000E-03 0. -1.
    9900012    2    1    2    0    0 -0.13268530947E+02  0.89727020768E+01  0.27570955667E+02  0.59301938900E+02  0.49999990649E+02 0.  0.
         12    1    1    2    0    0  0.13268530947E+02 -0.89727020768E+01 -0.27570955667E+02  0.31886061100E+02  0.00000000000E+00 0. -1.
         11    1    3    3    0    0 -0.14316132737E+02 -0.41219253427E+01  0.20299179242E+02  0.25179328888E+02  0.51100000000E-03 0. -1.
        -11    1    3    3    0    0 -0.14574246941E+02  0.35053764981E+01  0.27031961539E+01  0.15231664650E+02  0.51100000000E-03 0.  1.
        -12    1    3    3    0    0  0.15621848731E+02  0.95892509214E+01  0.45685802711E+01  0.18890945363E+02  0.00000000000E+00 0.  1.
</event>
<event>
 7    1  0.6593656E-013  0.5930194E+02  0.7816164E-02  0.1266605E+00
        -11   -1    0    0    0    0  0.00000000000E+00  0.00000000000E+00  0.45593999997E+02  0.45594000000E+02  0.51100000000E-03 0. -1.
         11   -1    0    0    0    0 -0.00000000000E+00 -0.00000000000E+00 -0.45593999997E+02  0.45594000000E+02  0.51100000000E-03 0.  1.
    9900012    2    1    2    0    0 -0.70222257518E+01  0.30451529934E+02 -0.63335027885E+01  0.59301943683E+02  0.49999999372E+02 0.  0.
         12    1    1    2    0    0  0.70222257518E+01 -0.30451529934E+02  0.63335027885E+01  0.31886056317E+02  0.00000000000E+00 0. -1.
         11    1    3    3    0    0  0.50317933117E+01  0.31036516233E+02  0.82621524661E+01  0.32509190199E+02  0.51100000000E-03 0. -1.
        -11    1    3    3    0    0 -0.22712154989E+01  0.84449175629E+01 -0.83351896403E+01  0.12080994954E+02  0.51100000000E-03 0.  1.
         12    1    3    3    0    0 -0.97828035646E+01 -0.90299038612E+01 -0.62604656143E+01  0.14711758530E+02  0.00000000000E+00 0. -1.
</event>
<event>
 7    1  0.6593656E-013  0.5930194E+02  0.7816164E-02  0.1266605E+00
        -11   -1    0    0    0    0  0.00000000000E+00  0.00000000000E+00  0.45593999997E+02  0.45594000000E+02  0.51100000000E-03 0.  1.
         11   -1    0    0    0    0 -0.00000000000E+00 -0.00000000000E+00 -0.45593999997E+02  0.45594000000E+02  0.51100000000E-03 0. -1.
    9900012    2    1    2    0    0 -0.29581723428E+02  0.11900885218E+02  0.10777968153E+00  0.59301936487E+02  0.49999986247E+02 0.  0.
         12    1    1    2    0    0  0.29581723428E+02 -0.11900885218E+02 -0.10777968153E+00  0.31886063513E+02  0.00000000000E+00 0. -1.
         11    1    3    3    0    0  0.14661905065E+01  0.79336334349E+00  0.88179589177E+01  0.89741595557E+01  0.51100000000E-03 0. -1.
        -11    1    3    3    0    0 -0.28972328277E+02  0.14824189873E+02  0.76426344724E+01  0.33429960711E+02  0.51100000000E-03 0.  1.
        -12    1    3    3    0    0 -0.20755856569E+01 -0.37166679982E+01 -0.16352813709E+02  0.16897816220E+02  0.00000000000E+00 0.  1.
</event>
<event>
 7    1  0.6593656E-013  0.5930194E+02  0.7816164E-02  0.1266605E+00
        -11   -1    0    0    0    0  0.00000000000E+00  0.00000000000E+00  0.45593999997E+02  0.45594000000E+02  0.51100000000E-03 0.  1.
         11   -1    0    0    0    0 -0.00000000000E+00 -0.00000000000E+00 -0.45593999997E+02  0.45594000000E+02  0.51100000000E-03 0. -1.
    9900012    2    1    2    0    0  0.24056571662E+02  0.70959483084E+01  0.19688828388E+02  0.59301935868E+02  0.49999985118E+02 0.  0.
         12    1    1    2    0    0 -0.24056571662E+02 -0.70959483084E+01 -0.19688828388E+02  0.31886064132E+02  0.00000000000E+00 0. -1.
         11    1    3    3    0    0  0.95512152076E+01 -0.63206365882E+01 -0.78721442891E+01  0.13897726965E+02  0.51100000000E-03 0. -1.
        -11    1    3    3    0    0  0.18090787114E+01 -0.95833755535E+01  0.86273566005E+01  0.13020949849E+02  0.51100000000E-03 0.  1.
        -12    1    3    3    0    0  0.12696277743E+02  0.22999960450E+02  0.18933616077E+02  0.32383259054E+02  0.00000000000E+00 0.  1.
</event>
<event>
 7    1  0.6593656E-013  0.5930194E+02  0.7816164E-02  0.1266605E+00
        -11   -1    0    0    0    0  0.00000000000E+00  0.00000000000E+00  0.45593999997E+02  0.45594000000E+02  0.51100000000E-03 0.  1.
         11   -1    0    0    0    0 -0.00000000000E+00 -0.00000000000E+00 -0.45593999997E+02  0.45594000000E+02  0.51100000000E-03 0. -1.
    9900012    2    1    2    0    0  0.21427182253E+02 -0.20162794820E+02  0.12290573907E+02  0.59301942840E+02  0.49999997833E+02 0.  0.
         12    1    1    2    0    0 -0.21427182253E+02  0.20162794820E+02 -0.12290573907E+02  0.31886057160E+02  0.00000000000E+00 0. -1.
         11    1    3    3    0    0  0.16055182218E+02 -0.74567071862E+00 -0.19378506649E+01  0.16188890213E+02  0.51100000000E-03 0. -1.
        -11    1    3    3    0    0  0.18204604675E+02 -0.20971972989E+02  0.97056482273E+01  0.29418206781E+02  0.51100000000E-03 0.  1.
        -12    1    3    3    0    0 -0.12832604639E+02  0.15548488875E+01  0.45227763450E+01  0.13694845846E+02  0.00000000000E+00 0.  1.
</event>
<event>
 7    1  0.6593656E-013  0.5930206E+02  0.7816164E-02  0.1266604E+00
        -11   -1    0    0    0    0  0.00000000000E+00  0.00000000000E+00  0.45593999997E+02  0.45594000000E+02  0.51100000000E-03 0.  1.
         11   -1    0    0    0    0 -0.00000000000E+00 -0.00000000000E+00 -0.45593999997E+02  0.45594000000E+02  0.51100000000E-03 0. -1.
    9900012    2    1    2    0    0  0.42875025124E+01  0.29704853709E+02  0.10768118837E+02  0.59302056467E+02  0.50000205063E+02 0.  0.
         12    1    1    2    0    0 -0.42875025124E+01 -0.29704853709E+02 -0.10768118837E+02  0.31885943533E+02  0.00000000000E+00 0. -1.
         11    1    3    3    0    0  0.21735694841E+01  0.23700736575E+02 -0.57260235982E+01  0.24479310959E+02  0.51100000000E-03 0. -1.
        -11    1    3    3    0    0 -0.13554063014E+02  0.61076368562E+01  0.96560241822E+01  0.17727229209E+02  0.51100000000E-03 0.  1.
        -12    1    3    3    0    0  0.15667996042E+02 -0.10351972225E+00  0.68381182530E+01  0.17095516300E+02  0.00000000000E+00 0.  1.
</event>
<event>
 7    1  0.6593656E-013  0.5930195E+02  0.7816164E-02  0.1266605E+00
        -11   -1    0    0    0    0  0.00000000000E+00  0.00000000000E+00  0.45593999997E+02  0.45594000000E+02  0.51100000000E-03 0.  1.
         11   -1    0    0    0    0 -0.00000000000E+00 -0.00000000000E+00 -0.45593999997E+02  0.45594000000E+02  0.51100000000E-03 0. -1.
    9900012    2    1    2    0    0  0.10029850227E+02  0.11187534215E+02  0.28124035019E+02  0.59301950337E+02  0.50000011506E+02 0.  0.
         12    1    1    2    0    0 -0.10029850227E+02 -0.11187534215E+02 -0.28124035019E+02  0.31886049663E+02  0.00000000000E+00 0. -1.
         11    1    3    3    0    0 -0.12795304493E+01  0.10117828826E+02  0.22892186373E+01  0.10452185444E+02  0.51100000000E-03 0. -1.
        -11    1    3    3    0    0 -0.53097449247E+01  0.17335440694E+02  0.12774398565E+02  0.22178732023E+02  0.51100000000E-03 0.  1.
         12    1    3    3    0    0  0.16619125601E+02 -0.16265735305E+02  0.13060417817E+02  0.26671032869E+02  0.00000000000E+00 0. -1.
</event>
<event>
 7    1  0.6593656E-013  0.5930184E+02  0.7816164E-02  0.1266605E+00
        -11   -1    0    0    0    0  0.00000000000E+00  0.00000000000E+00  0.45593999997E+02  0.45594000000E+02  0.51100000000E-03 0. -1.
         11   -1    0    0    0    0 -0.00000000000E+00 -0.00000000000E+00 -0.45593999997E+02  0.45594000000E+02  0.51100000000E-03 0.  1.
    9900012    2    1    2    0    0 -0.40264159625E+01  0.84719025569E+01 -0.30475267370E+02  0.59301841879E+02  0.49999813705E+02 0.  0.
         12    1    1    2    0    0  0.40264159625E+01 -0.84719025569E+01  0.30475267370E+02  0.31886158121E+02  0.00000000000E+00 0. -1.
         11    1    3    3    0    0 -0.51760101417E+01  0.10092437078E+01  0.80309488406E+01  0.96075904050E+01  0.51100000000E-03 0. -1.
        -11    1    3    3    0    0  0.10881967893E+02  0.14073481449E+02 -0.14464787115E+02  0.22928370459E+02  0.51100000000E-03 0.  1.
        -12    1    3    3    0    0 -0.97323737141E+01 -0.66108226002E+01 -0.24041429096E+02  0.26765881015E+02  0.00000000000E+00 0.  1.
</event>
<event>
 7    1  0.6593656E-013  0.5930195E+02  0.7816164E-02  0.1266605E+00
        -11   -1    0    0    0    0  0.00000000000E+00  0.00000000000E+00  0.45593999997E+02  0.45594000000E+02  0.51100000000E-03 0. -1.
         11   -1    0    0    0    0 -0.00000000000E+00 -0.00000000000E+00 -0.45593999997E+02  0.45594000000E+02  0.51100000000E-03 0.  1.
    9900012    2    1    2    0    0  0.22805506726E+02 -0.19734395155E+02  0.10352908152E+02  0.59301949815E+02  0.50000010555E+02 0.  0.
         12    1    1    2    0    0 -0.22805506726E+02  0.19734395155E+02 -0.10352908152E+02  0.31886050185E+02  0.00000000000E+00 0. -1.
         11    1    3    3    0    0  0.44556650720E+01 -0.18267690410E+02  0.45236244153E+01  0.19339716706E+02  0.51100000000E-03 0.  1.
        -11    1    3    3    0    0  0.28436059285E+02 -0.43487530636E+01  0.63508744653E+01  0.29459374189E+02  0.51100000000E-03 0. -1.
         12    1    3    3    0    0 -0.10086217632E+02  0.28820483181E+01 -0.52159072844E+00  0.10502858921E+02  0.00000000000E+00 0. -1.
</event>
<event>
 7    1  0.6593656E-013  0.5930194E+02  0.7816164E-02  0.1266605E+00
        -11   -1    0    0    0    0  0.00000000000E+00  0.00000000000E+00  0.45593999997E+02  0.45594000000E+02  0.51100000000E-03 0.  1.
         11   -1    0    0    0    0 -0.00000000000E+00 -0.00000000000E+00 -0.45593999997E+02  0.45594000000E+02  0.51100000000E-03 0. -1.
    9900012    2    1    2    0    0 -0.22355601249E+02  0.14503631513E+02 -0.17509788965E+02  0.59301938094E+02  0.49999989178E+02 0.  0.
         12    1    1    2    0    0  0.22355601249E+02 -0.14503631513E+02  0.17509788965E+02  0.31886061906E+02  0.00000000000E+00 0. -1.
         11    1    3    3    0    0 -0.48154509524E+00  0.24146486554E+01 -0.13320767861E+02  0.13546411719E+02  0.51100000000E-03 0. -1.
        -11    1    3    3    0    0  0.71986904413E+01  0.68602273104E+01 -0.11621913652E+02  0.15295513722E+02  0.51100000000E-03 0.  1.
        -12    1    3    3    0    0 -0.29072746595E+02  0.52287555472E+01  0.74328925476E+01  0.30460012653E+02  0.00000000000E+00 0.  1.
</event>
<event>
 7    1  0.6593656E-013  0.5930203E+02  0.7816164E-02  0.1266604E+00
        -11   -1    0    0    0    0  0.00000000000E+00  0.00000000000E+00  0.45593999997E+02  0.45594000000E+02  0.51100000000E-03 0. -1.
         11   -1    0    0    0    0 -0.00000000000E+00 -0.00000000000E+00 -0.45593999997E+02  0.45594000000E+02  0.51100000000E-03 0.  1.
    9900012    2    1    2    0    0 -0.10982323272E+01  0.36259001870E+01 -0.31660098069E+02  0.59302030105E+02  0.50000156984E+02 0.  0.
         12    1    1    2    0    0  0.10982323272E+01 -0.36259001870E+01  0.31660098069E+02  0.31885969895E+02  0.00000000000E+00 0. -1.
         11    1    3    3    0    0 -0.44101416333E+00  0.80959642060E+01 -0.33634985429E+02  0.34598430238E+02  0.51100000000E-03 0.  1.
        -11    1    3    3    0    0 -0.81761644173E+01  0.68679219253E+01 -0.11653025423E+01  0.10741319585E+02  0.51100000000E-03 0. -1.
         12    1    3    3    0    0  0.75189462534E+01 -0.11337985944E+02  0.31401899018E+01  0.13962280281E+02  0.00000000000E+00 0. -1.
</event>
<event>
 7    1  0.6593656E-013  0.5930190E+02  0.7816164E-02  0.1266605E+00
        -11   -1    0    0    0    0  0.00000000000E+00  0.00000000000E+00  0.45593999997E+02  0.45594000000E+02  0.51100000000E-03 0.  1.
         11   -1    0    0    0    0 -0.00000000000E+00 -0.00000000000E+00 -0.45593999997E+02  0.45594000000E+02  0.51100000000E-03 0. -1.
    9900012    2    1    2    0    0 -0.22923650653E+02 -0.16030907209E+02  0.15304886769E+02  0.59301901082E+02  0.49999921677E+02 0.  0.
         12    1    1    2    0    0  0.22923650653E+02  0.16030907209E+02 -0.15304886769E+02  0.31886098918E+02  0.00000000000E+00 0. -1.
         11    1    3    3    0    0 -0.24069000123E+02  0.89060417343E+01  0.81146519596E+01  0.26916201868E+02  0.51100000000E-03 0. -1.
        -11    1    3    3    0    0 -0.32459691709E+01  0.62951182988E+00  0.54651887210E+01  0.63875573594E+01  0.51100000000E-03 0.  1.
         12    1    3    3    0    0  0.43913186408E+01 -0.25566460773E+02  0.17250460881E+01  0.25998141854E+02  0.00000000000E+00 0. -1.
</event>
<event>
 7    1  0.6593656E-013  0.5930192E+02  0.7816164E-02  0.1266605E+00
        -11   -1    0    0    0    0  0.00000000000E+00  0.00000000000E+00  0.45593999997E+02  0.45594000000E+02  0.51100000000E-03 0.  1.
         11   -1    0    0    0    0 -0.00000000000E+00 -0.00000000000E+00 -0.45593999997E+02  0.45594000000E+02  0.51100000000E-03 0. -1.
    9900012    2    1    2    0    0  0.15774246629E+02 -0.24999007862E+02  0.11955945177E+02  0.59301923479E+02  0.49999962525E+02 0.  0.
         12    1    1    2    0    0 -0.15774246629E+02  0.24999007862E+02 -0.11955945177E+02  0.31886076521E+02  0.00000000000E+00 0. -1.
         11    1    3    3    0    0 -0.37728289637E+01 -0.63781078168E+01 -0.51926408097E+01  0.90486472222E+01  0.51100000000E-03 0. -1.
        -11    1    3    3    0    0  0.37572780775E+01 -0.20954060652E+02 -0.60161683132E+01  0.22122026982E+02  0.51100000000E-03 0.  1.
        -12    1    3    3    0    0  0.15789797515E+02  0.23331606069E+01  0.23164754300E+02  0.28131249275E+02  0.00000000000E+00 0.  1.
</event>
<event>
 7    1  0.6593656E-013  0.5930192E+02  0.7816164E-02  0.1266605E+00
        -11   -1    0    0    0    0  0.00000000000E+00  0.00000000000E+00  0.45593999997E+02  0.45594000000E+02  0.51100000000E-03 0.  1.
         11   -1    0    0    0    0 -0.00000000000E+00 -0.00000000000E+00 -0.45593999997E+02  0.45594000000E+02  0.51100000000E-03 0. -1.
    9900012    2    1    2    0    0  0.34704542308E+01  0.11447543920E+02  0.29557262304E+02  0.59301920447E+02  0.49999956995E+02 0.  0.
         12    1    1    2    0    0 -0.34704542308E+01 -0.11447543920E+02 -0.29557262304E+02  0.31886079553E+02  0.00000000000E+00 0. -1.
         11    1    3    3    0    0  0.83099957557E+01  0.17245797077E+01  0.58288381879E+01  0.10295900131E+02  0.51100000000E-03 0.  1.
        -11    1    3    3    0    0  0.17533013037E+02  0.71997714734E+01  0.47004424032E+01  0.19527862517E+02  0.51100000000E-03 0. -1.
         12    1    3    3    0    0 -0.22372554562E+02  0.25231927385E+01  0.19027981712E+02  0.29478157800E+02  0.00000000000E+00 0. -1.
</event>
<event>
 7    1  0.6593656E-013  0.5930228E+02  0.7816164E-02  0.1266604E+00
        -11   -1    0    0    0    0  0.00000000000E+00  0.00000000000E+00  0.45593999997E+02  0.45594000000E+02  0.51100000000E-03 0.  1.
         11   -1    0    0    0    0 -0.00000000000E+00 -0.00000000000E+00 -0.45593999997E+02  0.45594000000E+02  0.51100000000E-03 0. -1.
    9900012    2    1    2    0    0  0.12230413471E+02 -0.23087738672E+02  0.18277650644E+02  0.59302279000E+02  0.50000610905E+02 0.  0.
         12    1    1    2    0    0 -0.12230413471E+02  0.23087738672E+02 -0.18277650644E+02  0.31885721000E+02  0.00000000000E+00 0. -1.
         11    1    3    3    0    0 -0.70952001730E+01 -0.39681762773E+01  0.15863092513E+02  0.17824870064E+02  0.51100000000E-03 0. -1.
        -11    1    3    3    0    0 -0.13335297162E+01  0.24143853409E+01  0.10258060373E+02  0.10622399020E+02  0.51100000000E-03 0.  1.
         12    1    3    3    0    0  0.20659143360E+02 -0.21533947736E+02 -0.78435022423E+01  0.30855009915E+02  0.00000000000E+00 0. -1.
</event>
<event>
 7    1  0.6593656E-013  0.5930192E+02  0.7816164E-02  0.1266605E+00
        -11   -1    0    0    0    0  0.00000000000E+00  0.00000000000E+00  0.45593999997E+02  0.45594000000E+02  0.51100000000E-03 0.  1.
         11   -1    0    0    0    0 -0.00000000000E+00 -0.00000000000E+00 -0.45593999997E+02  0.45594000000E+02  0.51100000000E-03 0. -1.
    9900012    2    1    2    0    0 -0.14013588668E+02  0.92787911426E+01  0.27096962521E+02  0.59301921372E+02  0.49999958681E+02 0.  0.
         12    1    1    2    0    0  0.14013588668E+02 -0.92787911426E+01 -0.27096962521E+02  0.31886078628E+02  0.00000000000E+00 0. -1.
         11    1    3    3    0    0  0.50710737636E+01 -0.30506926121E+01  0.22474641065E+02  0.23240740216E+02  0.51100000000E-03 0. -1.
        -11    1    3    3    0    0 -0.59332931066E+01  0.12590897247E+02  0.14127515729E+02  0.19832331217E+02  0.51100000000E-03 0.  1.
        -12    1    3    3    0    0 -0.13151369325E+02 -0.26141349226E+00 -0.95051942739E+01  0.16228849938E+02  0.00000000000E+00 0.  1.
</event>
<event>
 7    1  0.6702115E-013  0.5930190E+02  0.7816164E-02  0.1266605E+00
        -11   -1    0    0    0    0  0.00000000000E+00  0.00000000000E+00  0.45593999997E+02  0.45594000000E+02  0.51100000000E-03 0. -1.
         11   -1    0    0    0    0 -0.00000000000E+00 -0.00000000000E+00 -0.45593999997E+02  0.45594000000E+02  0.51100000000E-03 0.  1.
    9900012    2    1    2    0    0  0.18034813248E+02 -0.58865747443E+01 -0.25628447791E+02  0.59301896643E+02  0.49999913581E+02 0.  0.
         12    1    1    2    0    0 -0.18034813248E+02  0.58865747443E+01  0.25628447791E+02  0.31886103357E+02  0.00000000000E+00 0. -1.
         11    1    3    3    0    0  0.98154215882E+01  0.74638685269E+01  0.45960947770E+01  0.13159632282E+02  0.51100000000E-03 0. -1.
        -11    1    3    3    0    0  0.17926922778E+02 -0.11819784469E+02 -0.10064517614E+02  0.23714476175E+02  0.51100000000E-03 0.  1.
        -12    1    3    3    0    0 -0.97075311178E+01 -0.15306588022E+01 -0.20160024954E+02  0.22427788186E+02  0.00000000000E+00 0.  1.
</event>
<event>
 7    1  0.6593656E-013  0.5930197E+02  0.7816164E-02  0.1266605E+00
        -11   -1    0    0    0    0  0.00000000000E+00  0.00000000000E+00  0.45593999997E+02  0.45594000000E+02  0.51100000000E-03 0. -1.
         11   -1    0    0    0    0 -0.00000000000E+00 -0.00000000000E+00 -0.45593999997E+02  0.45594000000E+02  0.51100000000E-03 0.  1.
    9900012    2    1    2    0    0  0.30740557810E+02  0.82427477092E+01  0.19478302912E+01  0.59301971287E+02  0.50000049714E+02 0.  0.
         12    1    1    2    0    0 -0.30740557810E+02 -0.82427477092E+01 -0.19478302912E+01  0.31886028713E+02  0.00000000000E+00 0. -1.
         11    1    3    3    0    0 -0.24071814267E+01  0.11325973546E+00 -0.52033188515E+01  0.57342721875E+01  0.51100000000E-03 0. -1.
        -11    1    3    3    0    0  0.10022373544E+02 -0.16395735211E+02  0.58316969766E+00  0.19225196793E+02  0.51100000000E-03 0.  1.
        -12    1    3    3    0    0  0.23125365692E+02  0.24525223185E+02  0.65679794451E+01  0.34342502306E+02  0.00000000000E+00 0.  1.
</event>
<event>
 7    1  0.6593656E-013  0.5930193E+02  0.7816164E-02  0.1266605E+00
        -11   -1    0    0    0    0  0.00000000000E+00  0.00000000000E+00  0.45593999997E+02  0.45594000000E+02  0.51100000000E-03 0. -1.
         11   -1    0    0    0    0 -0.00000000000E+00 -0.00000000000E+00 -0.45593999997E+02  0.45594000000E+02  0.51100000000E-03 0.  1.
    9900012    2    1    2    0    0  0.21215607542E+02  0.18699822196E+02 -0.14728756216E+02  0.59301927598E+02  0.49999970036E+02 0.  0.
         12    1    1    2    0    0 -0.21215607542E+02 -0.18699822196E+02  0.14728756216E+02  0.31886072402E+02  0.00000000000E+00 0. -1.
         11    1    3    3    0    0  0.22411698804E+02  0.63217507408E+01 -0.23854500785E+01  0.23408100052E+02  0.51100000000E-03 0. -1.
        -11    1    3    3    0    0  0.40369435312E+01  0.21502035397E+02 -0.12833958093E+02  0.25364244910E+02  0.51100000000E-03 0.  1.
        -12    1    3    3    0    0 -0.52330347929E+01 -0.91239639411E+01  0.49065195468E+00  0.10529582636E+02  0.00000000000E+00 0.  1.
</event>
<event>
 7    1  0.6593656E-013  0.5930193E+02  0.7816164E-02  0.1266605E+00
        -11   -1    0    0    0    0  0.00000000000E+00  0.00000000000E+00  0.45593999997E+02  0.45594000000E+02  0.51100000000E-03 0. -1.
         11   -1    0    0    0    0 -0.00000000000E+00 -0.00000000000E+00 -0.45593999997E+02  0.45594000000E+02  0.51100000000E-03 0.  1.
    9900012    2    1    2    0    0  0.14661854925E+02 -0.21374485485E+02 -0.18571021516E+02  0.59301930005E+02  0.49999974425E+02 0.  0.
         12    1    1    2    0    0 -0.14661854925E+02  0.21374485485E+02  0.18571021516E+02  0.31886069995E+02  0.00000000000E+00 0. -1.
         11    1    3    3    0    0  0.23725822626E+02 -0.11974795034E+02 -0.44558260766E+01  0.26947444436E+02  0.51100000000E-03 0. -1.
        -11    1    3    3    0    0  0.69841610800E+01 -0.92993457409E+01 -0.10996941882E+02  0.16005907291E+02  0.51100000000E-03 0.  1.
        -12    1    3    3    0    0 -0.16048128781E+02 -0.10034471065E+00 -0.31182535580E+01  0.16348578277E+02  0.00000000000E+00 0.  1.
</event>
<event>
 7    1  0.6593656E-013  0.5930194E+02  0.7816164E-02  0.1266605E+00
        -11   -1    0    0    0    0  0.00000000000E+00  0.00000000000E+00  0.45593999997E+02  0.45594000000E+02  0.51100000000E-03 0.  1.
         11   -1    0    0    0    0 -0.00000000000E+00 -0.00000000000E+00 -0.45593999997E+02  0.45594000000E+02  0.51100000000E-03 0. -1.
    9900012    2    1    2    0    0  0.29364886538E+02  0.11163163740E+02  0.54596927667E+01  0.59301936725E+02  0.49999986682E+02 0.  0.
         12    1    1    2    0    0 -0.29364886538E+02 -0.11163163740E+02 -0.54596927667E+01  0.31886063275E+02  0.00000000000E+00 0. -1.
         11    1    3    3    0    0  0.32921954353E+01 -0.11514254774E+02  0.34282237874E+01  0.12456698294E+02  0.51100000000E-03 0. -1.
        -11    1    3    3    0    0 -0.46792047957E+01  0.15712476417E+01  0.76723476867E+01  0.91229762664E+01  0.51100000000E-03 0.  1.
        -12    1    3    3    0    0  0.30751895898E+02  0.21106170873E+02 -0.56408787074E+01  0.37722262165E+02  0.00000000000E+00 0.  1.
</event>
<event>
 7    1  0.6593656E-013  0.5930200E+02  0.7816164E-02  0.1266605E+00
        -11   -1    0    0    0    0  0.00000000000E+00  0.00000000000E+00  0.45593999997E+02  0.45594000000E+02  0.51100000000E-03 0.  1.
         11   -1    0    0    0    0 -0.00000000000E+00 -0.00000000000E+00 -0.45593999997E+02  0.45594000000E+02  0.51100000000E-03 0. -1.
    9900012    2    1    2    0    0  0.14649682876E+02  0.20543973150E+02  0.19494848221E+02  0.59301997611E+02  0.50000097724E+02 0.  0.
         12    1    1    2    0    0 -0.14649682876E+02 -0.20543973150E+02 -0.19494848221E+02  0.31886002389E+02  0.00000000000E+00 0. -1.
         11    1    3    3    0    0  0.47428393564E+01  0.76273343486E+01 -0.74080461669E+01  0.11642590034E+02  0.51100000000E-03 0. -1.
        -11    1    3    3    0    0 -0.11628095301E+02  0.13384761252E+02  0.10738143078E+02  0.20728534707E+02  0.51100000000E-03 0.  1.
         12    1    3    3    0    0  0.21534938820E+02 -0.46812245051E+00  0.16164751310E+02  0.26930872870E+02  0.00000000000E+00 0. -1.
</event>
<event>
 7    1  0.6593656E-013  0.5930195E+02  0.7816164E-02  0.1266605E+00
        -11   -1    0    0    0    0  0.00000000000E+00  0.00000000000E+00  0.45593999997E+02  0.45594000000E+02  0.51100000000E-03 0.  1.
         11   -1    0    0    0    0 -0.00000000000E+00 -0.00000000000E+00 -0.45593999997E+02  0.45594000000E+02  0.51100000000E-03 0. -1.
    9900012    2    1    2    0    0  0.25408372119E+02 -0.13930882527E+02  0.13306601078E+02  0.59301945149E+02  0.50000002046E+02 0.  0.
         12    1    1    2    0    0 -0.25408372119E+02  0.13930882527E+02 -0.13306601078E+02  0.31886054851E+02  0.00000000000E+00 0. -1.
         11    1    3    3    0    0 -0.19053379672E+01  0.20417042059E+01  0.34499697219E+00  0.28138749094E+01  0.51100000000E-03 0. -1.
        -11    1    3    3    0    0  0.26989754897E+02 -0.37451089815E+00 -0.99509795681E+01  0.28768196371E+02  0.51100000000E-03 0.  1.
        -12    1    3    3    0    0  0.32395518870E+00 -0.15598075834E+02  0.22912583674E+02  0.27719873869E+02  0.00000000000E+00 0.  1.
</event>
<event>
 7    1  0.6593656E-013  0.5930196E+02  0.7816164E-02  0.1266605E+00
        -11   -1    0    0    0    0  0.00000000000E+00  0.00000000000E+00  0.45593999997E+02  0.45594000000E+02  0.51100000000E-03 0. -1.
         11   -1    0    0    0    0 -0.00000000000E+00 -0.00000000000E+00 -0.45593999997E+02  0.45594000000E+02  0.51100000000E-03 0.  1.
    9900012    2    1    2    0    0 -0.18636308182E+02  0.99724802519E+01 -0.23873781500E+02  0.59301956217E+02  0.50000022230E+02 0.  0.
         12    1    1    2    0    0  0.18636308182E+02 -0.99724802519E+01  0.23873781500E+02  0.31886043783E+02  0.00000000000E+00 0. -1.
         11    1    3    3    0    0 -0.21553868107E+02 -0.29357673824E+01 -0.93181389173E+01  0.23664650296E+02  0.51100000000E-03 0. -1.
        -11    1    3    3    0    0 -0.10088788234E+02 -0.38302651934E+01 -0.80519094482E+01  0.13464316749E+02  0.51100000000E-03 0.  1.
         12    1    3    3    0    0  0.13006348160E+02  0.16738512828E+02 -0.65037331345E+01  0.22172989172E+02  0.00000000000E+00 0. -1.
</event>
<event>
 7    1  0.6593656E-013  0.5930191E+02  0.7816164E-02  0.1266605E+00
        -11   -1    0    0    0    0  0.00000000000E+00  0.00000000000E+00  0.45593999997E+02  0.45594000000E+02  0.51100000000E-03 0.  1.
         11   -1    0    0    0    0 -0.00000000000E+00 -0.00000000000E+00 -0.45593999997E+02  0.45594000000E+02  0.51100000000E-03 0. -1.
    9900012    2    1    2    0    0  0.27347584074E+02  0.98579295525E+01  0.13101657425E+02  0.59301912799E+02  0.49999943046E+02 0.  0.
         12    1    1    2    0    0 -0.27347584074E+02 -0.98579295525E+01 -0.13101657425E+02  0.31886087201E+02  0.00000000000E+00 0. -1.
         11    1    3    3    0    0  0.84721004014E+01  0.12043950101E+02 -0.74452468642E+01  0.16500452126E+02  0.51100000000E-03 0. -1.
        -11    1    3    3    0    0  0.11935856891E+02 -0.13857947118E+01 -0.73214991186E+01  0.14070872621E+02  0.51100000000E-03 0.  1.
        -12    1    3    3    0    0  0.69396267810E+01 -0.80022583664E+00  0.27868403408E+02  0.28730588051E+02  0.00000000000E+00 0.  1.
</event>
<event>
 7    1  0.6593656E-013  0.5930195E+02  0.7816164E-02  0.1266605E+00
        -11   -1    0    0    0    0  0.00000000000E+00  0.00000000000E+00  0.45593999997E+02  0.45594000000E+02  0.51100000000E-03 0.  1.
         11   -1    0    0    0    0 -0.00000000000E+00 -0.00000000000E+00 -0.45593999997E+02  0.45594000000E+02  0.51100000000E-03 0. -1.
    9900012    2    1    2    0    0 -0.12077458680E+02  0.23869226048E+02  0.17352670031E+02  0.59301951052E+02  0.50000012811E+02 0.  0.
         12    1    1    2    0    0  0.12077458680E+02 -0.23869226048E+02 -0.17352670031E+02  0.31886048948E+02  0.00000000000E+00 0. -1.
         11    1    3    3    0    0 -0.26762245927E+01 -0.38514546729E+01  0.77623530712E+01  0.90691789392E+01  0.51100000000E-03 0. -1.
        -11    1    3    3    0    0 -0.22293579875E+02  0.19523217560E+02 -0.38521143013E+01  0.29883080705E+02  0.51100000000E-03 0.  1.
         12    1    3    3    0    0  0.12892345788E+02  0.81974631610E+01  0.13442431261E+02  0.20349691408E+02  0.00000000000E+00 0. -1.
</event>
<event>
 7    1  0.6593656E-013  0.5930195E+02  0.7816164E-02  0.1266605E+00
        -11   -1    0    0    0    0  0.00000000000E+00  0.00000000000E+00  0.45593999997E+02  0.45594000000E+02  0.51100000000E-03 0.  1.
         11   -1    0    0    0    0 -0.00000000000E+00 -0.00000000000E+00 -0.45593999997E+02  0.45594000000E+02  0.51100000000E-03 0. -1.
    9900012    2    1    2    0    0 -0.17488487353E+02 -0.25304463153E+02  0.83998198013E+01  0.59301952612E+02  0.50000015655E+02 0.  0.
         12    1    1    2    0    0  0.17488487353E+02  0.25304463153E+02 -0.83998198013E+01  0.31886047388E+02  0.00000000000E+00 0. -1.
         11    1    3    3    0    0 -0.11974014029E+02 -0.44648106535E+01 -0.82874186718E+01  0.15231311652E+02  0.51100000000E-03 0. -1.
        -11    1    3    3    0    0 -0.15906400557E+02 -0.23400383449E+02  0.17611522686E+02  0.33328025082E+02  0.51100000000E-03 0.  1.
         12    1    3    3    0    0  0.10391927232E+02  0.25607309499E+01 -0.92428421328E+00  0.10742615878E+02  0.00000000000E+00 0. -1.
</event>
<event>
 7    1  0.6593656E-013  0.5930193E+02  0.7816164E-02  0.1266605E+00
        -11   -1    0    0    0    0  0.00000000000E+00  0.00000000000E+00  0.45593999997E+02  0.45594000000E+02  0.51100000000E-03 0.  1.
         11   -1    0    0    0    0 -0.00000000000E+00 -0.00000000000E+00 -0.45593999997E+02  0.45594000000E+02  0.51100000000E-03 0. -1.
    9900012    2    1    2    0    0 -0.15319724186E+02  0.11024264403E+02  0.25700065555E+02  0.59301925856E+02  0.49999966860E+02 0.  0.
         12    1    1    2    0    0  0.15319724186E+02 -0.11024264403E+02 -0.25700065555E+02  0.31886074144E+02  0.00000000000E+00 0. -1.
         11    1    3    3    0    0 -0.91409233820E+01  0.21260058016E+01  0.17785372569E+02  0.20109596182E+02  0.51100000000E-03 0. -1.
        -11    1    3    3    0    0 -0.14232541610E+02 -0.81257375538E+00  0.18056224005E+02  0.23005493744E+02  0.51100000000E-03 0.  1.
         12    1    3    3    0    0  0.80537408062E+01  0.97108323567E+01 -0.10141531019E+02  0.16186835931E+02  0.00000000000E+00 0. -1.
</event>
<event>
 7    1  0.6593656E-013  0.5930197E+02  0.7816164E-02  0.1266605E+00
        -11   -1    0    0    0    0  0.00000000000E+00  0.00000000000E+00  0.45593999997E+02  0.45594000000E+02  0.51100000000E-03 0.  1.
         11   -1    0    0    0    0 -0.00000000000E+00 -0.00000000000E+00 -0.45593999997E+02  0.45594000000E+02  0.51100000000E-03 0. -1.
    9900012    2    1    2    0    0  0.13963877213E+02 -0.30965313233E+01  0.28498082162E+02  0.59301967636E+02  0.50000043055E+02 0.  0.
         12    1    1    2    0    0 -0.13963877213E+02  0.30965313233E+01 -0.28498082162E+02  0.31886032364E+02  0.00000000000E+00 0. -1.
         11    1    3    3    0    0  0.68159532164E+01 -0.87187422660E+01 -0.67093214605E+01  0.12941741756E+02  0.51100000000E-03 0. -1.
        -11    1    3    3    0    0  0.14769654272E+02 -0.23971068595E+01  0.79514252178E+01  0.16944437786E+02  0.51100000000E-03 0.  1.
        -12    1    3    3    0    0 -0.76217302763E+01  0.80193178022E+01  0.27255978404E+02  0.29415788094E+02  0.00000000000E+00 0.  1.
</event>
<event>
 7    1  0.6593656E-013  0.5930167E+02  0.7816164E-02  0.1266606E+00
        -11   -1    0    0    0    0  0.00000000000E+00  0.00000000000E+00  0.45593999997E+02  0.45594000000E+02  0.51100000000E-03 0. -1.
         11   -1    0    0    0    0 -0.00000000000E+00 -0.00000000000E+00 -0.45593999997E+02  0.45594000000E+02  0.51100000000E-03 0.  1.
    9900012    2    1    2    0    0  0.26092474642E+02 -0.14465035234E+02 -0.11255380754E+02  0.59301669493E+02  0.49999499312E+02 0.  0.
         12    1    1    2    0    0 -0.26092474642E+02  0.14465035234E+02  0.11255380754E+02  0.31886330507E+02  0.00000000000E+00 0. -1.
         11    1    3    3    0    0  0.77506943990E+01  0.70446521405E+01  0.29365358213E+00  0.10477911058E+02  0.51100000000E-03 0. -1.
        -11    1    3    3    0    0  0.14084191765E+02  0.77590929171E+01 -0.10546209192E+02  0.19229937836E+02  0.51100000000E-03 0.  1.
         12    1    3    3    0    0  0.42575884775E+01 -0.29268780292E+02 -0.10028251442E+01  0.29593820600E+02  0.00000000000E+00 0. -1.
</event>
<event>
 7    1  0.6593656E-013  0.5930193E+02  0.7816164E-02  0.1266605E+00
        -11   -1    0    0    0    0  0.00000000000E+00  0.00000000000E+00  0.45593999997E+02  0.45594000000E+02  0.51100000000E-03 0. -1.
         11   -1    0    0    0    0 -0.00000000000E+00 -0.00000000000E+00 -0.45593999997E+02  0.45594000000E+02  0.51100000000E-03 0.  1.
    9900012    2    1    2    0    0 -0.19140733770E+02  0.10420140755E+02 -0.23276044960E+02  0.59301932642E+02  0.49999979235E+02 0.  0.
         12    1    1    2    0    0  0.19140733770E+02 -0.10420140755E+02  0.23276044960E+02  0.31886067358E+02  0.00000000000E+00 0. -1.
         11    1    3    3    0    0 -0.81707803078E+01  0.12089500756E+02  0.97909050090E+00  0.14624510174E+02  0.51100000000E-03 0. -1.
        -11    1    3    3    0    0 -0.19043270306E+02  0.58303470370E+01 -0.26778875271E+02  0.33372852014E+02  0.51100000000E-03 0.  1.
        -12    1    3    3    0    0  0.80733168439E+01 -0.74997070377E+01  0.25237398103E+01  0.11304570454E+02  0.00000000000E+00 0.  1.
</event>
<event>
 7    1  0.6593656E-013  0.5930196E+02  0.7816164E-02  0.1266605E+00
        -11   -1    0    0    0    0  0.00000000000E+00  0.00000000000E+00  0.45593999997E+02  0.45594000000E+02  0.51100000000E-03 0.  1.
         11   -1    0    0    0    0 -0.00000000000E+00 -0.00000000000E+00 -0.45593999997E+02  0.45594000000E+02  0.51100000000E-03 0. -1.
    9900012    2    1    2    0    0 -0.68430424122E+00 -0.30080159640E+02 -0.10556293462E+02  0.59301959042E+02  0.50000027383E+02 0.  0.
         12    1    1    2    0    0  0.68430424122E+00  0.30080159640E+02  0.10556293462E+02  0.31886040958E+02  0.00000000000E+00 0. -1.
         11    1    3    3    0    0 -0.18552348907E+01 -0.29235449771E+02  0.53411842744E+01  0.29777200499E+02  0.51100000000E-03 0. -1.
        -11    1    3    3    0    0 -0.17175905206E+01 -0.97768331806E+01  0.12208459806E+01  0.10001352379E+02  0.51100000000E-03 0.  1.
         12    1    3    3    0    0  0.28885211700E+01  0.89321233113E+01 -0.17118323717E+02  0.19523406165E+02  0.00000000000E+00 0. -1.
</event>
<event>
 7    1  0.6593656E-013  0.5930195E+02  0.7816164E-02  0.1266605E+00
        -11   -1    0    0    0    0  0.00000000000E+00  0.00000000000E+00  0.45593999997E+02  0.45594000000E+02  0.51100000000E-03 0. -1.
         11   -1    0    0    0    0 -0.00000000000E+00 -0.00000000000E+00 -0.45593999997E+02  0.45594000000E+02  0.51100000000E-03 0.  1.
    9900012    2    1    2    0    0  0.12541444476E+02  0.10485034993E+02 -0.27376932098E+02  0.59301949767E+02  0.50000010467E+02 0.  0.
         12    1    1    2    0    0 -0.12541444476E+02 -0.10485034993E+02  0.27376932098E+02  0.31886050233E+02  0.00000000000E+00 0. -1.
         11    1    3    3    0    0  0.18707957362E+02  0.98250623735E+00 -0.17969450494E+02  0.25958700632E+02  0.51100000000E-03 0. -1.
        -11    1    3    3    0    0  0.75719794997E+01 -0.45156287609E+01  0.38887425093E+01  0.96357716461E+01  0.51100000000E-03 0.  1.
        -12    1    3    3    0    0 -0.13738492386E+02  0.14018157517E+02 -0.13296224114E+02  0.23707477489E+02  0.00000000000E+00 0.  1.
</event>
<event>
 7    1  0.6593656E-013  0.5930195E+02  0.7816164E-02  0.1266605E+00
        -11   -1    0    0    0    0  0.00000000000E+00  0.00000000000E+00  0.45593999997E+02  0.45594000000E+02  0.51100000000E-03 0. -1.
         11   -1    0    0    0    0 -0.00000000000E+00 -0.00000000000E+00 -0.45593999997E+02  0.45594000000E+02  0.51100000000E-03 0.  1.
    9900012    2    1    2    0    0  0.27281889845E+02  0.12925252017E+02 -0.10264331540E+02  0.59301950462E+02  0.50000011734E+02 0.  0.
         12    1    1    2    0    0 -0.27281889845E+02 -0.12925252017E+02  0.10264331540E+02  0.31886049538E+02  0.00000000000E+00 0. -1.
         11    1    3    3    0    0  0.15442568245E+02 -0.98793527321E+01 -0.86185001090E+01  0.20257173267E+02  0.51100000000E-03 0. -1.
        -11    1    3    3    0    0  0.16352949149E+02  0.77690220610E+01 -0.10592750658E+02  0.20975772129E+02  0.51100000000E-03 0.  1.
         12    1    3    3    0    0 -0.45136275483E+01  0.15035582688E+02  0.89469192271E+01  0.18069005066E+02  0.00000000000E+00 0. -1.
</event>
<event>
 7    1  0.6593656E-013  0.5930197E+02  0.7816164E-02  0.1266605E+00
        -11   -1    0    0    0    0  0.00000000000E+00  0.00000000000E+00  0.45593999997E+02  0.45594000000E+02  0.51100000000E-03 0.  1.
         11   -1    0    0    0    0 -0.00000000000E+00 -0.00000000000E+00 -0.45593999997E+02  0.45594000000E+02  0.51100000000E-03 0. -1.
    9900012    2    1    2    0    0 -0.17254583747E+02  0.96712171923E+01  0.25009316963E+02  0.59301967992E+02  0.50000043705E+02 0.  0.
         12    1    1    2    0    0  0.17254583747E+02 -0.96712171923E+01 -0.25009316963E+02  0.31886032008E+02  0.00000000000E+00 0. -1.
         11    1    3    3    0    0  0.75004855929E+01 -0.27420641579E+01  0.17907085646E+01  0.81843043321E+01  0.51100000000E-03 0. -1.
        -11    1    3    3    0    0 -0.14386170930E+02 -0.29596779282E+01  0.28305822621E+02  0.31889515549E+02  0.51100000000E-03 0.  1.
        -12    1    3    3    0    0 -0.10368898410E+02  0.15372959278E+02 -0.50872142230E+01  0.19228148111E+02  0.00000000000E+00 0.  1.
</event>
<event>
 7    1  0.6593656E-013  0.5930196E+02  0.7816164E-02  0.1266605E+00
        -11   -1    0    0    0    0  0.00000000000E+00  0.00000000000E+00  0.45593999997E+02  0.45594000000E+02  0.51100000000E-03 0. -1.
         11   -1    0    0    0    0 -0.00000000000E+00 -0.00000000000E+00 -0.45593999997E+02  0.45594000000E+02  0.51100000000E-03 0.  1.
    9900012    2    1    2    0    0 -0.21637570205E+02 -0.17630493542E+02  0.15417551532E+02  0.59301958506E+02  0.50000026404E+02 0.  0.
         12    1    1    2    0    0  0.21637570205E+02  0.17630493542E+02 -0.15417551532E+02  0.31886041494E+02  0.00000000000E+00 0. -1.
         11    1    3    3    0    0 -0.22017718756E+02 -0.22796683557E+02  0.73808230215E+01  0.32541439260E+02  0.51100000000E-03 0. -1.
        -11    1    3    3    0    0 -0.12257695226E+02  0.14030273174E+01  0.37520561365E+01  0.12895638930E+02  0.51100000000E-03 0.  1.
         12    1    3    3    0    0  0.12637843776E+02  0.37631626977E+01  0.42846723744E+01  0.13864880315E+02  0.00000000000E+00 0. -1.
</event>
<event>
 7    1  0.6593656E-013  0.5930196E+02  0.7816164E-02  0.1266605E+00
        -11   -1    0    0    0    0  0.00000000000E+00  0.00000000000E+00  0.45593999997E+02  0.45594000000E+02  0.51100000000E-03 0.  1.
         11   -1    0    0    0    0 -0.00000000000E+00 -0.00000000000E+00 -0.45593999997E+02  0.45594000000E+02  0.51100000000E-03 0. -1.
    9900012    2    1    2    0    0  0.26949314578E+02  0.10069620416E+02  0.13749786051E+02  0.59301961864E+02  0.50000032530E+02 0.  0.
         12    1    1    2    0    0 -0.26949314578E+02 -0.10069620416E+02 -0.13749786051E+02  0.31886038136E+02  0.00000000000E+00 0. -1.
         11    1    3    3    0    0  0.10848873456E+02  0.26147710603E+01 -0.50475058808E+01  0.12247954884E+02  0.51100000000E-03 0. -1.
        -11    1    3    3    0    0  0.96030575223E+01 -0.57674111308E+01 -0.98008576594E+01  0.14884171326E+02  0.51100000000E-03 0.  1.
        -12    1    3    3    0    0  0.64973835999E+01  0.13222260487E+02  0.28598149591E+02  0.32169835655E+02  0.00000000000E+00 0.  1.
</event>
<event>
 7    1  0.6593656E-013  0.5930194E+02  0.7816164E-02  0.1266605E+00
        -11   -1    0    0    0    0  0.00000000000E+00  0.00000000000E+00  0.45593999997E+02  0.45594000000E+02  0.51100000000E-03 0.  1.
         11   -1    0    0    0    0 -0.00000000000E+00 -0.00000000000E+00 -0.45593999997E+02  0.45594000000E+02  0.51100000000E-03 0. -1.
    9900012    2    1    2    0    0 -0.70731014294E+01 -0.55324093290E+01  0.30595500154E+02  0.59301938053E+02  0.49999989104E+02 0.  0.
         12    1    1    2    0    0  0.70731014294E+01  0.55324093290E+01 -0.30595500154E+02  0.31886061947E+02  0.00000000000E+00 0. -1.
         11    1    3    3    0    0 -0.70295162761E+01 -0.67730717996E+01 -0.28036236433E+01  0.10156225011E+02  0.51100000000E-03 0. -1.
        -11    1    3    3    0    0 -0.98862507857E+01  0.71815499613E+00 -0.38355813380E+01  0.10628517566E+02  0.51100000000E-03 0.  1.
        -12    1    3    3    0    0  0.98426656323E+01  0.52250747445E+00  0.37234705135E+02  0.38517195476E+02  0.00000000000E+00 0.  1.
</event>
<event>
 7    1  0.6593656E-013  0.5930194E+02  0.7816164E-02  0.1266605E+00
        -11   -1    0    0    0    0  0.00000000000E+00  0.00000000000E+00  0.45593999997E+02  0.45594000000E+02  0.51100000000E-03 0.  1.
         11   -1    0    0    0    0 -0.00000000000E+00 -0.00000000000E+00 -0.45593999997E+02  0.45594000000E+02  0.51100000000E-03 0. -1.
    9900012    2    1    2    0    0 -0.42489035523E+01 -0.31491487994E+02 -0.26369579246E+01  0.59301944356E+02  0.50000000598E+02 0.  0.
         12    1    1    2    0    0  0.42489035523E+01  0.31491487994E+02  0.26369579246E+01  0.31886055644E+02  0.00000000000E+00 0. -1.
         11    1    3    3    0    0  0.10642904415E+02 -0.38399481995E+02  0.40648084661E+01  0.40053892445E+02  0.51100000000E-03 0. -1.
        -11    1    3    3    0    0  0.96225430371E-03 -0.91965965850E+00  0.37832491982E+00  0.99443693590E+00  0.51100000000E-03 0.  1.
         12    1    3    3    0    0 -0.14892770222E+02  0.78276536591E+01 -0.70800913105E+01  0.18253614975E+02  0.00000000000E+00 0. -1.
</event>
<event>
 7    1  0.6593656E-013  0.5930198E+02  0.7816164E-02  0.1266605E+00
        -11   -1    0    0    0    0  0.00000000000E+00  0.00000000000E+00  0.45593999997E+02  0.45594000000E+02  0.51100000000E-03 0.  1.
         11   -1    0    0    0    0 -0.00000000000E+00 -0.00000000000E+00 -0.45593999997E+02  0.45594000000E+02  0.51100000000E-03 0. -1.
    9900012    2    1    2    0    0 -0.16594140234E+02  0.13059501927E+02  0.23891461571E+02  0.59301983995E+02  0.50000072890E+02 0.  0.
         12    1    1    2    0    0  0.16594140234E+02 -0.13059501927E+02 -0.23891461571E+02  0.31886016005E+02  0.00000000000E+00 0. -1.
         11    1    3    3    0    0 -0.13808703148E+01 -0.29074151976E+01 -0.13818795523E+01  0.35027785137E+01  0.51100000000E-03 0. -1.
        -11    1    3    3    0    0 -0.19839842656E+02  0.18660041180E+02  0.35208522302E+02  0.44513554524E+02  0.51100000000E-03 0.  1.
         12    1    3    3    0    0  0.46265727366E+01 -0.26931240553E+01 -0.99351811784E+01  0.11285650956E+02  0.00000000000E+00 0. -1.
</event>
<event>
 7    1  0.6593656E-013  0.5930195E+02  0.7816164E-02  0.1266605E+00
        -11   -1    0    0    0    0  0.00000000000E+00  0.00000000000E+00  0.45593999997E+02  0.45594000000E+02  0.51100000000E-03 0. -1.
         11   -1    0    0    0    0 -0.00000000000E+00 -0.00000000000E+00 -0.45593999997E+02  0.45594000000E+02  0.51100000000E-03 0.  1.
    9900012    2    1    2    0    0  0.25746909876E+02 -0.11746400530E+02 -0.14691465873E+02  0.59301945633E+02  0.50000002928E+02 0.  0.
         12    1    1    2    0    0 -0.25746909876E+02  0.11746400530E+02  0.14691465873E+02  0.31886054367E+02  0.00000000000E+00 0. -1.
         11    1    3    3    0    0  0.73965153043E+00 -0.13149351443E+02 -0.23755997895E+02  0.27162473452E+02  0.51100000000E-03 0. -1.
        -11    1    3    3    0    0  0.70197347637E+01  0.88153118596E+01  0.20201114343E+01  0.11448460587E+02  0.51100000000E-03 0.  1.
        -12    1    3    3    0    0  0.17987523582E+02 -0.74123609466E+01  0.70444205879E+01  0.20691011595E+02  0.00000000000E+00 0.  1.
</event>
<event>
 7    1  0.6593656E-013  0.5930199E+02  0.7816164E-02  0.1266605E+00
        -11   -1    0    0    0    0  0.00000000000E+00  0.00000000000E+00  0.45593999997E+02  0.45594000000E+02  0.51100000000E-03 0.  1.
         11   -1    0    0    0    0 -0.00000000000E+00 -0.00000000000E+00 -0.45593999997E+02  0.45594000000E+02  0.51100000000E-03 0. -1.
    9900012    2    1    2    0    0  0.28377877269E+02 -0.11884354402E+02  0.83771117950E+01  0.59301987395E+02  0.50000079091E+02 0.  0.
         12    1    1    2    0    0 -0.28377877269E+02  0.11884354402E+02 -0.83771117950E+01  0.31886012605E+02  0.00000000000E+00 0. -1.
         11    1    3    3    0    0  0.83271387761E+00 -0.89973136695E+01 -0.58572858504E+01  0.10768141133E+02  0.51100000000E-03 0. -1.
        -11    1    3    3    0    0  0.31346696006E+02 -0.10814477669E+02  0.19319636967E+02  0.38377293423E+02  0.51100000000E-03 0.  1.
         12    1    3    3    0    0 -0.38015326146E+01  0.79274369364E+01 -0.50852393212E+01  0.10156552838E+02  0.00000000000E+00 0. -1.
</event>
<event>
 7    1  0.6593656E-013  0.5930193E+02  0.7816164E-02  0.1266605E+00
        -11   -1    0    0    0    0  0.00000000000E+00  0.00000000000E+00  0.45593999997E+02  0.45594000000E+02  0.51100000000E-03 0.  1.
         11   -1    0    0    0    0 -0.00000000000E+00 -0.00000000000E+00 -0.45593999997E+02  0.45594000000E+02  0.51100000000E-03 0. -1.
    9900012    2    1    2    0    0  0.23470004852E+02  0.20119392269E+02 -0.78160521811E+01  0.59301925535E+02  0.49999966274E+02 0.  0.
         12    1    1    2    0    0 -0.23470004852E+02 -0.20119392269E+02  0.78160521811E+01  0.31886074465E+02  0.00000000000E+00 0. -1.
         11    1    3    3    0    0  0.78983162793E+01  0.61503033316E+01 -0.16180261638E+02  0.19026573471E+02  0.51100000000E-03 0. -1.
        -11    1    3    3    0    0  0.60014402226E+01  0.17007772198E+02 -0.90460894609E+01  0.20177049702E+02  0.51100000000E-03 0.  1.
        -12    1    3    3    0    0  0.95702483505E+01 -0.30386832604E+01  0.17410298917E+02  0.20098302362E+02  0.00000000000E+00 0.  1.
</event>
<event>
 7    1  0.6593656E-013  0.5930188E+02  0.7816164E-02  0.1266605E+00
        -11   -1    0    0    0    0  0.00000000000E+00  0.00000000000E+00  0.45593999997E+02  0.45594000000E+02  0.51100000000E-03 0.  1.
         11   -1    0    0    0    0 -0.00000000000E+00 -0.00000000000E+00 -0.45593999997E+02  0.45594000000E+02  0.51100000000E-03 0. -1.
    9900012    2    1    2    0    0 -0.59587351574E+01 -0.10250704024E+02 -0.29599678022E+02  0.59301883952E+02  0.49999890435E+02 0.  0.
         12    1    1    2    0    0  0.59587351574E+01  0.10250704024E+02  0.29599678022E+02  0.31886116048E+02  0.00000000000E+00 0. -1.
         11    1    3    3    0    0  0.11441843940E+02  0.10104166868E+02 -0.49857154346E+01  0.16058248332E+02  0.51100000000E-03 0. -1.
        -11    1    3    3    0    0 -0.59645924497E+01 -0.62572971950E+00  0.35778522289E+01  0.69834753244E+01  0.51100000000E-03 0.  1.
        -12    1    3    3    0    0 -0.11435986648E+02 -0.19729141172E+02 -0.28191814816E+02  0.36260160295E+02  0.00000000000E+00 0.  1.
</event>
<event>
 7    1  0.6593656E-013  0.5930196E+02  0.7816164E-02  0.1266605E+00
        -11   -1    0    0    0    0  0.00000000000E+00  0.00000000000E+00  0.45593999997E+02  0.45594000000E+02  0.51100000000E-03 0.  1.
         11   -1    0    0    0    0 -0.00000000000E+00 -0.00000000000E+00 -0.45593999997E+02  0.45594000000E+02  0.51100000000E-03 0. -1.
    9900012    2    1    2    0    0  0.19377869613E+02  0.10848529813E+02  0.22880715766E+02  0.59301959421E+02  0.50000028073E+02 0.  0.
         12    1    1    2    0    0 -0.19377869613E+02 -0.10848529813E+02 -0.22880715766E+02  0.31886040579E+02  0.00000000000E+00 0. -1.
         11    1    3    3    0    0 -0.31624506536E+01 -0.20706034805E+01  0.62115525904E+01  0.72713051617E+01  0.51100000000E-03 0. -1.
        -11    1    3    3    0    0  0.23097307496E+02 -0.66060970994E+01 -0.31197261619E+01  0.24225169227E+02  0.51100000000E-03 0.  1.
         12    1    3    3    0    0 -0.55698722929E+00  0.19525230393E+02  0.19788889337E+02  0.27805485032E+02  0.00000000000E+00 0. -1.
</event>
<event>
 7    1  0.6593656E-013  0.5930193E+02  0.7816164E-02  0.1266605E+00
        -11   -1    0    0    0    0  0.00000000000E+00  0.00000000000E+00  0.45593999997E+02  0.45594000000E+02  0.51100000000E-03 0.  1.
         11   -1    0    0    0    0 -0.00000000000E+00 -0.00000000000E+00 -0.45593999997E+02  0.45594000000E+02  0.51100000000E-03 0. -1.
    9900012    2    1    2    0    0 -0.29928286078E+02 -0.10639063751E+02 -0.27981026626E+01  0.59301931513E+02  0.49999977176E+02 0.  0.
         12    1    1    2    0    0  0.29928286078E+02  0.10639063751E+02  0.27981026626E+01  0.31886068487E+02  0.00000000000E+00 0. -1.
         11    1    3    3    0    0 -0.21122850478E+02  0.34278267339E+01  0.75376696009E+01  0.22687910254E+02  0.51100000000E-03 0. -1.
        -11    1    3    3    0    0 -0.12716213409E+02  0.60145615686E+01 -0.93237456698E+00  0.14097742972E+02  0.51100000000E-03 0.  1.
         12    1    3    3    0    0  0.39107778089E+01 -0.20081452053E+02 -0.94033976965E+01  0.22516278287E+02  0.00000000000E+00 0. -1.
</event>
<event>
 7    1  0.6593656E-013  0.5930196E+02  0.7816164E-02  0.1266605E+00
        -11   -1    0    0    0    0  0.00000000000E+00  0.00000000000E+00  0.45593999997E+02  0.45594000000E+02  0.51100000000E-03 0.  1.
         11   -1    0    0    0    0 -0.00000000000E+00 -0.00000000000E+00 -0.45593999997E+02  0.45594000000E+02  0.51100000000E-03 0. -1.
    9900012    2    1    2    0    0  0.29071215489E+02 -0.16206511363E+01  0.12998370463E+02  0.59301957367E+02  0.50000024328E+02 0.  0.
         12    1    1    2    0    0 -0.29071215489E+02  0.16206511363E+01 -0.12998370463E+02  0.31886042633E+02  0.00000000000E+00 0. -1.
         11    1    3    3    0    0 -0.72681185540E+01  0.29268678560E+01 -0.51540410118E+01  0.93784989083E+01  0.51100000000E-03 0. -1.
        -11    1    3    3    0    0  0.16528627238E+02 -0.16046275513E+02  0.52260360261E+01  0.23621810452E+02  0.51100000000E-03 0.  1.
        -12    1    3    3    0    0  0.19810706804E+02  0.11498756521E+02  0.12926375449E+02  0.26301648006E+02  0.00000000000E+00 0.  1.
</event>
<event>
 7    1  0.6593656E-013  0.5930223E+02  0.7816164E-02  0.1266604E+00
        -11   -1    0    0    0    0  0.00000000000E+00  0.00000000000E+00  0.45593999997E+02  0.45594000000E+02  0.51100000000E-03 0.  1.
         11   -1    0    0    0    0 -0.00000000000E+00 -0.00000000000E+00 -0.45593999997E+02  0.45594000000E+02  0.51100000000E-03 0. -1.
    9900012    2    1    2    0    0 -0.16197288697E+02  0.24027783828E+02  0.13304727272E+02  0.59302230061E+02  0.50000521654E+02 0.  0.
         12    1    1    2    0    0  0.16197288697E+02 -0.24027783828E+02 -0.13304727272E+02  0.31885769939E+02  0.00000000000E+00 0. -1.
         11    1    3    3    0    0 -0.61804857263E+01  0.20281278606E+01  0.11792766507E+02  0.13467778160E+02  0.51100000000E-03 0. -1.
        -11    1    3    3    0    0 -0.20416220408E+02  0.92700108569E+01  0.12871183968E+02  0.25853868841E+02  0.51100000000E-03 0.  1.
         12    1    3    3    0    0  0.10399417437E+02  0.12729645110E+02 -0.11359223203E+02  0.19980583061E+02  0.00000000000E+00 0. -1.
</event>
<event>
 7    1  0.6593656E-013  0.5930194E+02  0.7816164E-02  0.1266605E+00
        -11   -1    0    0    0    0  0.00000000000E+00  0.00000000000E+00  0.45593999997E+02  0.45594000000E+02  0.51100000000E-03 0. -1.
         11   -1    0    0    0    0 -0.00000000000E+00 -0.00000000000E+00 -0.45593999997E+02  0.45594000000E+02  0.51100000000E-03 0.  1.
    9900012    2    1    2    0    0 -0.10550394667E+02 -0.14005588758E+02 -0.26631810589E+02  0.59301942242E+02  0.49999996743E+02 0.  0.
         12    1    1    2    0    0  0.10550394667E+02  0.14005588758E+02  0.26631810589E+02  0.31886057758E+02  0.00000000000E+00 0. -1.
         11    1    3    3    0    0 -0.16749747655E+02 -0.94461113712E+01 -0.22383485898E+01  0.19359578281E+02  0.51100000000E-03 0. -1.
        -11    1    3    3    0    0 -0.40861429977E+01 -0.73689542251E+01  0.42078486807E+01  0.94182823142E+01  0.51100000000E-03 0.  1.
        -12    1    3    3    0    0  0.10285495985E+02  0.28094768382E+01 -0.28601310680E+02  0.30524081647E+02  0.00000000000E+00 0.  1.
</event>
<event>
 7    1  0.6593656E-013  0.5930194E+02  0.7816164E-02  0.1266605E+00
        -11   -1    0    0    0    0  0.00000000000E+00  0.00000000000E+00  0.45593999997E+02  0.45594000000E+02  0.51100000000E-03 0. -1.
         11   -1    0    0    0    0 -0.00000000000E+00 -0.00000000000E+00 -0.45593999997E+02  0.45594000000E+02  0.51100000000E-03 0.  1.
    9900012    2    1    2    0    0  0.20869186735E+02  0.21235371129E+02 -0.11413015774E+02  0.59301939237E+02  0.49999991262E+02 0.  0.
         12    1    1    2    0    0 -0.20869186735E+02 -0.21235371129E+02  0.11413015774E+02  0.31886060763E+02  0.00000000000E+00 0. -1.
         11    1    3    3    0    0  0.60953394944E+01 -0.11009112823E+02 -0.57957771777E+01  0.13854413089E+02  0.51100000000E-03 0. -1.
        -11    1    3    3    0    0  0.22431810982E+02  0.21916076580E+02 -0.80134718183E+01  0.32368445861E+02  0.51100000000E-03 0.  1.
         12    1    3    3    0    0 -0.76579637416E+01  0.10328407371E+02  0.23962332219E+01  0.13079080286E+02  0.00000000000E+00 0. -1.
</event>
<event>
 7    1  0.6593656E-013  0.5930197E+02  0.7816164E-02  0.1266605E+00
        -11   -1    0    0    0    0  0.00000000000E+00  0.00000000000E+00  0.45593999997E+02  0.45594000000E+02  0.51100000000E-03 0.  1.
         11   -1    0    0    0    0 -0.00000000000E+00 -0.00000000000E+00 -0.45593999997E+02  0.45594000000E+02  0.51100000000E-03 0. -1.
    9900012    2    1    2    0    0  0.25125618909E+00 -0.13182626363E+02  0.29032293687E+02  0.59301971018E+02  0.50000049225E+02 0.  0.
         12    1    1    2    0    0 -0.25125618909E+00  0.13182626363E+02 -0.29032293687E+02  0.31886028982E+02  0.00000000000E+00 0. -1.
         11    1    3    3    0    0 -0.25591863775E+01 -0.10467116515E+02 -0.19776129909E+01  0.10955405810E+02  0.51100000000E-03 0. -1.
        -11    1    3    3    0    0 -0.15961265613E+02 -0.46621499000E+01  0.76162938160E+01  0.18289493525E+02  0.51100000000E-03 0.  1.
        -12    1    3    3    0    0  0.18771708180E+02  0.19466400514E+01  0.23393612861E+02  0.30057071683E+02  0.00000000000E+00 0.  1.
</event>
<event>
 7    1  0.6593656E-013  0.5930196E+02  0.7816164E-02  0.1266605E+00
        -11   -1    0    0    0    0  0.00000000000E+00  0.00000000000E+00  0.45593999997E+02  0.45594000000E+02  0.51100000000E-03 0.  1.
         11   -1    0    0    0    0 -0.00000000000E+00 -0.00000000000E+00 -0.45593999997E+02  0.45594000000E+02  0.51100000000E-03 0. -1.
    9900012    2    1    2    0    0 -0.50110100382E-01 -0.28569812247E+02  0.14159196646E+02  0.59301960225E+02  0.50000029541E+02 0.  0.
         12    1    1    2    0    0  0.50110100382E-01  0.28569812247E+02 -0.14159196646E+02  0.31886039775E+02  0.00000000000E+00 0. -1.
         11    1    3    3    0    0 -0.65417360019E+01 -0.25934366671E+02  0.13098879327E+02  0.29781979861E+02  0.51100000000E-03 0. -1.
        -11    1    3    3    0    0  0.55308648077E+01 -0.13971243368E+02 -0.59452032674E+01  0.16159565246E+02  0.51100000000E-03 0.  1.
         12    1    3    3    0    0  0.96076109384E+00  0.11335797792E+02  0.70055205864E+01  0.13360415119E+02  0.00000000000E+00 0. -1.
</event>
<event>
 7    1  0.6593656E-013  0.5930192E+02  0.7816164E-02  0.1266605E+00
        -11   -1    0    0    0    0  0.00000000000E+00  0.00000000000E+00  0.45593999997E+02  0.45594000000E+02  0.51100000000E-03 0. -1.
         11   -1    0    0    0    0 -0.00000000000E+00 -0.00000000000E+00 -0.45593999997E+02  0.45594000000E+02  0.51100000000E-03 0.  1.
    9900012    2    1    2    0    0 -0.30723158019E+02 -0.11076179219E+01 -0.84606832152E+01  0.59301915001E+02  0.49999947062E+02 0.  0.
         12    1    1    2    0    0  0.30723158019E+02  0.11076179219E+01  0.84606832152E+01  0.31886084999E+02  0.00000000000E+00 0. -1.
         11    1    3    3    0    0  0.49691236223E+01  0.12146258431E+02  0.91690721570E+00  0.13155398228E+02  0.51100000000E-03 0. -1.
        -11    1    3    3    0    0 -0.11542283068E+02  0.66323951641E+01 -0.62509157276E+01  0.14706696152E+02  0.51100000000E-03 0.  1.
        -12    1    3    3    0    0 -0.24149998574E+02 -0.19886271517E+02 -0.31266747033E+01  0.31439820620E+02  0.00000000000E+00 0.  1.
</event>
<event>
 7    1  0.6593656E-013  0.5930194E+02  0.7816164E-02  0.1266605E+00
        -11   -1    0    0    0    0  0.00000000000E+00  0.00000000000E+00  0.45593999997E+02  0.45594000000E+02  0.51100000000E-03 0.  1.
         11   -1    0    0    0    0 -0.00000000000E+00 -0.00000000000E+00 -0.45593999997E+02  0.45594000000E+02  0.51100000000E-03 0. -1.
    9900012    2    1    2    0    0  0.99760497395E+01 -0.29999729454E+02  0.41491482213E+01  0.59301940872E+02  0.49999994245E+02 0.  0.
         12    1    1    2    0    0 -0.99760497395E+01  0.29999729454E+02 -0.41491482213E+01  0.31886059128E+02  0.00000000000E+00 0. -1.
         11    1    3    3    0    0  0.16630753096E+01 -0.23272051597E+01  0.12243696493E+02  0.12573376930E+02  0.51100000000E-03 0. -1.
        -11    1    3    3    0    0  0.43406371024E+01 -0.54191179726E+01  0.13680465144E+02  0.15341548060E+02  0.51100000000E-03 0.  1.
         12    1    3    3    0    0  0.39723373274E+01 -0.22253406322E+02 -0.21775013416E+02  0.31387015883E+02  0.00000000000E+00 0. -1.
</event>
<event>
 7    1  0.6593656E-013  0.5930195E+02  0.7816164E-02  0.1266605E+00
        -11   -1    0    0    0    0  0.00000000000E+00  0.00000000000E+00  0.45593999997E+02  0.45594000000E+02  0.51100000000E-03 0.  1.
         11   -1    0    0    0    0 -0.00000000000E+00 -0.00000000000E+00 -0.45593999997E+02  0.45594000000E+02  0.51100000000E-03 0. -1.
    9900012    2    1    2    0    0 -0.93977679798E+01 -0.19015518952E+02  0.23807813213E+02  0.59301953302E+02  0.50000016914E+02 0.  0.
         12    1    1    2    0    0  0.93977679798E+01  0.19015518952E+02 -0.23807813213E+02  0.31886046698E+02  0.00000000000E+00 0. -1.
         11    1    3    3    0    0  0.13438382645E+02 -0.98364302411E+01  0.10281964357E+02  0.19572027981E+02  0.51100000000E-03 0. -1.
        -11    1    3    3    0    0 -0.15233689216E+02 -0.60733470680E+01  0.22320190717E+02  0.27697323799E+02  0.51100000000E-03 0.  1.
         12    1    3    3    0    0 -0.76024614082E+01 -0.31057416431E+01 -0.87943418606E+01  0.12032601522E+02  0.00000000000E+00 0. -1.
</event>
<event>
 7    1  0.6593656E-013  0.5930196E+02  0.7816164E-02  0.1266605E+00
        -11   -1    0    0    0    0  0.00000000000E+00  0.00000000000E+00  0.45593999997E+02  0.45594000000E+02  0.51100000000E-03 0.  1.
         11   -1    0    0    0    0 -0.00000000000E+00 -0.00000000000E+00 -0.45593999997E+02  0.45594000000E+02  0.51100000000E-03 0. -1.
    9900012    2    1    2    0    0  0.27200051736E+02  0.72918358525E+01  0.14956804653E+02  0.59301957757E+02  0.50000025038E+02 0.  0.
         12    1    1    2    0    0 -0.27200051736E+02 -0.72918358525E+01 -0.14956804653E+02  0.31886042243E+02  0.00000000000E+00 0. -1.
         11    1    3    3    0    0  0.21615597666E+02  0.45175804990E+00  0.18665762844E+01  0.21700743192E+02  0.51100000000E-03 0. -1.
        -11    1    3    3    0    0  0.13076923319E+02  0.13725476639E+02  0.18142606824E+02  0.26240213701E+02  0.51100000000E-03 0.  1.
         12    1    3    3    0    0 -0.74924692490E+01 -0.68853988361E+01 -0.50523784555E+01  0.11361000864E+02  0.00000000000E+00 0. -1.
</event>
<event>
 7    1  0.6593656E-013  0.5930183E+02  0.7816164E-02  0.1266605E+00
        -11   -1    0    0    0    0  0.00000000000E+00  0.00000000000E+00  0.45593999997E+02  0.45594000000E+02  0.51100000000E-03 0. -1.
         11   -1    0    0    0    0 -0.00000000000E+00 -0.00000000000E+00 -0.45593999997E+02  0.45594000000E+02  0.51100000000E-03 0.  1.
    9900012    2    1    2    0    0 -0.16288697754E+02  0.26540911761E+02 -0.68546387262E+01  0.59301831467E+02  0.49999794716E+02 0.  0.
         12    1    1    2    0    0  0.16288697754E+02 -0.26540911761E+02  0.68546387262E+01  0.31886168533E+02  0.00000000000E+00 0. -1.
         11    1    3    3    0    0  0.33515153477E-01  0.65126198174E+01 -0.85198891870E+01  0.10723984902E+02  0.51100000000E-03 0. -1.
        -11    1    3    3    0    0  0.92762522674E+01  0.20406626129E+02  0.43566951547E+01  0.22835499536E+02  0.51100000000E-03 0.  1.
         12    1    3    3    0    0 -0.25598465175E+02 -0.37833418526E+00 -0.26914446940E+01  0.25742347030E+02  0.00000000000E+00 0. -1.
</event>
<event>
 7    1  0.6593656E-013  0.5930195E+02  0.7816164E-02  0.1266605E+00
        -11   -1    0    0    0    0  0.00000000000E+00  0.00000000000E+00  0.45593999997E+02  0.45594000000E+02  0.51100000000E-03 0. -1.
         11   -1    0    0    0    0 -0.00000000000E+00 -0.00000000000E+00 -0.45593999997E+02  0.45594000000E+02  0.51100000000E-03 0.  1.
    9900012    2    1    2    0    0 -0.39599705079E+01 -0.30350119089E+02 -0.89391718039E+01  0.59301954656E+02  0.50000019383E+02 0.  0.
         12    1    1    2    0    0  0.39599705079E+01  0.30350119089E+02  0.89391718039E+01  0.31886045344E+02  0.00000000000E+00 0. -1.
         11    1    3    3    0    0  0.42237042201E+01  0.10348417215E+01 -0.54332272819E+01  0.69592049607E+01  0.51100000000E-03 0. -1.
        -11    1    3    3    0    0  0.74679045366E+01 -0.20662087490E+02 -0.18052447110E+02  0.28435581664E+02  0.51100000000E-03 0.  1.
         12    1    3    3    0    0 -0.15651579265E+02 -0.10722873320E+02  0.14546502588E+02  0.23907168031E+02  0.00000000000E+00 0. -1.
</event>
<event>
 7    1  0.6593656E-013  0.5930195E+02  0.7816164E-02  0.1266605E+00
        -11   -1    0    0    0    0  0.00000000000E+00  0.00000000000E+00  0.45593999997E+02  0.45594000000E+02  0.51100000000E-03 0.  1.
         11   -1    0    0    0    0 -0.00000000000E+00 -0.00000000000E+00 -0.45593999997E+02  0.45594000000E+02  0.51100000000E-03 0. -1.
    9900012    2    1    2    0    0  0.12157579043E+02  0.16962344490E+02  0.24107930888E+02  0.59301949908E+02  0.50000010724E+02 0.  0.
         12    1    1    2    0    0 -0.12157579043E+02 -0.16962344490E+02 -0.24107930888E+02  0.31886050092E+02  0.00000000000E+00 0. -1.
         11    1    3    3    0    0  0.74108423398E+00 -0.54694887895E+01  0.12253931829E+02  0.13439619005E+02  0.51100000000E-03 0. -1.
        -11    1    3    3    0    0  0.18412790192E+02  0.50487562394E+01  0.17901734325E+02  0.26172368528E+02  0.51100000000E-03 0.  1.
         12    1    3    3    0    0 -0.69962953837E+01  0.17383077040E+02 -0.60477352669E+01  0.19689962375E+02  0.00000000000E+00 0. -1.
</event>
<event>
 7    1  0.6593656E-013  0.5930193E+02  0.7816164E-02  0.1266605E+00
        -11   -1    0    0    0    0  0.00000000000E+00  0.00000000000E+00  0.45593999997E+02  0.45594000000E+02  0.51100000000E-03 0.  1.
         11   -1    0    0    0    0 -0.00000000000E+00 -0.00000000000E+00 -0.45593999997E+02  0.45594000000E+02  0.51100000000E-03 0. -1.
    9900012    2    1    2    0    0  0.18220637263E+02 -0.18197665950E+02  0.18803578382E+02  0.59301933634E+02  0.49999981045E+02 0.  0.
         12    1    1    2    0    0 -0.18220637263E+02  0.18197665950E+02 -0.18803578382E+02  0.31886066366E+02  0.00000000000E+00 0. -1.
         11    1    3    3    0    0  0.19434332666E+01  0.39950230166E+01 -0.96688472798E+01  0.10640664911E+02  0.51100000000E-03 0. -1.
        -11    1    3    3    0    0  0.91722089855E+01 -0.51747643813E+01 -0.40426270051E+01  0.11280533562E+02  0.51100000000E-03 0.  1.
         12    1    3    3    0    0  0.71049950111E+01 -0.17017924585E+02  0.32515052667E+02  0.37380735162E+02  0.00000000000E+00 0. -1.
</event>
<event>
 7    1  0.6593656E-013  0.5930195E+02  0.7816164E-02  0.1266605E+00
        -11   -1    0    0    0    0  0.00000000000E+00  0.00000000000E+00  0.45593999997E+02  0.45594000000E+02  0.51100000000E-03 0.  1.
         11   -1    0    0    0    0 -0.00000000000E+00 -0.00000000000E+00 -0.45593999997E+02  0.45594000000E+02  0.51100000000E-03 0. -1.
    9900012    2    1    2    0    0  0.29408158949E+02 -0.12310056418E+02  0.58574570221E+00  0.59301946625E+02  0.50000004737E+02 0.  0.
         12    1    1    2    0    0 -0.29408158949E+02  0.12310056418E+02 -0.58574570221E+00  0.31886053375E+02  0.00000000000E+00 0. -1.
         11    1    3    3    0    0 -0.80437497053E+01 -0.15667008886E+02 -0.49006558319E+01  0.18280413141E+02  0.51100000000E-03 0. -1.
        -11    1    3    3    0    0  0.51621802440E+01  0.57730719616E+01  0.37248416574E+01  0.85936552398E+01  0.51100000000E-03 0.  1.
        -12    1    3    3    0    0  0.32289728411E+02 -0.24161194934E+01  0.17615598767E+01  0.32427878244E+02  0.00000000000E+00 0.  1.
</event>
<event>
 7    1  0.6593656E-013  0.5930191E+02  0.7816164E-02  0.1266605E+00
        -11   -1    0    0    0    0  0.00000000000E+00  0.00000000000E+00  0.45593999997E+02  0.45594000000E+02  0.51100000000E-03 0. -1.
         11   -1    0    0    0    0 -0.00000000000E+00 -0.00000000000E+00 -0.45593999997E+02  0.45594000000E+02  0.51100000000E-03 0.  1.
    9900012    2    1    2    0    0 -0.15539764132E+01  0.13148881789E+01 -0.31821041167E+02  0.59301914719E+02  0.49999946548E+02 0.  0.
         12    1    1    2    0    0  0.15539764132E+01 -0.13148881789E+01  0.31821041167E+02  0.31886085281E+02  0.00000000000E+00 0. -1.
         11    1    3    3    0    0  0.11867083564E+02  0.17693265406E+01 -0.13956801451E+01  0.12079160237E+02  0.51100000000E-03 0. -1.
        -11    1    3    3    0    0  0.11022072251E+02  0.91623696721E+00 -0.57587157377E+01  0.12469497749E+02  0.51100000000E-03 0.  1.
        -12    1    3    3    0    0 -0.24443132228E+02 -0.13706753289E+01 -0.24666645284E+02  0.34753256733E+02  0.00000000000E+00 0.  1.
</event>
<event>
 7    1  0.6593656E-013  0.5930193E+02  0.7816164E-02  0.1266605E+00
        -11   -1    0    0    0    0  0.00000000000E+00  0.00000000000E+00  0.45593999997E+02  0.45594000000E+02  0.51100000000E-03 0. -1.
         11   -1    0    0    0    0 -0.00000000000E+00 -0.00000000000E+00 -0.45593999997E+02  0.45594000000E+02  0.51100000000E-03 0.  1.
    9900012    2    1    2    0    0 -0.28734528970E+01  0.16629947153E+02 -0.27053831791E+02  0.59301926419E+02  0.49999967886E+02 0.  0.
         12    1    1    2    0    0  0.28734528970E+01 -0.16629947153E+02  0.27053831791E+02  0.31886073581E+02  0.00000000000E+00 0. -1.
         11    1    3    3    0    0  0.88677168517E+01 -0.11233913683E+01 -0.20867323295E+02  0.22701180412E+02  0.51100000000E-03 0. -1.
        -11    1    3    3    0    0  0.44068008727E+01  0.14193432849E+02 -0.11969963882E+02  0.19082805495E+02  0.51100000000E-03 0.  1.
         12    1    3    3    0    0 -0.16147970621E+02  0.35599056727E+01  0.57834553865E+01  0.17517940512E+02  0.00000000000E+00 0. -1.
</event>
<event>
 7    1  0.6593656E-013  0.5930199E+02  0.7816164E-02  0.1266605E+00
        -11   -1    0    0    0    0  0.00000000000E+00  0.00000000000E+00  0.45593999997E+02  0.45594000000E+02  0.51100000000E-03 0.  1.
         11   -1    0    0    0    0 -0.00000000000E+00 -0.00000000000E+00 -0.45593999997E+02  0.45594000000E+02  0.51100000000E-03 0. -1.
    9900012    2    1    2    0    0  0.29974611154E+02  0.72528587305E+01  0.81016074397E+01  0.59301994971E+02  0.50000092908E+02 0.  0.
         12    1    1    2    0    0 -0.29974611154E+02 -0.72528587305E+01 -0.81016074397E+01  0.31886005029E+02  0.00000000000E+00 0. -1.
         11    1    3    3    0    0  0.28278042905E+01 -0.67053762733E+01  0.44806109516E+01  0.85460179518E+01  0.51100000000E-03 0. -1.
        -11    1    3    3    0    0 -0.10476369062E+02  0.55509365796E+01 -0.11456413970E+01  0.11911326547E+02  0.51100000000E-03 0.  1.
        -12    1    3    3    0    0  0.37623175926E+02  0.84072984242E+01  0.47666378851E+01  0.38844650472E+02  0.00000000000E+00 0.  1.
</event>
<event>
 7    1  0.6593656E-013  0.5930196E+02  0.7816164E-02  0.1266605E+00
        -11   -1    0    0    0    0  0.00000000000E+00  0.00000000000E+00  0.45593999997E+02  0.45594000000E+02  0.51100000000E-03 0.  1.
         11   -1    0    0    0    0 -0.00000000000E+00 -0.00000000000E+00 -0.45593999997E+02  0.45594000000E+02  0.51100000000E-03 0. -1.
    9900012    2    1    2    0    0 -0.12581370339E+02  0.96083443004E+01  0.27678667787E+02  0.59301955870E+02  0.50000021598E+02 0.  0.
         12    1    1    2    0    0  0.12581370339E+02 -0.96083443004E+01 -0.27678667787E+02  0.31886044130E+02  0.00000000000E+00 0. -1.
         11    1    3    3    0    0  0.18187695619E+01 -0.36990713518E+01  0.28204673898E+01  0.49946059047E+01  0.51100000000E-03 0. -1.
        -11    1    3    3    0    0 -0.25112244748E+01 -0.12947748067E+02  0.21591825307E+02  0.25301330967E+02  0.51100000000E-03 0.  1.
         12    1    3    3    0    0 -0.11888915426E+02  0.26255163719E+02  0.32663750902E+01  0.29006018998E+02  0.00000000000E+00 0. -1.
</event>
<event>
 7    1  0.6593656E-013  0.5930198E+02  0.7816164E-02  0.1266605E+00
        -11   -1    0    0    0    0  0.00000000000E+00  0.00000000000E+00  0.45593999997E+02  0.45594000000E+02  0.51100000000E-03 0.  1.
         11   -1    0    0    0    0 -0.00000000000E+00 -0.00000000000E+00 -0.45593999997E+02  0.45594000000E+02  0.51100000000E-03 0. -1.
    9900012    2    1    2    0    0  0.29482221164E+02  0.72826642294E+01  0.97200533826E+01  0.59301984244E+02  0.50000073345E+02 0.  0.
         12    1    1    2    0    0 -0.29482221164E+02 -0.72826642294E+01 -0.97200533826E+01  0.31886015756E+02  0.00000000000E+00 0. -1.
         11    1    3    3    0    0  0.23354127590E+02  0.58692801638E+01  0.53772047425E+01  0.24673428141E+02  0.51100000000E-03 0. -1.
        -11    1    3    3    0    0 -0.50370320784E+01  0.14794526496E+02  0.67720878423E+01  0.17032641615E+02  0.51100000000E-03 0.  1.
         12    1    3    3    0    0  0.11165125652E+02 -0.13381142430E+02 -0.24292392022E+01  0.17595914488E+02  0.00000000000E+00 0. -1.
</event>
<event>
 7    1  0.6593656E-013  0.5930193E+02  0.7816164E-02  0.1266605E+00
        -11   -1    0    0    0    0  0.00000000000E+00  0.00000000000E+00  0.45593999997E+02  0.45594000000E+02  0.51100000000E-03 0. -1.
         11   -1    0    0    0    0 -0.00000000000E+00 -0.00000000000E+00 -0.45593999997E+02  0.45594000000E+02  0.51100000000E-03 0.  1.
    9900012    2    1    2    0    0  0.18709525229E+02  0.24271746960E+02 -0.88066811210E+01  0.59301926752E+02  0.49999968494E+02 0.  0.
         12    1    1    2    0    0 -0.18709525229E+02 -0.24271746960E+02  0.88066811210E+01  0.31886073248E+02  0.00000000000E+00 0. -1.
         11    1    3    3    0    0  0.33885721595E+01  0.94474988328E+01  0.13750486668E+02  0.17023910812E+02  0.51100000000E-03 0.  1.
        -11    1    3    3    0    0 -0.84152349794E+01  0.31469567909E+01 -0.33555140146E+01  0.95905678333E+01  0.51100000000E-03 0. -1.
        -12    1    3    3    0    0  0.23736188049E+02  0.11677291336E+02 -0.19201653774E+02  0.32687448107E+02  0.00000000000E+00 0.  1.
</event>
<event>
 7    1  0.6593656E-013  0.5930197E+02  0.7816164E-02  0.1266605E+00
        -11   -1    0    0    0    0  0.00000000000E+00  0.00000000000E+00  0.45593999997E+02  0.45594000000E+02  0.51100000000E-03 0.  1.
         11   -1    0    0    0    0 -0.00000000000E+00 -0.00000000000E+00 -0.45593999997E+02  0.45594000000E+02  0.51100000000E-03 0. -1.
    9900012    2    1    2    0    0  0.11622634382E+02 -0.71634052048E+01  0.28815249598E+02  0.59301974636E+02  0.50000055822E+02 0.  0.
         12    1    1    2    0    0 -0.11622634382E+02  0.71634052048E+01 -0.28815249598E+02  0.31886025364E+02  0.00000000000E+00 0. -1.
         11    1    3    3    0    0  0.19756563588E+01  0.27131567160E+01 -0.39872462256E+01  0.52117722646E+01  0.51100000000E-03 0. -1.
        -11    1    3    3    0    0  0.16286560442E+01  0.50881554884E+01 -0.81574115985E+01  0.97511645988E+01  0.51100000000E-03 0.  1.
        -12    1    3    3    0    0  0.80183219790E+01 -0.14964717409E+02  0.40959907423E+02  0.44339037772E+02  0.00000000000E+00 0.  1.
</event>
<event>
 7    1  0.6593656E-013  0.5930197E+02  0.7816164E-02  0.1266605E+00
        -11   -1    0    0    0    0  0.00000000000E+00  0.00000000000E+00  0.45593999997E+02  0.45594000000E+02  0.51100000000E-03 0.  1.
         11   -1    0    0    0    0 -0.00000000000E+00 -0.00000000000E+00 -0.45593999997E+02  0.45594000000E+02  0.51100000000E-03 0. -1.
    9900012    2    1    2    0    0  0.36222479658E+00 -0.31167956839E+02  0.67190718178E+01  0.59301973806E+02  0.50000054308E+02 0.  0.
         12    1    1    2    0    0 -0.36222479658E+00  0.31167956839E+02 -0.67190718178E+01  0.31886026194E+02  0.00000000000E+00 0. -1.
         11    1    3    3    0    0 -0.17014081725E+02 -0.53859121131E+01  0.38213154212E+01  0.18250739109E+02  0.51100000000E-03 0. -1.
        -11    1    3    3    0    0  0.33099340615E+01 -0.16123069386E+02 -0.10355104075E+02  0.19445750451E+02  0.51100000000E-03 0.  1.
        -12    1    3    3    0    0  0.14066372460E+02 -0.96589753401E+01  0.13252860472E+02  0.21605484246E+02  0.00000000000E+00 0.  1.
</event>
<event>
 7    1  0.6593656E-013  0.5930194E+02  0.7816164E-02  0.1266605E+00
        -11   -1    0    0    0    0  0.00000000000E+00  0.00000000000E+00  0.45593999997E+02  0.45594000000E+02  0.51100000000E-03 0.  1.
         11   -1    0    0    0    0 -0.00000000000E+00 -0.00000000000E+00 -0.45593999997E+02  0.45594000000E+02  0.51100000000E-03 0. -1.
    9900012    2    1    2    0    0  0.12954841802E+01  0.31436715593E+02  0.51744819501E+01  0.59301943016E+02  0.49999998155E+02 0.  0.
         12    1    1    2    0    0 -0.12954841802E+01 -0.31436715593E+02 -0.51744819501E+01  0.31886056984E+02  0.00000000000E+00 0. -1.
         11    1    3    3    0    0  0.10201858299E+02 -0.14107944676E+01 -0.34565543543E+01  0.10863517940E+02  0.51100000000E-03 0.  1.
        -11    1    3    3    0    0 -0.16416537830E+02  0.31402719897E+01  0.56882339830E+01  0.17655594824E+02  0.51100000000E-03 0. -1.
        -12    1    3    3    0    0  0.75101637113E+01  0.29707238071E+02  0.29428023214E+01  0.30782830251E+02  0.00000000000E+00 0.  1.
</event>
<event>
 7    1  0.6593656E-013  0.5930197E+02  0.7816164E-02  0.1266605E+00
        -11   -1    0    0    0    0  0.00000000000E+00  0.00000000000E+00  0.45593999997E+02  0.45594000000E+02  0.51100000000E-03 0.  1.
         11   -1    0    0    0    0 -0.00000000000E+00 -0.00000000000E+00 -0.45593999997E+02  0.45594000000E+02  0.51100000000E-03 0. -1.
    9900012    2    1    2    0    0  0.88990789264E+01 -0.27521154948E+02  0.13420564455E+02  0.59301966605E+02  0.50000041175E+02 0.  0.
         12    1    1    2    0    0 -0.88990789264E+01  0.27521154948E+02 -0.13420564455E+02  0.31886033395E+02  0.00000000000E+00 0. -1.
         11    1    3    3    0    0  0.56735379580E+01 -0.31122522830E+00 -0.98668501085E+00  0.57670999363E+01  0.51100000000E-03 0. -1.
        -11    1    3    3    0    0  0.51114689124E+01 -0.61361599549E+01 -0.15184878788E+02  0.17156926225E+02  0.51100000000E-03 0.  1.
        -12    1    3    3    0    0 -0.18859279440E+01 -0.21073769765E+02  0.29592128254E+02  0.36377940443E+02  0.00000000000E+00 0.  1.
</event>
<event>
 7    1  0.6593656E-013  0.5930192E+02  0.7816164E-02  0.1266605E+00
        -11   -1    0    0    0    0  0.00000000000E+00  0.00000000000E+00  0.45593999997E+02  0.45594000000E+02  0.51100000000E-03 0. -1.
         11   -1    0    0    0    0 -0.00000000000E+00 -0.00000000000E+00 -0.45593999997E+02  0.45594000000E+02  0.51100000000E-03 0.  1.
    9900012    2    1    2    0    0 -0.13606593010E+02  0.22075551461E+02 -0.18554055119E+02  0.59301916719E+02  0.49999950196E+02 0.  0.
         12    1    1    2    0    0  0.13606593010E+02 -0.22075551461E+02  0.18554055119E+02  0.31886083281E+02  0.00000000000E+00 0. -1.
         11    1    3    3    0    0  0.50824165012E+01 -0.85846707733E+01 -0.75627405215E+01  0.12518888698E+02  0.51100000000E-03 0. -1.
        -11    1    3    3    0    0 -0.14850417274E+02  0.42562268429E+01 -0.12768876701E+02  0.20042319541E+02  0.51100000000E-03 0.  1.
        -12    1    3    3    0    0 -0.38385922375E+01  0.26403995391E+02  0.17775621033E+01  0.26740708480E+02  0.00000000000E+00 0.  1.
</event>
<event>
 7    1  0.6593656E-013  0.5930195E+02  0.7816164E-02  0.1266605E+00
        -11   -1    0    0    0    0  0.00000000000E+00  0.00000000000E+00  0.45593999997E+02  0.45594000000E+02  0.51100000000E-03 0.  1.
         11   -1    0    0    0    0 -0.00000000000E+00 -0.00000000000E+00 -0.45593999997E+02  0.45594000000E+02  0.51100000000E-03 0. -1.
    9900012    2    1    2    0    0  0.20040929967E+02  0.13248840084E+02  0.20965440584E+02  0.59301947620E+02  0.50000006551E+02 0.  0.
         12    1    1    2    0    0 -0.20040929967E+02 -0.13248840084E+02 -0.20965440584E+02  0.31886052380E+02  0.00000000000E+00 0. -1.
         11    1    3    3    0    0 -0.17506329016E+01 -0.75920955903E+01  0.12618929564E+01  0.78928451842E+01  0.51100000000E-03 0. -1.
        -11    1    3    3    0    0 -0.72065674337E+01 -0.45828068285E+01  0.11640934318E+01  0.86192718012E+01  0.51100000000E-03 0.  1.
         12    1    3    3    0    0  0.28998130302E+02  0.25423742502E+02  0.18539454196E+02  0.42789830635E+02  0.00000000000E+00 0. -1.
</event>
<event>
 7    1  0.6593656E-013  0.5930193E+02  0.7816164E-02  0.1266605E+00
        -11   -1    0    0    0    0  0.00000000000E+00  0.00000000000E+00  0.45593999997E+02  0.45594000000E+02  0.51100000000E-03 0.  1.
         11   -1    0    0    0    0 -0.00000000000E+00 -0.00000000000E+00 -0.45593999997E+02  0.45594000000E+02  0.51100000000E-03 0. -1.
    9900012    2    1    2    0    0  0.21147046999E+02 -0.87106793963E+01  0.22218195751E+02  0.59301925379E+02  0.49999965988E+02 0.  0.
         12    1    1    2    0    0 -0.21147046999E+02  0.87106793963E+01 -0.22218195751E+02  0.31886074621E+02  0.00000000000E+00 0. -1.
         11    1    3    3    0    0  0.69943472293E+01 -0.24321316868E+01  0.15134939642E+02  0.16849408178E+02  0.51100000000E-03 0. -1.
        -11    1    3    3    0    0  0.64846491938E+01 -0.11797766341E+01  0.23075612836E+02  0.23998467786E+02  0.51100000000E-03 0.  1.
         12    1    3    3    0    0  0.76680505759E+01 -0.50987710754E+01 -0.15992356727E+02  0.18454049415E+02  0.00000000000E+00 0. -1.
</event>
<event>
 7    1  0.6593656E-013  0.5930193E+02  0.7816164E-02  0.1266605E+00
        -11   -1    0    0    0    0  0.00000000000E+00  0.00000000000E+00  0.45593999997E+02  0.45594000000E+02  0.51100000000E-03 0.  1.
         11   -1    0    0    0    0 -0.00000000000E+00 -0.00000000000E+00 -0.45593999997E+02  0.45594000000E+02  0.51100000000E-03 0. -1.
    9900012    2    1    2    0    0  0.25852845985E+02 -0.79611623932E+01  0.16881098884E+02  0.59301933268E+02  0.49999980376E+02 0.  0.
         12    1    1    2    0    0 -0.25852845985E+02  0.79611623932E+01 -0.16881098884E+02  0.31886066732E+02  0.00000000000E+00 0. -1.
         11    1    3    3    0    0  0.76552345904E+01 -0.90725355152E+01 -0.94714182980E+01  0.15186220140E+02  0.51100000000E-03 0. -1.
        -11    1    3    3    0    0 -0.26589705513E+00 -0.58669851818E+01 -0.45624324887E+01  0.74369353125E+01  0.51100000000E-03 0.  1.
         12    1    3    3    0    0  0.18463508449E+02  0.69783583038E+01  0.30914949670E+02  0.36678777815E+02  0.00000000000E+00 0. -1.
</event>
<event>
 7    1  0.6593656E-013  0.5930193E+02  0.7816164E-02  0.1266605E+00
        -11   -1    0    0    0    0  0.00000000000E+00  0.00000000000E+00  0.45593999997E+02  0.45594000000E+02  0.51100000000E-03 0. -1.
         11   -1    0    0    0    0 -0.00000000000E+00 -0.00000000000E+00 -0.45593999997E+02  0.45594000000E+02  0.51100000000E-03 0.  1.
    9900012    2    1    2    0    0  0.19830577895E+02 -0.14564152690E+02 -0.20281883914E+02  0.59301934418E+02  0.49999982474E+02 0.  0.
         12    1    1    2    0    0 -0.19830577895E+02  0.14564152690E+02  0.20281883914E+02  0.31886065582E+02  0.00000000000E+00 0. -1.
         11    1    3    3    0    0  0.16638873968E+01 -0.16526169640E+02 -0.22657438518E+02  0.28093456973E+02  0.51100000000E-03 0. -1.
        -11    1    3    3    0    0  0.11132297182E+02 -0.91460370220E+01 -0.60133837412E+01  0.15612136883E+02  0.51100000000E-03 0.  1.
         12    1    3    3    0    0  0.70343933155E+01  0.11108053972E+02  0.83889383460E+01  0.15596340562E+02  0.00000000000E+00 0. -1.
</event>
<event>
 7    1  0.6593656E-013  0.5930196E+02  0.7816164E-02  0.1266605E+00
        -11   -1    0    0    0    0  0.00000000000E+00  0.00000000000E+00  0.45593999997E+02  0.45594000000E+02  0.51100000000E-03 0.  1.
         11   -1    0    0    0    0 -0.00000000000E+00 -0.00000000000E+00 -0.45593999997E+02  0.45594000000E+02  0.51100000000E-03 0. -1.
    9900012    2    1    2    0    0  0.48543560158E+01 -0.48907571478E+01  0.31132543889E+02  0.59301959687E+02  0.50000028559E+02 0.  0.
         12    1    1    2    0    0 -0.48543560158E+01  0.48907571478E+01 -0.31132543889E+02  0.31886040313E+02  0.00000000000E+00 0. -1.
         11    1    3    3    0    0  0.23526046071E+00  0.25271002010E+01 -0.10090791048E+02  0.10405077950E+02  0.51100000000E-03 0. -1.
        -11    1    3    3    0    0  0.32913110051E+00  0.86750961970E+01  0.83500384501E+01  0.12045279726E+02  0.51100000000E-03 0.  1.
        -12    1    3    3    0    0  0.42899644546E+01 -0.16092953546E+02  0.32873296487E+02  0.36851602011E+02  0.00000000000E+00 0.  1.
</event>
<event>
 7    1  0.6593656E-013  0.5930192E+02  0.7816164E-02  0.1266605E+00
        -11   -1    0    0    0    0  0.00000000000E+00  0.00000000000E+00  0.45593999997E+02  0.45594000000E+02  0.51100000000E-03 0.  1.
         11   -1    0    0    0    0 -0.00000000000E+00 -0.00000000000E+00 -0.45593999997E+02  0.45594000000E+02  0.51100000000E-03 0. -1.
    9900012    2    1    2    0    0 -0.33263712207E+01  0.23920048822E+02 -0.20820395682E+02  0.59301915927E+02  0.49999948751E+02 0.  0.
         12    1    1    2    0    0  0.33263712207E+01 -0.23920048822E+02  0.20820395682E+02  0.31886084073E+02  0.00000000000E+00 0. -1.
         11    1    3    3    0    0 -0.58806425715E+01 -0.15625275832E+01 -0.13236252375E+02  0.14567835347E+02  0.51100000000E-03 0. -1.
        -11    1    3    3    0    0  0.99023045419E+01 -0.54848925502E+01 -0.61310979937E+01  0.12873618155E+02  0.51100000000E-03 0.  1.
        -12    1    3    3    0    0 -0.73480331912E+01  0.30967468956E+02 -0.14530453138E+01  0.31860462426E+02  0.00000000000E+00 0.  1.
</event>
<event>
 7    1  0.6593656E-013  0.5930189E+02  0.7816164E-02  0.1266605E+00
        -11   -1    0    0    0    0  0.00000000000E+00  0.00000000000E+00  0.45593999997E+02  0.45594000000E+02  0.51100000000E-03 0.  1.
         11   -1    0    0    0    0 -0.00000000000E+00 -0.00000000000E+00 -0.45593999997E+02  0.45594000000E+02  0.51100000000E-03 0. -1.
    9900012    2    1    2    0    0  0.14015476698E+02 -0.26003139875E+02  0.12005297028E+02  0.59301889746E+02  0.49999901003E+02 0.  0.
         12    1    1    2    0    0 -0.14015476698E+02  0.26003139875E+02 -0.12005297028E+02  0.31886110254E+02  0.00000000000E+00 0. -1.
         11    1    3    3    0    0  0.44099528080E+01 -0.97209071156E+01 -0.11552108768E+02  0.15728793220E+02  0.51100000000E-03 0. -1.
        -11    1    3    3    0    0  0.16053637521E+02 -0.20344803889E+02  0.24777757056E+02  0.35854812340E+02  0.51100000000E-03 0.  1.
         12    1    3    3    0    0 -0.64481136304E+01  0.40625711299E+01 -0.12203512606E+01  0.77182841860E+01  0.00000000000E+00 0. -1.
</event>
<event>
 7    1  0.6593656E-013  0.5930195E+02  0.7816164E-02  0.1266605E+00
        -11   -1    0    0    0    0  0.00000000000E+00  0.00000000000E+00  0.45593999997E+02  0.45594000000E+02  0.51100000000E-03 0. -1.
         11   -1    0    0    0    0 -0.00000000000E+00 -0.00000000000E+00 -0.45593999997E+02  0.45594000000E+02  0.51100000000E-03 0.  1.
    9900012    2    1    2    0    0  0.21348804489E+02 -0.21670319748E+02 -0.95575246435E+01  0.59301945237E+02  0.50000002205E+02 0.  0.
         12    1    1    2    0    0 -0.21348804489E+02  0.21670319748E+02  0.95575246435E+01  0.31886054763E+02  0.00000000000E+00 0. -1.
         11    1    3    3    0    0  0.75533170628E+01  0.11672636044E+01 -0.11157051068E+02  0.13523863789E+02  0.51100000000E-03 0. -1.
        -11    1    3    3    0    0  0.17214306218E+02 -0.27028145915E+02 -0.95067451100E+01  0.33425008796E+02  0.51100000000E-03 0.  1.
         12    1    3    3    0    0 -0.34188187925E+01  0.41905625630E+01  0.11106271535E+02  0.12353072652E+02  0.00000000000E+00 0. -1.
</event>
<event>
 7    1  0.6605194E-013  0.5930190E+02  0.7816164E-02  0.1266605E+00
        -11   -1    0    0    0    0  0.00000000000E+00  0.00000000000E+00  0.45593999997E+02  0.45594000000E+02  0.51100000000E-03 0. -1.
         11   -1    0    0    0    0 -0.00000000000E+00 -0.00000000000E+00 -0.45593999997E+02  0.45594000000E+02  0.51100000000E-03 0.  1.
    9900012    2    1    2    0    0  0.10037258084E+02 -0.14757691000E+01 -0.30229102228E+02  0.59301904820E+02  0.49999928495E+02 0.  0.
         12    1    1    2    0    0 -0.10037258084E+02  0.14757691000E+01  0.30229102228E+02  0.31886095180E+02  0.00000000000E+00 0. -1.
         11    1    3    3    0    0  0.68394940286E+01 -0.35452402929E+01  0.51534603969E+01  0.92685253209E+01  0.51100000000E-03 0. -1.
        -11    1    3    3    0    0  0.95685273703E+01  0.16201593333E+02 -0.13255158512E+02  0.23016245784E+02  0.51100000000E-03 0.  1.
         12    1    3    3    0    0 -0.63707633153E+01 -0.14132122140E+02 -0.22127404113E+02  0.27017133715E+02  0.00000000000E+00 0. -1.
</event>
<event>
 7    1  0.6593656E-013  0.5930196E+02  0.7816164E-02  0.1266605E+00
        -11   -1    0    0    0    0  0.00000000000E+00  0.00000000000E+00  0.45593999997E+02  0.45594000000E+02  0.51100000000E-03 0.  1.
         11   -1    0    0    0    0 -0.00000000000E+00 -0.00000000000E+00 -0.45593999997E+02  0.45594000000E+02  0.51100000000E-03 0. -1.
    9900012    2    1    2    0    0 -0.30681487839E+02  0.40623535811E+00  0.86718520742E+01  0.59301956947E+02  0.50000023561E+02 0.  0.
         12    1    1    2    0    0  0.30681487839E+02 -0.40623535811E+00 -0.86718520742E+01  0.31886043053E+02  0.00000000000E+00 0. -1.
         11    1    3    3    0    0 -0.78571696685E+01  0.89834086828E+01  0.10281286396E+02  0.15752510815E+02  0.51100000000E-03 0. -1.
        -11    1    3    3    0    0 -0.25734870885E+02  0.64443706720E+01 -0.68087520283E+01  0.27389278875E+02  0.51100000000E-03 0.  1.
         12    1    3    3    0    0  0.29105527146E+01 -0.15021543997E+02  0.51993177063E+01  0.16160167257E+02  0.00000000000E+00 0. -1.
</event>
<event>
 7    1  0.6593656E-013  0.5930195E+02  0.7816164E-02  0.1266605E+00
        -11   -1    0    0    0    0  0.00000000000E+00  0.00000000000E+00  0.45593999997E+02  0.45594000000E+02  0.51100000000E-03 0.  1.
         11   -1    0    0    0    0 -0.00000000000E+00 -0.00000000000E+00 -0.45593999997E+02  0.45594000000E+02  0.51100000000E-03 0. -1.
    9900012    2    1    2    0    0 -0.93075659025E+01  0.12927047436E+02  0.27622110601E+02  0.59301947681E+02  0.50000006662E+02 0.  0.
         12    1    1    2    0    0  0.93075659025E+01 -0.12927047436E+02 -0.27622110601E+02  0.31886052319E+02  0.00000000000E+00 0. -1.
         11    1    3    3    0    0  0.16137260768E+02  0.78065012170E+00  0.83018046692E+01  0.18164266039E+02  0.51100000000E-03 0. -1.
        -11    1    3    3    0    0 -0.55822467428E+01  0.14384794258E+02  0.39624779447E+01  0.15930631384E+02  0.51100000000E-03 0.  1.
        -12    1    3    3    0    0 -0.19862579927E+02 -0.22383969441E+01  0.15357827987E+02  0.25207050259E+02  0.00000000000E+00 0.  1.
</event>
<event>
 7    1  0.6593656E-013  0.5930195E+02  0.7816164E-02  0.1266605E+00
        -11   -1    0    0    0    0  0.00000000000E+00  0.00000000000E+00  0.45593999997E+02  0.45594000000E+02  0.51100000000E-03 0.  1.
         11   -1    0    0    0    0 -0.00000000000E+00 -0.00000000000E+00 -0.45593999997E+02  0.45594000000E+02  0.51100000000E-03 0. -1.
    9900012    2    1    2    0    0  0.11379267800E+02 -0.22097259740E+02  0.19973572400E+02  0.59301949475E+02  0.50000009934E+02 0.  0.
         12    1    1    2    0    0 -0.11379267800E+02  0.22097259740E+02 -0.19973572400E+02  0.31886050525E+02  0.00000000000E+00 0. -1.
         11    1    3    3    0    0  0.25641422985E+01 -0.16893507883E+02 -0.50555471870E+01  0.17819202899E+02  0.51100000000E-03 0. -1.
        -11    1    3    3    0    0 -0.32583943967E+01 -0.16266793782E+02  0.10863003909E+02  0.19830042062E+02  0.51100000000E-03 0.  1.
        -12    1    3    3    0    0  0.12073519899E+02  0.11063041925E+02  0.14166115678E+02  0.21652704514E+02  0.00000000000E+00 0.  1.
</event>
<event>
 7    1  0.6593656E-013  0.5930194E+02  0.7816164E-02  0.1266605E+00
        -11   -1    0    0    0    0  0.00000000000E+00  0.00000000000E+00  0.45593999997E+02  0.45594000000E+02  0.51100000000E-03 0. -1.
         11   -1    0    0    0    0 -0.00000000000E+00 -0.00000000000E+00 -0.45593999997E+02  0.45594000000E+02  0.51100000000E-03 0.  1.
    9900012    2    1    2    0    0 -0.78281155764E+01  0.24263274838E+02 -0.19150322804E+02  0.59301940933E+02  0.49999994356E+02 0.  0.
         12    1    1    2    0    0  0.78281155764E+01 -0.24263274838E+02  0.19150322804E+02  0.31886059067E+02  0.00000000000E+00 0. -1.
         11    1    3    3    0    0  0.69143199256E+01  0.17048546281E+02 -0.11023605438E+02  0.21447158960E+02  0.51100000000E-03 0. -1.
        -11    1    3    3    0    0 -0.16129626394E+02  0.36036870706E-02 -0.18880964483E+02  0.24832552843E+02  0.51100000000E-03 0.  1.
         12    1    3    3    0    0  0.13871908922E+01  0.72111248697E+01  0.10754247117E+02  0.13022229130E+02  0.00000000000E+00 0. -1.
</event>
<event>
 7    1  0.6593656E-013  0.5930194E+02  0.7816164E-02  0.1266605E+00
        -11   -1    0    0    0    0  0.00000000000E+00  0.00000000000E+00  0.45593999997E+02  0.45594000000E+02  0.51100000000E-03 0.  1.
         11   -1    0    0    0    0 -0.00000000000E+00 -0.00000000000E+00 -0.45593999997E+02  0.45594000000E+02  0.51100000000E-03 0. -1.
    9900012    2    1    2    0    0  0.83854093312E+01  0.30757660421E+02 -0.60995572733E+00  0.59301940190E+02  0.49999993000E+02 0.  0.
         12    1    1    2    0    0 -0.83854093312E+01 -0.30757660421E+02  0.60995572733E+00  0.31886059810E+02  0.00000000000E+00 0. -1.
         11    1    3    3    0    0 -0.59349845029E+01  0.67080316551E+01  0.77239676672E+01  0.11827147015E+02  0.51100000000E-03 0. -1.
        -11    1    3    3    0    0 -0.56752316226E+01  0.54134471705E+01  0.11346370260E+02  0.13793251342E+02  0.51100000000E-03 0.  1.
         12    1    3    3    0    0  0.19995625457E+02  0.18636181596E+02 -0.19680293655E+02  0.33681541832E+02  0.00000000000E+00 0. -1.
</event>
<event>
 7    1  0.6593656E-013  0.5930195E+02  0.7816164E-02  0.1266605E+00
        -11   -1    0    0    0    0  0.00000000000E+00  0.00000000000E+00  0.45593999997E+02  0.45594000000E+02  0.51100000000E-03 0. -1.
         11   -1    0    0    0    0 -0.00000000000E+00 -0.00000000000E+00 -0.45593999997E+02  0.45594000000E+02  0.51100000000E-03 0.  1.
    9900012    2    1    2    0    0 -0.17701011264E+02 -0.18067906054E+02  0.19415081545E+02  0.59301946303E+02  0.50000004149E+02 0.  0.
         12    1    1    2    0    0  0.17701011264E+02  0.18067906054E+02 -0.19415081545E+02  0.31886053697E+02  0.00000000000E+00 0. -1.
         11    1    3    3    0    0 -0.19618133838E+02 -0.48653382128E+01  0.32424680880E+02  0.38208672074E+02  0.51100000000E-03 0. -1.
        -11    1    3    3    0    0  0.27019479470E+01 -0.17120894691E+01  0.61044269088E+00  0.32564418616E+01  0.51100000000E-03 0.  1.
        -12    1    3    3    0    0 -0.78482537284E+00 -0.11490478373E+02 -0.13620042026E+02  0.17836832367E+02  0.00000000000E+00 0.  1.
</event>
<event>
 7    1  0.6593656E-013  0.5930191E+02  0.7816164E-02  0.1266605E+00
        -11   -1    0    0    0    0  0.00000000000E+00  0.00000000000E+00  0.45593999997E+02  0.45594000000E+02  0.51100000000E-03 0. -1.
         11   -1    0    0    0    0 -0.00000000000E+00 -0.00000000000E+00 -0.45593999997E+02  0.45594000000E+02  0.51100000000E-03 0.  1.
    9900012    2    1    2    0    0  0.24375870144E+02  0.86803104709E+01  0.18633080124E+02  0.59301913535E+02  0.49999944389E+02 0.  0.
         12    1    1    2    0    0 -0.24375870144E+02 -0.86803104709E+01 -0.18633080124E+02  0.31886086465E+02  0.00000000000E+00 0. -1.
         11    1    3    3    0    0  0.18041506619E+02  0.19584188258E+02  0.10056556760E+02  0.28463498115E+02  0.51100000000E-03 0. -1.
        -11    1    3    3    0    0  0.84265292916E+01 -0.26427601221E+01 -0.81811456423E+01  0.12038343792E+02  0.51100000000E-03 0.  1.
        -12    1    3    3    0    0 -0.20921657674E+01 -0.82611176654E+01  0.16757669007E+02  0.18800071628E+02  0.00000000000E+00 0.  1.
</event>
<event>
 7    1  0.6593656E-013  0.5930193E+02  0.7816164E-02  0.1266605E+00
        -11   -1    0    0    0    0  0.00000000000E+00  0.00000000000E+00  0.45593999997E+02  0.45594000000E+02  0.51100000000E-03 0.  1.
         11   -1    0    0    0    0 -0.00000000000E+00 -0.00000000000E+00 -0.45593999997E+02  0.45594000000E+02  0.51100000000E-03 0. -1.
    9900012    2    1    2    0    0  0.16881446453E+02  0.23738194719E+02 -0.12970597926E+02  0.59301928850E+02  0.49999972319E+02 0.  0.
         12    1    1    2    0    0 -0.16881446453E+02 -0.23738194719E+02  0.12970597926E+02  0.31886071150E+02  0.00000000000E+00 0. -1.
         11    1    3    3    0    0  0.92033307005E+01  0.21002616855E+01 -0.10161593357E+02  0.13869764776E+02  0.51100000000E-03 0. -1.
        -11    1    3    3    0    0  0.41023630813E+01 -0.47129744657E+01 -0.14947080676E+02  0.16200516416E+02  0.51100000000E-03 0.  1.
        -12    1    3    3    0    0  0.35757526708E+01  0.26350907499E+02  0.12138076107E+02  0.29231647657E+02  0.00000000000E+00 0.  1.
</event>
<event>
 7    1  0.6593656E-013  0.5930195E+02  0.7816164E-02  0.1266605E+00
        -11   -1    0    0    0    0  0.00000000000E+00  0.00000000000E+00  0.45593999997E+02  0.45594000000E+02  0.51100000000E-03 0.  1.
         11   -1    0    0    0    0 -0.00000000000E+00 -0.00000000000E+00 -0.45593999997E+02  0.45594000000E+02  0.51100000000E-03 0. -1.
    9900012    2    1    2    0    0 -0.28444182772E+02  0.13563114957E+02  0.48672855595E+01  0.59301951490E+02  0.50000013609E+02 0.  0.
         12    1    1    2    0    0  0.28444182772E+02 -0.13563114957E+02 -0.48672855595E+01  0.31886048510E+02  0.00000000000E+00 0. -1.
         11    1    3    3    0    0 -0.59728073987E+01  0.23801330553E+02  0.11902773349E+01  0.24568160792E+02  0.51100000000E-03 0. -1.
        -11    1    3    3    0    0 -0.49238817943E+01  0.75884098298E+01  0.35551162852E+01  0.97194355665E+01  0.51100000000E-03 0.  1.
         12    1    3    3    0    0 -0.17547493579E+02 -0.17826625426E+02  0.12189193939E+00  0.25014355131E+02  0.00000000000E+00 0. -1.
</event>
<event>
 7    1  0.6593656E-013  0.5930194E+02  0.7816164E-02  0.1266605E+00
        -11   -1    0    0    0    0  0.00000000000E+00  0.00000000000E+00  0.45593999997E+02  0.45594000000E+02  0.51100000000E-03 0. -1.
         11   -1    0    0    0    0 -0.00000000000E+00 -0.00000000000E+00 -0.45593999997E+02  0.45594000000E+02  0.51100000000E-03 0.  1.
    9900012    2    1    2    0    0  0.12574530724E+02 -0.28167904984E+02  0.80728527428E+01  0.59301942772E+02  0.49999997710E+02 0.  0.
         12    1    1    2    0    0 -0.12574530724E+02  0.28167904984E+02 -0.80728527428E+01  0.31886057228E+02  0.00000000000E+00 0. -1.
         11    1    3    3    0    0 -0.20964324108E+01  0.30267531908E+01 -0.31786310631E+01  0.48641504323E+01  0.51100000000E-03 0. -1.
        -11    1    3    3    0    0  0.28531334653E+02 -0.16378859764E+02  0.55473749136E+01  0.33362815722E+02  0.51100000000E-03 0.  1.
         12    1    3    3    0    0 -0.13860371518E+02 -0.14815798411E+02  0.57041088923E+01  0.21074976617E+02  0.00000000000E+00 0. -1.
</event>
<event>
 7    1  0.6593656E-013  0.5930193E+02  0.7816164E-02  0.1266605E+00
        -11   -1    0    0    0    0  0.00000000000E+00  0.00000000000E+00  0.45593999997E+02  0.45594000000E+02  0.51100000000E-03 0.  1.
         11   -1    0    0    0    0 -0.00000000000E+00 -0.00000000000E+00 -0.45593999997E+02  0.45594000000E+02  0.51100000000E-03 0. -1.
    9900012    2    1    2    0    0 -0.94519538514E+01 -0.24055548797E+02  0.18673853901E+02  0.59301926566E+02  0.49999968153E+02 0.  0.
         12    1    1    2    0    0  0.94519538514E+01  0.24055548797E+02 -0.18673853901E+02  0.31886073434E+02  0.00000000000E+00 0. -1.
         11    1    3    3    0    0 -0.89535055051E+01 -0.22525041532E+02 -0.27008199216E+01  0.24389284233E+02  0.51100000000E-03 0. -1.
        -11    1    3    3    0    0  0.61770751318E+01 -0.11549879087E+02  0.18268715568E+02  0.22478921969E+02  0.51100000000E-03 0.  1.
        -12    1    3    3    0    0 -0.66755234781E+01  0.10019371822E+02  0.31059582538E+01  0.12433720364E+02  0.00000000000E+00 0.  1.
</event>
<event>
 7    1  0.6593656E-013  0.5930194E+02  0.7816164E-02  0.1266605E+00
        -11   -1    0    0    0    0  0.00000000000E+00  0.00000000000E+00  0.45593999997E+02  0.45594000000E+02  0.51100000000E-03 0.  1.
         11   -1    0    0    0    0 -0.00000000000E+00 -0.00000000000E+00 -0.45593999997E+02  0.45594000000E+02  0.51100000000E-03 0. -1.
    9900012    2    1    2    0    0 -0.10178258885E+02  0.90531911162E+01  0.28829905685E+02  0.59301942152E+02  0.49999996579E+02 0.  0.
         12    1    1    2    0    0  0.10178258885E+02 -0.90531911162E+01 -0.28829905685E+02  0.31886057848E+02  0.00000000000E+00 0. -1.
         11    1    3    3    0    0 -0.20761894546E+00  0.95935342806E+01 -0.29289889647E+00  0.96002497699E+01  0.51100000000E-03 0. -1.
        -11    1    3    3    0    0  0.11998604704E+02 -0.10019909642E+02  0.16181345505E+02  0.22498912123E+02  0.51100000000E-03 0.  1.
         12    1    3    3    0    0 -0.21969244644E+02  0.94795664778E+01  0.12941459076E+02  0.27202780259E+02  0.00000000000E+00 0. -1.
</event>
<event>
 7    1  0.6593656E-013  0.5930193E+02  0.7816164E-02  0.1266605E+00
        -11   -1    0    0    0    0  0.00000000000E+00  0.00000000000E+00  0.45593999997E+02  0.45594000000E+02  0.51100000000E-03 0.  1.
         11   -1    0    0    0    0 -0.00000000000E+00 -0.00000000000E+00 -0.45593999997E+02  0.45594000000E+02  0.51100000000E-03 0. -1.
    9900012    2    1    2    0    0 -0.14846301079E+02 -0.24265426532E+02  0.14404792214E+02  0.59301927504E+02  0.49999969864E+02 0.  0.
         12    1    1    2    0    0  0.14846301079E+02  0.24265426532E+02 -0.14404792214E+02  0.31886072496E+02  0.00000000000E+00 0. -1.
         11    1    3    3    0    0 -0.68844080977E+01 -0.14310088794E+02  0.28513410265E+01  0.16133935107E+02  0.51100000000E-03 0. -1.
        -11    1    3    3    0    0 -0.57620393052E+01 -0.24888930756E+02  0.11637596495E+02  0.28073005247E+02  0.51100000000E-03 0.  1.
         12    1    3    3    0    0 -0.21998536762E+01  0.14933593018E+02 -0.84145307733E-01  0.15094987150E+02  0.00000000000E+00 0. -1.
</event>
<event>
 7    1  0.6593656E-013  0.5930194E+02  0.7816164E-02  0.1266605E+00
        -11   -1    0    0    0    0  0.00000000000E+00  0.00000000000E+00  0.45593999997E+02  0.45594000000E+02  0.51100000000E-03 0.  1.
         11   -1    0    0    0    0 -0.00000000000E+00 -0.00000000000E+00 -0.45593999997E+02  0.45594000000E+02  0.51100000000E-03 0. -1.
    9900012    2    1    2    0    0 -0.28461102831E+02 -0.62614800772E+01  0.12941430298E+02  0.59301935249E+02  0.49999983990E+02 0.  0.
         12    1    1    2    0    0  0.28461102831E+02  0.62614800772E+01 -0.12941430298E+02  0.31886064751E+02  0.00000000000E+00 0. -1.
         11    1    3    3    0    0 -0.21356012231E+02 -0.14483400715E+01 -0.38455679071E+01  0.21747766325E+02  0.51100000000E-03 0. -1.
        -11    1    3    3    0    0 -0.18591719100E+02 -0.70942055359E+01  0.41542381041E+01  0.20328243056E+02  0.51100000000E-03 0.  1.
         12    1    3    3    0    0  0.11486628499E+02  0.22810655303E+01  0.12632760101E+02  0.17225925867E+02  0.00000000000E+00 0. -1.
</event>
<event>
 7    1  0.6593656E-013  0.5930194E+02  0.7816164E-02  0.1266605E+00
        -11   -1    0    0    0    0  0.00000000000E+00  0.00000000000E+00  0.45593999997E+02  0.45594000000E+02  0.51100000000E-03 0.  1.
         11   -1    0    0    0    0 -0.00000000000E+00 -0.00000000000E+00 -0.45593999997E+02  0.45594000000E+02  0.51100000000E-03 0. -1.
    9900012    2    1    2    0    0  0.19375586182E+02  0.29874114297E+01  0.25147223779E+02  0.59301939868E+02  0.49999992414E+02 0.  0.
         12    1    1    2    0    0 -0.19375586182E+02 -0.29874114297E+01 -0.25147223779E+02  0.31886060132E+02  0.00000000000E+00 0. -1.
         11    1    3    3    0    0  0.18445633004E+02  0.18363275513E+02  0.28868076608E+01  0.26187495551E+02  0.51100000000E-03 0.  1.
        -11    1    3    3    0    0  0.48034224584E+01 -0.10300080177E-01 -0.10606272189E+01  0.49191364856E+01  0.51100000000E-03 0. -1.
        -12    1    3    3    0    0 -0.38734692809E+01 -0.15365564003E+02  0.23321043337E+02  0.28195307832E+02  0.00000000000E+00 0.  1.
</event>
<event>
 7    1  0.6593656E-013  0.5930196E+02  0.7816164E-02  0.1266605E+00
        -11   -1    0    0    0    0  0.00000000000E+00  0.00000000000E+00  0.45593999997E+02  0.45594000000E+02  0.51100000000E-03 0. -1.
         11   -1    0    0    0    0 -0.00000000000E+00 -0.00000000000E+00 -0.45593999997E+02  0.45594000000E+02  0.51100000000E-03 0.  1.
    9900012    2    1    2    0    0  0.16378768727E+02 -0.13996094097E+02 -0.23506701285E+02  0.59301957281E+02  0.50000024171E+02 0.  0.
         12    1    1    2    0    0 -0.16378768727E+02  0.13996094097E+02  0.23506701285E+02  0.31886042719E+02  0.00000000000E+00 0. -1.
         11    1    3    3    0    0 -0.22839221321E-01 -0.22876626421E+02 -0.16395486304E+02  0.28145204378E+02  0.51100000000E-03 0. -1.
        -11    1    3    3    0    0  0.13531513630E+02 -0.62703693599E+01 -0.35636154737E+01  0.15333582378E+02  0.51100000000E-03 0.  1.
         12    1    3    3    0    0  0.28700943184E+01  0.15150901684E+02 -0.35475995069E+01  0.15823170526E+02  0.00000000000E+00 0. -1.
</event>
<event>
 7    1  0.6593656E-013  0.5930193E+02  0.7816164E-02  0.1266605E+00
        -11   -1    0    0    0    0  0.00000000000E+00  0.00000000000E+00  0.45593999997E+02  0.45594000000E+02  0.51100000000E-03 0. -1.
         11   -1    0    0    0    0 -0.00000000000E+00 -0.00000000000E+00 -0.45593999997E+02  0.45594000000E+02  0.51100000000E-03 0.  1.
    9900012    2    1    2    0    0  0.15889436017E+02 -0.11908592715E+02 -0.24948600303E+02  0.59301930715E+02  0.49999975721E+02 0.  0.
         12    1    1    2    0    0 -0.15889436017E+02  0.11908592715E+02  0.24948600303E+02  0.31886069285E+02  0.00000000000E+00 0. -1.
         11    1    3    3    0    0  0.15291850603E+02  0.11207100522E+02 -0.19792823490E+02  0.27407948828E+02  0.51100000000E-03 0. -1.
        -11    1    3    3    0    0 -0.28052411316E+00  0.22479319287E+01  0.42599208476E+01  0.48248127034E+01  0.51100000000E-03 0.  1.
        -12    1    3    3    0    0  0.87810952703E+00 -0.25363625165E+02 -0.94156976599E+01  0.27069169184E+02  0.00000000000E+00 0.  1.
</event>
<event>
 7    1  0.6593656E-013  0.5930194E+02  0.7816164E-02  0.1266605E+00
        -11   -1    0    0    0    0  0.00000000000E+00  0.00000000000E+00  0.45593999997E+02  0.45594000000E+02  0.51100000000E-03 0.  1.
         11   -1    0    0    0    0 -0.00000000000E+00 -0.00000000000E+00 -0.45593999997E+02  0.45594000000E+02  0.51100000000E-03 0. -1.
    9900012    2    1    2    0    0  0.11160676889E+02  0.29781297241E+02  0.22878457657E+01  0.59301943295E+02  0.49999998664E+02 0.  0.
         12    1    1    2    0    0 -0.11160676889E+02 -0.29781297241E+02 -0.22878457657E+01  0.31886056705E+02  0.00000000000E+00 0. -1.
         11    1    3    3    0    0  0.89200459673E+01  0.74749966051E+01 -0.57360063061E+01  0.12974766391E+02  0.51100000000E-03 0. -1.
        -11    1    3    3    0    0  0.10610264780E+02  0.63871214352E+01  0.20840418861E+02  0.24242444132E+02  0.51100000000E-03 0.  1.
         12    1    3    3    0    0 -0.83696338588E+01  0.15919179200E+02 -0.12816566789E+02  0.22084732772E+02  0.00000000000E+00 0. -1.
</event>
<event>
 7    1  0.6593656E-013  0.5930191E+02  0.7816164E-02  0.1266605E+00
        -11   -1    0    0    0    0  0.00000000000E+00  0.00000000000E+00  0.45593999997E+02  0.45594000000E+02  0.51100000000E-03 0.  1.
         11   -1    0    0    0    0 -0.00000000000E+00 -0.00000000000E+00 -0.45593999997E+02  0.45594000000E+02  0.51100000000E-03 0. -1.
    9900012    2    1    2    0    0 -0.35465074389E+01  0.22710616713E+01  0.31606756443E+02  0.59301913866E+02  0.49999944992E+02 0.  0.
         12    1    1    2    0    0  0.35465074389E+01 -0.22710616713E+01 -0.31606756443E+02  0.31886086134E+02  0.00000000000E+00 0. -1.
         11    1    3    3    0    0 -0.15029895879E+02  0.13600418568E+02  0.11901459964E+01  0.20304817239E+02  0.51100000000E-03 0. -1.
        -11    1    3    3    0    0  0.74248937948E+01  0.14594566520E+01  0.24085004256E+01  0.79410286578E+01  0.51100000000E-03 0.  1.
        -12    1    3    3    0    0  0.40584946453E+01 -0.12788813549E+02  0.28008110020E+02  0.31056067969E+02  0.00000000000E+00 0.  1.
</event>
<event>
 7    1  0.6593656E-013  0.5930194E+02  0.7816164E-02  0.1266605E+00
        -11   -1    0    0    0    0  0.00000000000E+00  0.00000000000E+00  0.45593999997E+02  0.45594000000E+02  0.51100000000E-03 0. -1.
         11   -1    0    0    0    0 -0.00000000000E+00 -0.00000000000E+00 -0.45593999997E+02  0.45594000000E+02  0.51100000000E-03 0.  1.
    9900012    2    1    2    0    0  0.75151685450E+01  0.20440310921E+02 -0.23290271747E+02  0.59301939929E+02  0.49999992526E+02 0.  0.
         12    1    1    2    0    0 -0.75151685450E+01 -0.20440310921E+02  0.23290271747E+02  0.31886060071E+02  0.00000000000E+00 0. -1.
         11    1    3    3    0    0  0.12040100026E+02  0.99581031058E+01 -0.10119716583E+02  0.18615490594E+02  0.51100000000E-03 0.  1.
        -11    1    3    3    0    0  0.12886822300E+02 -0.61678056890E+01 -0.33763160193E+01  0.14680310832E+02  0.51100000000E-03 0. -1.
         12    1    3    3    0    0 -0.17411753781E+02  0.16650013504E+02 -0.97942391445E+01  0.26006138503E+02  0.00000000000E+00 0. -1.
</event>
<event>
 7    1  0.6593656E-013  0.5930196E+02  0.7816164E-02  0.1266605E+00
        -11   -1    0    0    0    0  0.00000000000E+00  0.00000000000E+00  0.45593999997E+02  0.45594000000E+02  0.51100000000E-03 0. -1.
         11   -1    0    0    0    0 -0.00000000000E+00 -0.00000000000E+00 -0.45593999997E+02  0.45594000000E+02  0.51100000000E-03 0.  1.
    9900012    2    1    2    0    0 -0.20279367567E+02  0.19732839438E+02 -0.14699721165E+02  0.59301960680E+02  0.50000030370E+02 0.  0.
         12    1    1    2    0    0  0.20279367567E+02 -0.19732839438E+02  0.14699721165E+02  0.31886039320E+02  0.00000000000E+00 0. -1.
         11    1    3    3    0    0 -0.37185674733E+01  0.13805798805E+01  0.46545701879E+01  0.61154532747E+01  0.51100000000E-03 0. -1.
        -11    1    3    3    0    0 -0.14069959098E+02  0.15703230076E+02  0.10191079768E+02  0.23418225615E+02  0.51100000000E-03 0.  1.
        -12    1    3    3    0    0 -0.24908409952E+01  0.26490294816E+01 -0.29545371121E+02  0.29768281790E+02  0.00000000000E+00 0.  1.
</event>
<event>
 7    1  0.6593656E-013  0.5930194E+02  0.7816164E-02  0.1266605E+00
        -11   -1    0    0    0    0  0.00000000000E+00  0.00000000000E+00  0.45593999997E+02  0.45594000000E+02  0.51100000000E-03 0.  1.
         11   -1    0    0    0    0 -0.00000000000E+00 -0.00000000000E+00 -0.45593999997E+02  0.45594000000E+02  0.51100000000E-03 0. -1.
    9900012    2    1    2    0    0  0.28482304089E+02 -0.86653350372E+01  0.11418904570E+02  0.59301936287E+02  0.49999985882E+02 0.  0.
         12    1    1    2    0    0 -0.28482304089E+02  0.86653350372E+01 -0.11418904570E+02  0.31886063713E+02  0.00000000000E+00 0. -1.
         11    1    3    3    0    0  0.18183798673E+02  0.16324831412E+01 -0.16089991584E+02  0.24335228884E+02  0.51100000000E-03 0. -1.
        -11    1    3    3    0    0  0.11268832550E+01  0.41001110422E+01  0.34992146850E+01  0.55068393931E+01  0.51100000000E-03 0.  1.
        -12    1    3    3    0    0  0.91716221609E+01 -0.14397929221E+02  0.24009681469E+02  0.29459868010E+02  0.00000000000E+00 0.  1.
</event>
<event>
 7    1  0.6593656E-013  0.5930198E+02  0.7816164E-02  0.1266605E+00
        -11   -1    0    0    0    0  0.00000000000E+00  0.00000000000E+00  0.45593999997E+02  0.45594000000E+02  0.51100000000E-03 0. -1.
         11   -1    0    0    0    0 -0.00000000000E+00 -0.00000000000E+00 -0.45593999997E+02  0.45594000000E+02  0.51100000000E-03 0.  1.
    9900012    2    1    2    0    0 -0.13027849757E+02 -0.17262126930E+02 -0.23431018465E+02  0.59301976075E+02  0.50000058446E+02 0.  0.
         12    1    1    2    0    0  0.13027849757E+02  0.17262126930E+02  0.23431018465E+02  0.31886023925E+02  0.00000000000E+00 0. -1.
         11    1    3    3    0    0 -0.86108179584E+01 -0.64737821723E+01 -0.11747007033E+02  0.15938890050E+02  0.51100000000E-03 0. -1.
        -11    1    3    3    0    0 -0.57272557111E+01 -0.19173563709E+02 -0.22175017595E+02  0.29869020889E+02  0.51100000000E-03 0.  1.
         12    1    3    3    0    0  0.13102239125E+01  0.83852189511E+01  0.10491006163E+02  0.13494065135E+02  0.00000000000E+00 0. -1.
</event>
<event>
 7    1  0.6593656E-013  0.5930195E+02  0.7816164E-02  0.1266605E+00
        -11   -1    0    0    0    0  0.00000000000E+00  0.00000000000E+00  0.45593999997E+02  0.45594000000E+02  0.51100000000E-03 0.  1.
         11   -1    0    0    0    0 -0.00000000000E+00 -0.00000000000E+00 -0.45593999997E+02  0.45594000000E+02  0.51100000000E-03 0. -1.
    9900012    2    1    2    0    0 -0.28032433751E+02 -0.10421196287E+02  0.11058991441E+02  0.59301953432E+02  0.50000017152E+02 0.  0.
         12    1    1    2    0    0  0.28032433751E+02  0.10421196287E+02 -0.11058991441E+02  0.31886046568E+02  0.00000000000E+00 0. -1.
         11    1    3    3    0    0 -0.23205897860E+02 -0.47216267179E+01  0.63105543658E+01  0.24507765116E+02  0.51100000000E-03 0. -1.
        -11    1    3    3    0    0 -0.48352439677E+00 -0.14817428950E+01  0.19128391525E+02  0.19191787838E+02  0.51100000000E-03 0.  1.
         12    1    3    3    0    0 -0.43430114940E+01 -0.42178266741E+01 -0.14379954450E+02  0.15602400478E+02  0.00000000000E+00 0. -1.
</event>
<event>
 7    1  0.6593656E-013  0.5930194E+02  0.7816164E-02  0.1266605E+00
        -11   -1    0    0    0    0  0.00000000000E+00  0.00000000000E+00  0.45593999997E+02  0.45594000000E+02  0.51100000000E-03 0.  1.
         11   -1    0    0    0    0 -0.00000000000E+00 -0.00000000000E+00 -0.45593999997E+02  0.45594000000E+02  0.51100000000E-03 0. -1.
    9900012    2    1    2    0    0 -0.15011540323E+02 -0.27424927540E+02 -0.62648054743E+01  0.59301940647E+02  0.49999993834E+02 0.  0.
         12    1    1    2    0    0  0.15011540323E+02  0.27424927540E+02  0.62648054743E+01  0.31886059353E+02  0.00000000000E+00 0. -1.
         11    1    3    3    0    0 -0.12793263627E+02 -0.10828186857E+02 -0.11802315208E+02  0.20499069964E+02  0.51100000000E-03 0. -1.
        -11    1    3    3    0    0 -0.10540562881E+02 -0.10041857022E+02 -0.11627679452E+02  0.18631835336E+02  0.51100000000E-03 0.  1.
         12    1    3    3    0    0  0.83222861848E+01 -0.65548836620E+01  0.17165189186E+02  0.20171035347E+02  0.00000000000E+00 0. -1.
</event>
<event>
 7    1  0.6593656E-013  0.5930196E+02  0.7816164E-02  0.1266605E+00
        -11   -1    0    0    0    0  0.00000000000E+00  0.00000000000E+00  0.45593999997E+02  0.45594000000E+02  0.51100000000E-03 0.  1.
         11   -1    0    0    0    0 -0.00000000000E+00 -0.00000000000E+00 -0.45593999997E+02  0.45594000000E+02  0.51100000000E-03 0. -1.
    9900012    2    1    2    0    0 -0.30697238256E+02  0.12847787269E+01 -0.85292658003E+01  0.59301961237E+02  0.50000031385E+02 0.  0.
         12    1    1    2    0    0  0.30697238256E+02 -0.12847787269E+01  0.85292658003E+01  0.31886038763E+02  0.00000000000E+00 0. -1.
         11    1    3    3    0    0 -0.73449050091E+01  0.53513877453E+01 -0.83967497314E+01  0.12372970003E+02  0.51100000000E-03 0. -1.
        -11    1    3    3    0    0 -0.33871691076E+02 -0.11986404326E+01 -0.61937588930E+01  0.34454184720E+02  0.51100000000E-03 0.  1.
         12    1    3    3    0    0  0.10519357830E+02 -0.28679685858E+01  0.60612428241E+01  0.12474806513E+02  0.00000000000E+00 0. -1.
</event>
<event>
 7    1  0.6593656E-013  0.5930197E+02  0.7816164E-02  0.1266605E+00
        -11   -1    0    0    0    0  0.00000000000E+00  0.00000000000E+00  0.45593999997E+02  0.45594000000E+02  0.51100000000E-03 0. -1.
         11   -1    0    0    0    0 -0.00000000000E+00 -0.00000000000E+00 -0.45593999997E+02  0.45594000000E+02  0.51100000000E-03 0.  1.
    9900012    2    1    2    0    0  0.21939704359E+02 -0.63111903433E+01 -0.22260664155E+02  0.59301969837E+02  0.50000047071E+02 0.  0.
         12    1    1    2    0    0 -0.21939704359E+02  0.63111903433E+01  0.22260664155E+02  0.31886030163E+02  0.00000000000E+00 0. -1.
         11    1    3    3    0    0  0.27516855314E+02 -0.10009525504E+02  0.52185291902E+00  0.29285495692E+02  0.51100000000E-03 0. -1.
        -11    1    3    3    0    0 -0.29538344317E+01 -0.68652297188E+01 -0.44556531651E+01  0.87011127065E+01  0.51100000000E-03 0.  1.
        -12    1    3    3    0    0 -0.26233165235E+01  0.10563564879E+02 -0.18326863909E+02  0.21315361439E+02  0.00000000000E+00 0.  1.
</event>
<event>
 7    1  0.6593656E-013  0.5930196E+02  0.7816164E-02  0.1266605E+00
        -11   -1    0    0    0    0  0.00000000000E+00  0.00000000000E+00  0.45593999997E+02  0.45594000000E+02  0.51100000000E-03 0. -1.
         11   -1    0    0    0    0 -0.00000000000E+00 -0.00000000000E+00 -0.45593999997E+02  0.45594000000E+02  0.51100000000E-03 0.  1.
    9900012    2    1    2    0    0 -0.32839994993E+01 -0.38117957329E+01 -0.31486587215E+02  0.59301958950E+02  0.50000027215E+02 0.  0.
         12    1    1    2    0    0  0.32839994993E+01  0.38117957329E+01  0.31486587215E+02  0.31886041050E+02  0.00000000000E+00 0. -1.
         11    1    3    3    0    0  0.96510787893E+01 -0.75111803132E+01 -0.45018540927E+01  0.13031801181E+02  0.51100000000E-03 0. -1.
        -11    1    3    3    0    0 -0.63791402976E+01 -0.15647263660E+02 -0.14947337272E+02  0.22559990753E+02  0.51100000000E-03 0.  1.
        -12    1    3    3    0    0 -0.65559379910E+01  0.19346648240E+02 -0.12037395850E+02  0.23710167016E+02  0.00000000000E+00 0.  1.
</event>
<event>
 7    1  0.6593656E-013  0.5930196E+02  0.7816164E-02  0.1266605E+00
        -11   -1    0    0    0    0  0.00000000000E+00  0.00000000000E+00  0.45593999997E+02  0.45594000000E+02  0.51100000000E-03 0. -1.
         11   -1    0    0    0    0 -0.00000000000E+00 -0.00000000000E+00 -0.45593999997E+02  0.45594000000E+02  0.51100000000E-03 0.  1.
    9900012    2    1    2    0    0 -0.11991853598E+02 -0.60958196740E+01 -0.28909441589E+02  0.59301962567E+02  0.50000033810E+02 0.  0.
         12    1    1    2    0    0  0.11991853598E+02  0.60958196740E+01  0.28909441589E+02  0.31886037433E+02  0.00000000000E+00 0. -1.
         11    1    3    3    0    0  0.58626429750E+01  0.64120429505E+01 -0.23858594206E+02  0.25391285812E+02  0.51100000000E-03 0. -1.
        -11    1    3    3    0    0  0.38096112049E+01 -0.10492618404E+02 -0.48013997408E+01  0.12151609697E+02  0.51100000000E-03 0.  1.
         12    1    3    3    0    0 -0.21664107778E+02 -0.20152442204E+01 -0.24944764252E+00  0.21759067057E+02  0.00000000000E+00 0. -1.
</event>
<event>
 7    1  0.6593656E-013  0.5930193E+02  0.7816164E-02  0.1266605E+00
        -11   -1    0    0    0    0  0.00000000000E+00  0.00000000000E+00  0.45593999997E+02  0.45594000000E+02  0.51100000000E-03 0.  1.
         11   -1    0    0    0    0 -0.00000000000E+00 -0.00000000000E+00 -0.45593999997E+02  0.45594000000E+02  0.51100000000E-03 0. -1.
    9900012    2    1    2    0    0  0.29396143922E+02 -0.11318278218E+02 -0.49481778324E+01  0.59301934655E+02  0.49999982907E+02 0.  0.
         12    1    1    2    0    0 -0.29396143922E+02  0.11318278218E+02  0.49481778324E+01  0.31886065345E+02  0.00000000000E+00 0. -1.
         11    1    3    3    0    0  0.19006066059E+02  0.13495194064E+02 -0.44334384962E+01  0.23727751411E+02  0.51100000000E-03 0. -1.
        -11    1    3    3    0    0  0.65613306274E+01  0.26511892034E+01  0.28731833174E+01  0.76377383060E+01  0.51100000000E-03 0.  1.
         12    1    3    3    0    0  0.38287472353E+01 -0.27464661485E+02 -0.33879226536E+01  0.27936444938E+02  0.00000000000E+00 0. -1.
</event>
<event>
 7    1  0.6593656E-013  0.5930189E+02  0.7816164E-02  0.1266605E+00
        -11   -1    0    0    0    0  0.00000000000E+00  0.00000000000E+00  0.45593999997E+02  0.45594000000E+02  0.51100000000E-03 0.  1.
         11   -1    0    0    0    0 -0.00000000000E+00 -0.00000000000E+00 -0.45593999997E+02  0.45594000000E+02  0.51100000000E-03 0. -1.
    9900012    2    1    2    0    0 -0.11095270764E+02 -0.29307545995E+02  0.58895649883E+01  0.59301886073E+02  0.49999894305E+02 0.  0.
         12    1    1    2    0    0  0.11095270764E+02  0.29307545995E+02 -0.58895649883E+01  0.31886113927E+02  0.00000000000E+00 0. -1.
         11    1    3    3    0    0  0.64432732733E+01 -0.15516144370E+01 -0.74416118023E+01  0.99649819023E+01  0.51100000000E-03 0. -1.
        -11    1    3    3    0    0 -0.13505189820E+02  0.78159829533E-01 -0.64358143076E+01  0.14960480176E+02  0.51100000000E-03 0.  1.
        -12    1    3    3    0    0 -0.40333542180E+01 -0.27834091388E+02  0.19766991098E+02  0.34376423995E+02  0.00000000000E+00 0.  1.
</event>
<event>
 7    1  0.6593656E-013  0.5930194E+02  0.7816164E-02  0.1266605E+00
        -11   -1    0    0    0    0  0.00000000000E+00  0.00000000000E+00  0.45593999997E+02  0.45594000000E+02  0.51100000000E-03 0. -1.
         11   -1    0    0    0    0 -0.00000000000E+00 -0.00000000000E+00 -0.45593999997E+02  0.45594000000E+02  0.51100000000E-03 0.  1.
    9900012    2    1    2    0    0 -0.12619318818E+02  0.13848106037E+02 -0.25801232588E+02  0.59301939546E+02  0.49999991826E+02 0.  0.
         12    1    1    2    0    0  0.12619318818E+02 -0.13848106037E+02  0.25801232588E+02  0.31886060454E+02  0.00000000000E+00 0. -1.
         11    1    3    3    0    0 -0.10122155569E+02  0.86567604853E+01  0.88690223870E+01  0.16001784083E+02  0.51100000000E-03 0. -1.
        -11    1    3    3    0    0 -0.13709083996E+02  0.47604658879E+01 -0.22228762088E+02  0.26546541841E+02  0.51100000000E-03 0.  1.
         12    1    3    3    0    0  0.11211920747E+02  0.43087966359E+00 -0.12441492888E+02  0.16753613622E+02  0.00000000000E+00 0. -1.
</event>
<event>
 7    1  0.6593656E-013  0.5930194E+02  0.7816164E-02  0.1266605E+00
        -11   -1    0    0    0    0  0.00000000000E+00  0.00000000000E+00  0.45593999997E+02  0.45594000000E+02  0.51100000000E-03 0.  1.
         11   -1    0    0    0    0 -0.00000000000E+00 -0.00000000000E+00 -0.45593999997E+02  0.45594000000E+02  0.51100000000E-03 0. -1.
    9900012    2    1    2    0    0 -0.21132166588E+02  0.66840300981E+01  0.22923263710E+02  0.59301941257E+02  0.49999994947E+02 0.  0.
         12    1    1    2    0    0  0.21132166588E+02 -0.66840300981E+01 -0.22923263710E+02  0.31886058743E+02  0.00000000000E+00 0. -1.
         11    1    3    3    0    0  0.14009738921E+01  0.47560352499E+01 -0.22285458897E+01  0.54359006787E+01  0.51100000000E-03 0. -1.
        -11    1    3    3    0    0 -0.12621834512E+02  0.19377195544E+02  0.24639526198E+02  0.33791902360E+02  0.51100000000E-03 0.  1.
        -12    1    3    3    0    0 -0.99113059681E+01 -0.17449200696E+02  0.51228340181E+00  0.20074138218E+02  0.00000000000E+00 0.  1.
</event>
<event>
 7    1  0.6593656E-013  0.5930197E+02  0.7816164E-02  0.1266605E+00
        -11   -1    0    0    0    0  0.00000000000E+00  0.00000000000E+00  0.45593999997E+02  0.45594000000E+02  0.51100000000E-03 0.  1.
         11   -1    0    0    0    0 -0.00000000000E+00 -0.00000000000E+00 -0.45593999997E+02  0.45594000000E+02  0.51100000000E-03 0. -1.
    9900012    2    1    2    0    0 -0.76208383846E+01  0.27737302765E+02  0.13758054035E+02  0.59301965546E+02  0.50000039244E+02 0.  0.
         12    1    1    2    0    0  0.76208383846E+01 -0.27737302765E+02 -0.13758054035E+02  0.31886034454E+02  0.00000000000E+00 0. -1.
         11    1    3    3    0    0  0.55745871316E+01 -0.58032388254E+01  0.10425616389E+02  0.13169930900E+02  0.51100000000E-03 0. -1.
        -11    1    3    3    0    0  0.38473624069E+01 -0.17212908633E+01  0.54744910560E+01  0.69090587137E+01  0.51100000000E-03 0.  1.
         12    1    3    3    0    0 -0.17042787923E+02  0.35261832454E+02 -0.21420534102E+01  0.39222975933E+02  0.00000000000E+00 0. -1.
</event>
<event>
 7    1  0.6593656E-013  0.5930192E+02  0.7816164E-02  0.1266605E+00
        -11   -1    0    0    0    0  0.00000000000E+00  0.00000000000E+00  0.45593999997E+02  0.45594000000E+02  0.51100000000E-03 0. -1.
         11   -1    0    0    0    0 -0.00000000000E+00 -0.00000000000E+00 -0.45593999997E+02  0.45594000000E+02  0.51100000000E-03 0.  1.
    9900012    2    1    2    0    0  0.15445772738E+01  0.14405527723E+02 -0.28404524349E+02  0.59301922295E+02  0.49999960364E+02 0.  0.
         12    1    1    2    0    0 -0.15445772738E+01 -0.14405527723E+02  0.28404524349E+02  0.31886077705E+02  0.00000000000E+00 0. -1.
         11    1    3    3    0    0  0.65379278605E+00 -0.85696162747E+01  0.78815145726E+01  0.11661219504E+02  0.51100000000E-03 0. -1.
        -11    1    3    3    0    0  0.57775613647E+01 -0.13971270502E+01 -0.83063877584E+01  0.10214120480E+02  0.51100000000E-03 0.  1.
        -12    1    3    3    0    0 -0.48867768770E+01  0.24372271048E+02 -0.27979651163E+02  0.37426582311E+02  0.00000000000E+00 0.  1.
</event>
<event>
 7    1  0.6593656E-013  0.5930193E+02  0.7816164E-02  0.1266605E+00
        -11   -1    0    0    0    0  0.00000000000E+00  0.00000000000E+00  0.45593999997E+02  0.45594000000E+02  0.51100000000E-03 0. -1.
         11   -1    0    0    0    0 -0.00000000000E+00 -0.00000000000E+00 -0.45593999997E+02  0.45594000000E+02  0.51100000000E-03 0.  1.
    9900012    2    1    2    0    0  0.25427769960E+02 -0.17370112793E+02 -0.82721764435E+01  0.59301933972E+02  0.49999981661E+02 0.  0.
         12    1    1    2    0    0 -0.25427769960E+02  0.17370112793E+02  0.82721764435E+01  0.31886066028E+02  0.00000000000E+00 0. -1.
         11    1    3    3    0    0  0.43831423985E+00  0.24955993159E+01  0.78053471045E+01  0.82063133623E+01  0.51100000000E-03 0. -1.
        -11    1    3    3    0    0  0.32976046769E+02 -0.76638570928E+01 -0.10042660168E+02  0.35313020114E+02  0.51100000000E-03 0.  1.
         12    1    3    3    0    0 -0.79865910484E+01 -0.12201855016E+02 -0.60348633797E+01  0.15782600496E+02  0.00000000000E+00 0. -1.
</event>
<event>
 7    1  0.6593656E-013  0.5930193E+02  0.7816164E-02  0.1266605E+00
        -11   -1    0    0    0    0  0.00000000000E+00  0.00000000000E+00  0.45593999997E+02  0.45594000000E+02  0.51100000000E-03 0. -1.
         11   -1    0    0    0    0 -0.00000000000E+00 -0.00000000000E+00 -0.45593999997E+02  0.45594000000E+02  0.51100000000E-03 0.  1.
    9900012    2    1    2    0    0  0.16171860447E+02 -0.24218304881E+02 -0.12987139335E+02  0.59301934866E+02  0.49999983291E+02 0.  0.
         12    1    1    2    0    0 -0.16171860447E+02  0.24218304881E+02  0.12987139335E+02  0.31886065134E+02  0.00000000000E+00 0. -1.
         11    1    3    3    0    0 -0.39267399906E+01  0.97051521400E+00 -0.33212065040E+00  0.40585084849E+01  0.51100000000E-03 0. -1.
        -11    1    3    3    0    0 -0.51056504270E+01  0.72531782895E+01 -0.10996389787E+02  0.14127874936E+02  0.51100000000E-03 0.  1.
        -12    1    3    3    0    0  0.25204250865E+02 -0.32441998384E+02 -0.16586288975E+01  0.41115551445E+02  0.00000000000E+00 0.  1.
</event>
<event>
 7    1  0.6593656E-013  0.5930192E+02  0.7816164E-02  0.1266605E+00
        -11   -1    0    0    0    0  0.00000000000E+00  0.00000000000E+00  0.45593999997E+02  0.45594000000E+02  0.51100000000E-03 0.  1.
         11   -1    0    0    0    0 -0.00000000000E+00 -0.00000000000E+00 -0.45593999997E+02  0.45594000000E+02  0.51100000000E-03 0. -1.
    9900012    2    1    2    0    0 -0.18263979590E+02  0.17125107356E+02  0.19745371842E+02  0.59301922135E+02  0.49999960072E+02 0.  0.
         12    1    1    2    0    0  0.18263979590E+02 -0.17125107356E+02 -0.19745371842E+02  0.31886077865E+02  0.00000000000E+00 0. -1.
         11    1    3    3    0    0 -0.23826306191E+01  0.91995359209E+01 -0.60558779916E+01  0.11268631165E+02  0.51100000000E-03 0. -1.
        -11    1    3    3    0    0  0.76186681620E+01  0.14140217233E+02  0.12274816169E+02  0.20215364459E+02  0.51100000000E-03 0.  1.
        -12    1    3    3    0    0 -0.23500017133E+02 -0.62146457978E+01  0.13526433665E+02  0.27817926511E+02  0.00000000000E+00 0.  1.
</event>
<event>
 7    1  0.6593656E-013  0.5930196E+02  0.7816164E-02  0.1266605E+00
        -11   -1    0    0    0    0  0.00000000000E+00  0.00000000000E+00  0.45593999997E+02  0.45594000000E+02  0.51100000000E-03 0. -1.
         11   -1    0    0    0    0 -0.00000000000E+00 -0.00000000000E+00 -0.45593999997E+02  0.45594000000E+02  0.51100000000E-03 0.  1.
    9900012    2    1    2    0    0 -0.31404028569E+01  0.84164187202E+01 -0.30594463096E+02  0.59301962204E+02  0.50000033150E+02 0.  0.
         12    1    1    2    0    0  0.31404028569E+01 -0.84164187202E+01  0.30594463096E+02  0.31886037796E+02  0.00000000000E+00 0. -1.
         11    1    3    3    0    0  0.15543986711E+02  0.11157673367E+02 -0.10248374276E+01  0.19161406259E+02  0.51100000000E-03 0. -1.
        -11    1    3    3    0    0  0.30314511851E+01 -0.23193712272E+01 -0.49514186975E+00  0.38489407516E+01  0.51100000000E-03 0.  1.
        -12    1    3    3    0    0 -0.21715840753E+02 -0.42188341933E+00 -0.29074483798E+02  0.36291615194E+02  0.00000000000E+00 0.  1.
</event>
<event>
 7    1  0.6593656E-013  0.5930190E+02  0.7816164E-02  0.1266605E+00
        -11   -1    0    0    0    0  0.00000000000E+00  0.00000000000E+00  0.45593999997E+02  0.45594000000E+02  0.51100000000E-03 0. -1.
         11   -1    0    0    0    0 -0.00000000000E+00 -0.00000000000E+00 -0.45593999997E+02  0.45594000000E+02  0.51100000000E-03 0.  1.
    9900012    2    1    2    0    0  0.23665443528E+02 -0.19925476642E+02  0.77230597408E+01  0.59301898192E+02  0.49999916406E+02 0.  0.
         12    1    1    2    0    0 -0.23665443528E+02  0.19925476642E+02 -0.77230597408E+01  0.31886101808E+02  0.00000000000E+00 0. -1.
         11    1    3    3    0    0  0.11513441486E+02 -0.17297475256E+02 -0.25174526452E+01  0.20930827818E+02  0.51100000000E-03 0. -1.
        -11    1    3    3    0    0  0.21147451485E+02 -0.51017558313E+01 -0.32224769423E+01  0.21991520520E+02  0.51100000000E-03 0.  1.
        -12    1    3    3    0    0 -0.89954494434E+01  0.24737544451E+01  0.13462989328E+02  0.16379549853E+02  0.00000000000E+00 0.  1.
</event>
<event>
 7    1  0.6593656E-013  0.5930194E+02  0.7816164E-02  0.1266605E+00
        -11   -1    0    0    0    0  0.00000000000E+00  0.00000000000E+00  0.45593999997E+02  0.45594000000E+02  0.51100000000E-03 0.  1.
         11   -1    0    0    0    0 -0.00000000000E+00 -0.00000000000E+00 -0.45593999997E+02  0.45594000000E+02  0.51100000000E-03 0. -1.
    9900012    2    1    2    0    0  0.84560181592E+01 -0.28967926262E+02  0.10299307376E+02  0.59301941488E+02  0.49999995368E+02 0.  0.
         12    1    1    2    0    0 -0.84560181592E+01  0.28967926262E+02 -0.10299307376E+02  0.31886058512E+02  0.00000000000E+00 0. -1.
         11    1    3    3    0    0  0.13264869148E+02  0.77885582715E+00 -0.11204363378E+02  0.17381056610E+02  0.51100000000E-03 0. -1.
        -11    1    3    3    0    0  0.70619749685E+01 -0.55908194061E+01  0.64869533408E+01  0.11099969189E+02  0.51100000000E-03 0.  1.
         12    1    3    3    0    0 -0.11870825957E+02 -0.24155962683E+02  0.15016717413E+02  0.30820915689E+02  0.00000000000E+00 0. -1.
</event>
<event>
 7    1  0.6593656E-013  0.5930196E+02  0.7816164E-02  0.1266605E+00
        -11   -1    0    0    0    0  0.00000000000E+00  0.00000000000E+00  0.45593999997E+02  0.45594000000E+02  0.51100000000E-03 0. -1.
         11   -1    0    0    0    0 -0.00000000000E+00 -0.00000000000E+00 -0.45593999997E+02  0.45594000000E+02  0.51100000000E-03 0.  1.
    9900012    2    1    2    0    0  0.18181193442E+01  0.19276212137E+02 -0.25334599533E+02  0.59301955312E+02  0.50000020580E+02 0.  0.
         12    1    1    2    0    0 -0.18181193442E+01 -0.19276212137E+02  0.25334599533E+02  0.31886044688E+02  0.00000000000E+00 0. -1.
         11    1    3    3    0    0 -0.40841520821E+01 -0.71073293142E+01  0.38342973555E+00  0.82061834511E+01  0.51100000000E-03 0. -1.
        -11    1    3    3    0    0  0.56479708814E+01  0.12744211696E+02  0.70358142267E+01  0.15614646615E+02  0.51100000000E-03 0.  1.
        -12    1    3    3    0    0  0.25430054487E+00  0.13639329756E+02 -0.32753843496E+02  0.35481125246E+02  0.00000000000E+00 0.  1.
</event>
<event>
 7    1  0.6593656E-013  0.5930178E+02  0.7816164E-02  0.1266605E+00
        -11   -1    0    0    0    0  0.00000000000E+00  0.00000000000E+00  0.45593999997E+02  0.45594000000E+02  0.51100000000E-03 0.  1.
         11   -1    0    0    0    0 -0.00000000000E+00 -0.00000000000E+00 -0.45593999997E+02  0.45594000000E+02  0.51100000000E-03 0. -1.
    9900012    2    1    2    0    0  0.86062060874E+01 -0.15963415189E+02 -0.26226581397E+02  0.59301780727E+02  0.49999702178E+02 0.  0.
         12    1    1    2    0    0 -0.86062060874E+01  0.15963415189E+02  0.26226581397E+02  0.31886219273E+02  0.00000000000E+00 0. -1.
         11    1    3    3    0    0 -0.19667109404E+01 -0.11218816267E+02 -0.31838297528E+02  0.33814301414E+02  0.51100000000E-03 0. -1.
        -11    1    3    3    0    0  0.12456492857E+02 -0.86445777009E+01 -0.33555478456E+01  0.15529090106E+02  0.51100000000E-03 0.  1.
        -12    1    3    3    0    0 -0.18835758288E+01  0.38999787790E+01  0.89672639765E+01  0.99583892073E+01  0.00000000000E+00 0.  1.
</event>
<event>
 7    1  0.6593656E-013  0.5930193E+02  0.7816164E-02  0.1266605E+00
        -11   -1    0    0    0    0  0.00000000000E+00  0.00000000000E+00  0.45593999997E+02  0.45594000000E+02  0.51100000000E-03 0.  1.
         11   -1    0    0    0    0 -0.00000000000E+00 -0.00000000000E+00 -0.45593999997E+02  0.45594000000E+02  0.51100000000E-03 0. -1.
    9900012    2    1    2    0    0  0.30552692548E+02 -0.75555177696E+01 -0.51155366661E+01  0.59301928024E+02  0.49999970813E+02 0.  0.
         12    1    1    2    0    0 -0.30552692548E+02  0.75555177696E+01  0.51155366661E+01  0.31886071976E+02  0.00000000000E+00 0. -1.
         11    1    3    3    0    0  0.10401750769E+02 -0.52089425539E+01 -0.13661808942E+02  0.17943648610E+02  0.51100000000E-03 0. -1.
        -11    1    3    3    0    0  0.77292889217E+01 -0.12724870830E+02 -0.90708729837E+01  0.17434017949E+02  0.51100000000E-03 0.  1.
        -12    1    3    3    0    0  0.12421652857E+02  0.10378295615E+02  0.17617145260E+02  0.23924261466E+02  0.00000000000E+00 0.  1.
</event>
<event>
 7    1  0.6593656E-013  0.5930195E+02  0.7816164E-02  0.1266605E+00
        -11   -1    0    0    0    0  0.00000000000E+00  0.00000000000E+00  0.45593999997E+02  0.45594000000E+02  0.51100000000E-03 0.  1.
         11   -1    0    0    0    0 -0.00000000000E+00 -0.00000000000E+00 -0.45593999997E+02  0.45594000000E+02  0.51100000000E-03 0. -1.
    9900012    2    1    2    0    0  0.90934267134E+00  0.31806276374E+02 -0.20625588510E+01  0.59301948663E+02  0.50000008454E+02 0.  0.
         12    1    1    2    0    0 -0.90934267134E+00 -0.31806276374E+02  0.20625588510E+01  0.31886051337E+02  0.00000000000E+00 0. -1.
         11    1    3    3    0    0 -0.14202015283E+02  0.72974940426E+01  0.37731471468E+01  0.16406928325E+02  0.51100000000E-03 0. -1.
        -11    1    3    3    0    0 -0.70439626252E+01  0.12501733712E+02 -0.98119801204E+01  0.17383489564E+02  0.51100000000E-03 0.  1.
        -12    1    3    3    0    0  0.22155320580E+02  0.12007048619E+02  0.39762741226E+01  0.25511530774E+02  0.00000000000E+00 0.  1.
</event>
<event>
 7    1  0.6593656E-013  0.5930194E+02  0.7816164E-02  0.1266605E+00
        -11   -1    0    0    0    0  0.00000000000E+00  0.00000000000E+00  0.45593999997E+02  0.45594000000E+02  0.51100000000E-03 0.  1.
         11   -1    0    0    0    0 -0.00000000000E+00 -0.00000000000E+00 -0.45593999997E+02  0.45594000000E+02  0.51100000000E-03 0. -1.
    9900012    2    1    2    0    0 -0.17472177040E+02  0.25305701434E+02 -0.84300118447E+01  0.59301943560E+02  0.49999999147E+02 0.  0.
         12    1    1    2    0    0  0.17472177040E+02 -0.25305701434E+02  0.84300118447E+01  0.31886056440E+02  0.00000000000E+00 0. -1.
         11    1    3    3    0    0 -0.36656296162E+01  0.60332707517E+01 -0.15299845275E+02  0.16849998877E+02  0.51100000000E-03 0. -1.
        -11    1    3    3    0    0  0.85794513673E+01 -0.21590824049E+01 -0.38650335807E+01  0.96543828097E+01  0.51100000000E-03 0.  1.
        -12    1    3    3    0    0 -0.22385998791E+02  0.21431513088E+02  0.10734867011E+02  0.32797561873E+02  0.00000000000E+00 0.  1.
</event>
<event>
 7    1  0.6593656E-013  0.5930182E+02  0.7816164E-02  0.1266605E+00
        -11   -1    0    0    0    0  0.00000000000E+00  0.00000000000E+00  0.45593999997E+02  0.45594000000E+02  0.51100000000E-03 0.  1.
         11   -1    0    0    0    0 -0.00000000000E+00 -0.00000000000E+00 -0.45593999997E+02  0.45594000000E+02  0.51100000000E-03 0. -1.
    9900012    2    1    2    0    0  0.28572940215E+02  0.10232644592E+02 -0.97779607143E+01  0.59301820492E+02  0.49999774701E+02 0.  0.
         12    1    1    2    0    0 -0.28572940215E+02 -0.10232644592E+02  0.97779607143E+01  0.31886179508E+02  0.00000000000E+00 0. -1.
         11    1    3    3    0    0  0.17196860868E+02  0.28089110080E+02 -0.85171187804E+01  0.34018692529E+02  0.51100000000E-03 0. -1.
        -11    1    3    3    0    0  0.17022728579E+01 -0.74306876818E+01 -0.66081377163E+01  0.10088624121E+02  0.51100000000E-03 0.  1.
        -12    1    3    3    0    0  0.96738064888E+01 -0.10425777806E+02  0.53472957825E+01  0.15194503843E+02  0.00000000000E+00 0.  1.
</event>
<event>
 7    1  0.6593656E-013  0.5930191E+02  0.7816164E-02  0.1266605E+00
        -11   -1    0    0    0    0  0.00000000000E+00  0.00000000000E+00  0.45593999997E+02  0.45594000000E+02  0.51100000000E-03 0. -1.
         11   -1    0    0    0    0 -0.00000000000E+00 -0.00000000000E+00 -0.45593999997E+02  0.45594000000E+02  0.51100000000E-03 0.  1.
    9900012    2    1    2    0    0 -0.26228076060E+02 -0.18099837097E+02  0.10985482453E+01  0.59301907656E+02  0.49999933666E+02 0.  0.
         12    1    1    2    0    0  0.26228076060E+02  0.18099837097E+02 -0.10985482453E+01  0.31886092344E+02  0.00000000000E+00 0. -1.
         11    1    3    3    0    0  0.11343492634E+02 -0.27507234093E+01  0.30046210119E+01  0.12052761181E+02  0.51100000000E-03 0. -1.
        -11    1    3    3    0    0  0.14719457553E+01 -0.16332012715E+01  0.48439980864E+01  0.53196135594E+01  0.51100000000E-03 0.  1.
        -12    1    3    3    0    0 -0.39043514449E+02 -0.13715912416E+02 -0.67500708530E+01  0.41929532915E+02  0.00000000000E+00 0.  1.
</event>
<event>
 7    1  0.6593656E-013  0.5930195E+02  0.7816164E-02  0.1266605E+00
        -11   -1    0    0    0    0  0.00000000000E+00  0.00000000000E+00  0.45593999997E+02  0.45594000000E+02  0.51100000000E-03 0.  1.
         11   -1    0    0    0    0 -0.00000000000E+00 -0.00000000000E+00 -0.45593999997E+02  0.45594000000E+02  0.51100000000E-03 0. -1.
    9900012    2    1    2    0    0  0.13904505450E+02  0.18648435125E+02  0.21808737011E+02  0.59301946396E+02  0.50000004319E+02 0.  0.
         12    1    1    2    0    0 -0.13904505450E+02 -0.18648435125E+02 -0.21808737011E+02  0.31886053604E+02  0.00000000000E+00 0. -1.
         11    1    3    3    0    0  0.16901486641E+02  0.42596152655E+01 -0.51820748757E+01  0.18184016970E+02  0.51100000000E-03 0. -1.
        -11    1    3    3    0    0  0.86155156329E+01 -0.38117445278E+01  0.86418992481E+01  0.12784323558E+02  0.51100000000E-03 0.  1.
        -12    1    3    3    0    0 -0.11612496823E+02  0.18200564387E+02  0.18348912638E+02  0.28333605868E+02  0.00000000000E+00 0.  1.
</event>
<event>
 7    1  0.6593656E-013  0.5930195E+02  0.7816164E-02  0.1266605E+00
        -11   -1    0    0    0    0  0.00000000000E+00  0.00000000000E+00  0.45593999997E+02  0.45594000000E+02  0.51100000000E-03 0.  1.
         11   -1    0    0    0    0 -0.00000000000E+00 -0.00000000000E+00 -0.45593999997E+02  0.45594000000E+02  0.51100000000E-03 0. -1.
    9900012    2    1    2    0    0  0.20369503371E+02  0.41611234175E+01  0.24176194217E+02  0.59301953169E+02  0.50000016671E+02 0.  0.
         12    1    1    2    0    0 -0.20369503371E+02 -0.41611234175E+01 -0.24176194217E+02  0.31886046831E+02  0.00000000000E+00 0. -1.
         11    1    3    3    0    0  0.83915860174E+00  0.44103876885E+01 -0.77560987368E+01  0.89617394851E+01  0.51100000000E-03 0. -1.
        -11    1    3    3    0    0 -0.63847998044E+01  0.22575351160E+01 -0.24592655795E+01  0.72048678540E+01  0.51100000000E-03 0.  1.
        -12    1    3    3    0    0  0.25915144574E+02 -0.25067993871E+01  0.34391558534E+02  0.43135345830E+02  0.00000000000E+00 0.  1.
</event>
<event>
 7    1  0.6593656E-013  0.5930196E+02  0.7816164E-02  0.1266605E+00
        -11   -1    0    0    0    0  0.00000000000E+00  0.00000000000E+00  0.45593999997E+02  0.45594000000E+02  0.51100000000E-03 0. -1.
         11   -1    0    0    0    0 -0.00000000000E+00 -0.00000000000E+00 -0.45593999997E+02  0.45594000000E+02  0.51100000000E-03 0.  1.
    9900012    2    1    2    0    0 -0.18471420893E+02 -0.42720366675E+01 -0.25637390122E+02  0.59301961372E+02  0.50000031632E+02 0.  0.
         12    1    1    2    0    0  0.18471420893E+02  0.42720366675E+01  0.25637390122E+02  0.31886038628E+02  0.00000000000E+00 0. -1.
         11    1    3    3    0    0  0.52014310438E+01 -0.17732578999E+00  0.70351962853E+01  0.87510180193E+01  0.51100000000E-03 0. -1.
        -11    1    3    3    0    0 -0.23293765104E+02  0.35320621172E+01 -0.82505321917E+01  0.24962897212E+02  0.51100000000E-03 0.  1.
         12    1    3    3    0    0 -0.37908683271E+00 -0.76267729947E+01 -0.24422054216E+02  0.25588046140E+02  0.00000000000E+00 0. -1.
</event>
<event>
 7    1  0.6593656E-013  0.5930195E+02  0.7816164E-02  0.1266605E+00
        -11   -1    0    0    0    0  0.00000000000E+00  0.00000000000E+00  0.45593999997E+02  0.45594000000E+02  0.51100000000E-03 0.  1.
         11   -1    0    0    0    0 -0.00000000000E+00 -0.00000000000E+00 -0.45593999997E+02  0.45594000000E+02  0.51100000000E-03 0. -1.
    9900012    2    1    2    0    0  0.98878888117E+01  0.30706047001E+01  0.30158267934E+02  0.59301951591E+02  0.50000013793E+02 0.  0.
         12    1    1    2    0    0 -0.98878888117E+01 -0.30706047001E+01 -0.30158267934E+02  0.31886048409E+02  0.00000000000E+00 0. -1.
         11    1    3    3    0    0  0.77213571335E+01 -0.14503410025E+02  0.20098732786E+02  0.25960110135E+02  0.51100000000E-03 0.  1.
        -11    1    3    3    0    0 -0.73613794919E+01  0.43158079344E+01 -0.60070803659E+01  0.10435569986E+02  0.51100000000E-03 0. -1.
         12    1    3    3    0    0  0.95279111702E+01  0.13258206791E+02  0.16066615514E+02  0.22906271470E+02  0.00000000000E+00 0. -1.
</event>
<event>
 7    1  0.6593656E-013  0.5930194E+02  0.7816164E-02  0.1266605E+00
        -11   -1    0    0    0    0  0.00000000000E+00  0.00000000000E+00  0.45593999997E+02  0.45594000000E+02  0.51100000000E-03 0. -1.
         11   -1    0    0    0    0 -0.00000000000E+00 -0.00000000000E+00 -0.45593999997E+02  0.45594000000E+02  0.51100000000E-03 0.  1.
    9900012    2    1    2    0    0  0.22223355467E+02 -0.58761636438E+01 -0.22097820990E+02  0.59301944743E+02  0.50000001304E+02 0.  0.
         12    1    1    2    0    0 -0.22223355467E+02  0.58761636438E+01  0.22097820990E+02  0.31886055257E+02  0.00000000000E+00 0. -1.
         11    1    3    3    0    0  0.13284028309E+02 -0.88387360113E+01 -0.18958704672E+02  0.24779450065E+02  0.51100000000E-03 0.  1.
        -11    1    3    3    0    0 -0.82132641139E+01  0.11264675724E+02  0.34461638350E+01  0.14360594417E+02  0.51100000000E-03 0. -1.
         12    1    3    3    0    0  0.17152591272E+02 -0.83021033561E+01 -0.65852801525E+01  0.20161900261E+02  0.00000000000E+00 0. -1.
</event>
<event>
 7    1  0.6593656E-013  0.5930193E+02  0.7816164E-02  0.1266605E+00
        -11   -1    0    0    0    0  0.00000000000E+00  0.00000000000E+00  0.45593999997E+02  0.45594000000E+02  0.51100000000E-03 0.  1.
         11   -1    0    0    0    0 -0.00000000000E+00 -0.00000000000E+00 -0.45593999997E+02  0.45594000000E+02  0.51100000000E-03 0. -1.
    9900012    2    1    2    0    0  0.14385449238E+02  0.20765451451E+02  0.19457035757E+02  0.59301931503E+02  0.49999977158E+02 0.  0.
         12    1    1    2    0    0 -0.14385449238E+02 -0.20765451451E+02 -0.19457035757E+02  0.31886068497E+02  0.00000000000E+00 0. -1.
         11    1    3    3    0    0  0.59896418435E+01  0.13205744926E+02 -0.72912931857E+01  0.16230541120E+02  0.51100000000E-03 0. -1.
        -11    1    3    3    0    0  0.72331890938E+00 -0.92220664333E+01 -0.14588475552E+01  0.93647176143E+01  0.51100000000E-03 0.  1.
        -12    1    3    3    0    0  0.76724884852E+01  0.16781772959E+02  0.28207176497E+02  0.33706672769E+02  0.00000000000E+00 0.  1.
</event>
<event>
 7    1  0.6593656E-013  0.5930194E+02  0.7816164E-02  0.1266605E+00
        -11   -1    0    0    0    0  0.00000000000E+00  0.00000000000E+00  0.45593999997E+02  0.45594000000E+02  0.51100000000E-03 0. -1.
         11   -1    0    0    0    0 -0.00000000000E+00 -0.00000000000E+00 -0.45593999997E+02  0.45594000000E+02  0.51100000000E-03 0.  1.
    9900012    2    1    2    0    0  0.19803960327E+02 -0.11511152997E+02 -0.22181460496E+02  0.59301942268E+02  0.49999996791E+02 0.  0.
         12    1    1    2    0    0 -0.19803960327E+02  0.11511152997E+02  0.22181460496E+02  0.31886057732E+02  0.00000000000E+00 0. -1.
         11    1    3    3    0    0 -0.10888249364E+02  0.67085210655E+01 -0.20318711445E+01  0.12949391094E+02  0.51100000000E-03 0. -1.
        -11    1    3    3    0    0  0.26545385946E+01 -0.85796112477E+01 -0.13090637826E+02  0.15875172543E+02  0.51100000000E-03 0.  1.
         12    1    3    3    0    0  0.28037671096E+02 -0.96400628150E+01 -0.70589515247E+01  0.30477378631E+02  0.00000000000E+00 0. -1.
</event>
<event>
 7    1  0.6593656E-013  0.5930189E+02  0.7816164E-02  0.1266605E+00
        -11   -1    0    0    0    0  0.00000000000E+00  0.00000000000E+00  0.45593999997E+02  0.45594000000E+02  0.51100000000E-03 0.  1.
         11   -1    0    0    0    0 -0.00000000000E+00 -0.00000000000E+00 -0.45593999997E+02  0.45594000000E+02  0.51100000000E-03 0. -1.
    9900012    2    1    2    0    0  0.13773315670E+01  0.12593896673E+02  0.29261251971E+02  0.59301887936E+02  0.49999897703E+02 0.  0.
         12    1    1    2    0    0 -0.13773315670E+01 -0.12593896673E+02 -0.29261251971E+02  0.31886112064E+02  0.00000000000E+00 0. -1.
         11    1    3    3    0    0 -0.50635595553E+01 -0.62025327815E+01  0.92772652979E+00  0.80605040196E+01  0.51100000000E-03 0. -1.
        -11    1    3    3    0    0 -0.11501927046E+02  0.14401282032E+02  0.12704524595E+01  0.18474449915E+02  0.51100000000E-03 0.  1.
        -12    1    3    3    0    0  0.17942818169E+02  0.43951474224E+01  0.27063072981E+02  0.32766934002E+02  0.00000000000E+00 0.  1.
</event>
<event>
 7    1  0.6593656E-013  0.5930195E+02  0.7816164E-02  0.1266605E+00
        -11   -1    0    0    0    0  0.00000000000E+00  0.00000000000E+00  0.45593999997E+02  0.45594000000E+02  0.51100000000E-03 0. -1.
         11   -1    0    0    0    0 -0.00000000000E+00 -0.00000000000E+00 -0.45593999997E+02  0.45594000000E+02  0.51100000000E-03 0.  1.
    9900012    2    1    2    0    0 -0.15067694170E+02  0.21194798203E+02 -0.18451698020E+02  0.59301952294E+02  0.50000015075E+02 0.  0.
         12    1    1    2    0    0  0.15067694170E+02 -0.21194798203E+02  0.18451698020E+02  0.31886047706E+02  0.00000000000E+00 0. -1.
         11    1    3    3    0    0 -0.12422631754E+02 -0.20078672681E+01 -0.15819309307E+02  0.20213952060E+02  0.51100000000E-03 0. -1.
        -11    1    3    3    0    0 -0.12532930915E+02  0.31011696298E+01 -0.90714267432E+01  0.15779175955E+02  0.51100000000E-03 0.  1.
         12    1    3    3    0    0  0.98878684987E+01  0.20101495842E+02  0.64390380303E+01  0.23308824279E+02  0.00000000000E+00 0. -1.
</event>
<event>
 7    1  0.6593656E-013  0.5930187E+02  0.7816164E-02  0.1266605E+00
        -11   -1    0    0    0    0  0.00000000000E+00  0.00000000000E+00  0.45593999997E+02  0.45594000000E+02  0.51100000000E-03 0.  1.
         11   -1    0    0    0    0 -0.00000000000E+00 -0.00000000000E+00 -0.45593999997E+02  0.45594000000E+02  0.51100000000E-03 0. -1.
    9900012    2    1    2    0    0  0.11861745052E+01  0.30242346081E+02  0.10035859108E+02  0.59301874891E+02  0.49999873911E+02 0.  0.
         12    1    1    2    0    0 -0.11861745052E+01 -0.30242346081E+02 -0.10035859108E+02  0.31886125109E+02  0.00000000000E+00 0. -1.
         11    1    3    3    0    0  0.75232154433E+01  0.23260562727E+02 -0.86848573987E+01  0.25943771840E+02  0.51100000000E-03 0. -1.
        -11    1    3    3    0    0 -0.78868860592E+01  0.54184372839E+01 -0.41152874437E+01  0.10416238540E+02  0.51100000000E-03 0.  1.
        -12    1    3    3    0    0  0.15498451212E+01  0.15633460703E+01  0.22836003950E+02  0.22941864511E+02  0.00000000000E+00 0.  1.
</event>
<event>
 7    1  0.6593656E-013  0.5930196E+02  0.7816164E-02  0.1266605E+00
        -11   -1    0    0    0    0  0.00000000000E+00  0.00000000000E+00  0.45593999997E+02  0.45594000000E+02  0.51100000000E-03 0.  1.
         11   -1    0    0    0    0 -0.00000000000E+00 -0.00000000000E+00 -0.45593999997E+02  0.45594000000E+02  0.51100000000E-03 0. -1.
    9900012    2    1    2    0    0  0.17396692468E+02  0.20917859656E+02  0.16628828890E+02  0.59301957416E+02  0.50000024417E+02 0.  0.
         12    1    1    2    0    0 -0.17396692468E+02 -0.20917859656E+02 -0.16628828890E+02  0.31886042584E+02  0.00000000000E+00 0. -1.
         11    1    3    3    0    0 -0.51336702624E+01  0.11403660643E+02  0.13138461405E+02  0.18138831682E+02  0.51100000000E-03 0. -1.
        -11    1    3    3    0    0  0.78670485418E+00 -0.10632994768E+02  0.43316693089E+01  0.11508381360E+02  0.51100000000E-03 0.  1.
        -12    1    3    3    0    0  0.21743657876E+02  0.20147193782E+02 -0.84130182429E+00  0.29654744374E+02  0.00000000000E+00 0.  1.
</event>
<event>
 7    1  0.6593656E-013  0.5930194E+02  0.7816164E-02  0.1266605E+00
        -11   -1    0    0    0    0  0.00000000000E+00  0.00000000000E+00  0.45593999997E+02  0.45594000000E+02  0.51100000000E-03 0.  1.
         11   -1    0    0    0    0 -0.00000000000E+00 -0.00000000000E+00 -0.45593999997E+02  0.45594000000E+02  0.51100000000E-03 0. -1.
    9900012    2    1    2    0    0  0.77650724489E+01 -0.15228099931E+02  0.26917084820E+02  0.59301939835E+02  0.49999992353E+02 0.  0.
         12    1    1    2    0    0 -0.77650724489E+01  0.15228099931E+02 -0.26917084820E+02  0.31886060165E+02  0.00000000000E+00 0. -1.
         11    1    3    3    0    0  0.10510495072E+02 -0.19940576217E+02  0.22286337396E+02  0.31698232148E+02  0.51100000000E-03 0. -1.
        -11    1    3    3    0    0  0.70696639398E+01 -0.56602512836E+01  0.89012453757E+01  0.12698455115E+02  0.51100000000E-03 0.  1.
         12    1    3    3    0    0 -0.98150865633E+01  0.10372727569E+02 -0.42704979518E+01  0.14905252572E+02  0.00000000000E+00 0. -1.
</event>
<event>
 7    1  0.6593656E-013  0.5930193E+02  0.7816164E-02  0.1266605E+00
        -11   -1    0    0    0    0  0.00000000000E+00  0.00000000000E+00  0.45593999997E+02  0.45594000000E+02  0.51100000000E-03 0. -1.
         11   -1    0    0    0    0 -0.00000000000E+00 -0.00000000000E+00 -0.45593999997E+02  0.45594000000E+02  0.51100000000E-03 0.  1.
    9900012    2    1    2    0    0  0.16460191001E+02  0.23218004437E+02 -0.14377333099E+02  0.59301932120E+02  0.49999978283E+02 0.  0.
         12    1    1    2    0    0 -0.16460191001E+02 -0.23218004437E+02  0.14377333099E+02  0.31886067880E+02  0.00000000000E+00 0. -1.
         11    1    3    3    0    0  0.13690136974E+02 -0.44043509947E+01 -0.16404306205E+02  0.21815577471E+02  0.51100000000E-03 0. -1.
        -11    1    3    3    0    0  0.67154589672E+01  0.24743864775E+01 -0.74436727224E+01  0.10326095169E+02  0.51100000000E-03 0.  1.
         12    1    3    3    0    0 -0.39454049400E+01  0.25147968954E+02  0.94706458286E+01  0.27160259481E+02  0.00000000000E+00 0. -1.
</event>
<event>
 7    1  0.6593656E-013  0.5930207E+02  0.7816164E-02  0.1266604E+00
        -11   -1    0    0    0    0  0.00000000000E+00  0.00000000000E+00  0.45593999997E+02  0.45594000000E+02  0.51100000000E-03 0.  1.
         11   -1    0    0    0    0 -0.00000000000E+00 -0.00000000000E+00 -0.45593999997E+02  0.45594000000E+02  0.51100000000E-03 0. -1.
    9900012    2    1    2    0    0  0.31314861981E+02 -0.54296654312E+01  0.25711331608E+01  0.59302069352E+02  0.50000228561E+02 0.  0.
         12    1    1    2    0    0 -0.31314861981E+02  0.54296654312E+01 -0.25711331608E+01  0.31885930648E+02  0.00000000000E+00 0. -1.
         11    1    3    3    0    0  0.69215170600E+01 -0.45209137674E+01 -0.33618244871E+01  0.89245685524E+01  0.51100000000E-03 0. -1.
        -11    1    3    3    0    0 -0.12354766311E+02 -0.42439616879E+01  0.26782692954E+01  0.13335088604E+02  0.51100000000E-03 0.  1.
        -12    1    3    3    0    0  0.36748111231E+02  0.33352100242E+01  0.32546883524E+01  0.37042412195E+02  0.00000000000E+00 0.  1.
</event>
<event>
 7    1  0.6593656E-013  0.5930194E+02  0.7816164E-02  0.1266605E+00
        -11   -1    0    0    0    0  0.00000000000E+00  0.00000000000E+00  0.45593999997E+02  0.45594000000E+02  0.51100000000E-03 0.  1.
         11   -1    0    0    0    0 -0.00000000000E+00 -0.00000000000E+00 -0.45593999997E+02  0.45594000000E+02  0.51100000000E-03 0. -1.
    9900012    2    1    2    0    0  0.26001501919E+02  0.15943489076E+02  0.92977429025E+01  0.59301937700E+02  0.49999988459E+02 0.  0.
         12    1    1    2    0    0 -0.26001501919E+02 -0.15943489076E+02 -0.92977429025E+01  0.31886062300E+02  0.00000000000E+00 0. -1.
         11    1    3    3    0    0  0.10665212365E+01 -0.34742188766E+01  0.52332963874E+01  0.63714249340E+01  0.51100000000E-03 0. -1.
        -11    1    3    3    0    0 -0.68924171101E+01 -0.46015745482E+01  0.95912448830E+01  0.12675641231E+02  0.51100000000E-03 0.  1.
        -12    1    3    3    0    0  0.31827397792E+02  0.24019282501E+02 -0.55267983679E+01  0.40254871535E+02  0.00000000000E+00 0.  1.
</event>
<event>
 7    1  0.6593656E-013  0.5930196E+02  0.7816164E-02  0.1266605E+00
        -11   -1    0    0    0    0  0.00000000000E+00  0.00000000000E+00  0.45593999997E+02  0.45594000000E+02  0.51100000000E-03 0. -1.
         11   -1    0    0    0    0 -0.00000000000E+00 -0.00000000000E+00 -0.45593999997E+02  0.45594000000E+02  0.51100000000E-03 0.  1.
    9900012    2    1    2    0    0  0.22471999024E+02 -0.18770805947E+02 -0.12624811866E+02  0.59301956491E+02  0.50000022729E+02 0.  0.
         12    1    1    2    0    0 -0.22471999024E+02  0.18770805947E+02  0.12624811866E+02  0.31886043509E+02  0.00000000000E+00 0. -1.
         11    1    3    3    0    0  0.11235748517E+02  0.10193174171E+02 -0.11069226546E+02  0.18779526645E+02  0.51100000000E-03 0. -1.
        -11    1    3    3    0    0 -0.72636019190E+01 -0.43440528916E+01 -0.45012091924E+01  0.95860102659E+01  0.51100000000E-03 0.  1.
        -12    1    3    3    0    0  0.18499852426E+02 -0.24619927227E+02  0.29456238727E+01  0.30936419580E+02  0.00000000000E+00 0.  1.
</event>
<event>
 7    1  0.6593656E-013  0.5930191E+02  0.7816164E-02  0.1266605E+00
        -11   -1    0    0    0    0  0.00000000000E+00  0.00000000000E+00  0.45593999997E+02  0.45594000000E+02  0.51100000000E-03 0.  1.
         11   -1    0    0    0    0 -0.00000000000E+00 -0.00000000000E+00 -0.45593999997E+02  0.45594000000E+02  0.51100000000E-03 0. -1.
    9900012    2    1    2    0    0  0.15444112668E+02 -0.27535611898E+02  0.44712537899E+01  0.59301911354E+02  0.49999940411E+02 0.  0.
         12    1    1    2    0    0 -0.15444112668E+02  0.27535611898E+02 -0.44712537899E+01  0.31886088646E+02  0.00000000000E+00 0. -1.
         11    1    3    3    0    0  0.37868748125E+01 -0.19230839356E+02 -0.59323543166E+01  0.20478242873E+02  0.51100000000E-03 0. -1.
        -11    1    3    3    0    0  0.23160396679E+02 -0.10816821219E+02  0.60307596801E+01  0.26263618528E+02  0.51100000000E-03 0.  1.
        -12    1    3    3    0    0 -0.11503158823E+02  0.25120486768E+01  0.43728484265E+01  0.12560049953E+02  0.00000000000E+00 0.  1.
</event>
<event>
 7    1  0.6593656E-013  0.5930196E+02  0.7816164E-02  0.1266605E+00
        -11   -1    0    0    0    0  0.00000000000E+00  0.00000000000E+00  0.45593999997E+02  0.45594000000E+02  0.51100000000E-03 0. -1.
         11   -1    0    0    0    0 -0.00000000000E+00 -0.00000000000E+00 -0.45593999997E+02  0.45594000000E+02  0.51100000000E-03 0.  1.
    9900012    2    1    2    0    0 -0.65038235142E+01 -0.29946951907E+02  0.88090884700E+01  0.59301957779E+02  0.50000025079E+02 0.  0.
         12    1    1    2    0    0  0.65038235142E+01  0.29946951907E+02 -0.88090884700E+01  0.31886042221E+02  0.00000000000E+00 0. -1.
         11    1    3    3    0    0  0.61573408344E+01  0.48157013443E+01 -0.67873740662E+01  0.10352404192E+02  0.51100000000E-03 0.  1.
        -11    1    3    3    0    0 -0.80898016900E+01  0.27908830931E+01  0.32724656800E+01  0.91620386220E+01  0.51100000000E-03 0. -1.
        -12    1    3    3    0    0 -0.45713626586E+01 -0.37553536345E+02  0.12323996856E+02  0.39787514965E+02  0.00000000000E+00 0.  1.
</event>
<event>
 7    1  0.6593656E-013  0.5930196E+02  0.7816164E-02  0.1266605E+00
        -11   -1    0    0    0    0  0.00000000000E+00  0.00000000000E+00  0.45593999997E+02  0.45594000000E+02  0.51100000000E-03 0. -1.
         11   -1    0    0    0    0 -0.00000000000E+00 -0.00000000000E+00 -0.45593999997E+02  0.45594000000E+02  0.51100000000E-03 0.  1.
    9900012    2    1    2    0    0  0.26227634425E+02 -0.15882093615E+02  0.87515784525E+01  0.59301955552E+02  0.50000021018E+02 0.  0.
         12    1    1    2    0    0 -0.26227634425E+02  0.15882093615E+02 -0.87515784525E+01  0.31886044448E+02  0.00000000000E+00 0. -1.
         11    1    3    3    0    0  0.25191645259E+02 -0.23100264249E+02 -0.42779158447E+01  0.34446215517E+02  0.51100000000E-03 0. -1.
        -11    1    3    3    0    0  0.79154801210E+01  0.19821315831E+01 -0.11579943604E+01  0.82416395431E+01  0.51100000000E-03 0.  1.
         12    1    3    3    0    0 -0.68794909550E+01  0.52360390507E+01  0.14187488658E+02  0.16614100492E+02  0.00000000000E+00 0. -1.
</event>
<event>
 7    1  0.6593656E-013  0.5930196E+02  0.7816164E-02  0.1266605E+00
        -11   -1    0    0    0    0  0.00000000000E+00  0.00000000000E+00  0.45593999997E+02  0.45594000000E+02  0.51100000000E-03 0.  1.
         11   -1    0    0    0    0 -0.00000000000E+00 -0.00000000000E+00 -0.45593999997E+02  0.45594000000E+02  0.51100000000E-03 0. -1.
    9900012    2    1    2    0    0  0.14725170819E+01 -0.31262756883E+02  0.60984733085E+01  0.59301958364E+02  0.50000026146E+02 0.  0.
         12    1    1    2    0    0 -0.14725170819E+01  0.31262756883E+02 -0.60984733085E+01  0.31886041636E+02  0.00000000000E+00 0. -1.
         11    1    3    3    0    0 -0.12058652111E+02 -0.90102225277E+01 -0.17240362815E+01  0.15151485144E+02  0.51100000000E-03 0. -1.
        -11    1    3    3    0    0 -0.93786830695E+01 -0.90356605064E+01 -0.59642597826E+01  0.14323939818E+02  0.51100000000E-03 0.  1.
        -12    1    3    3    0    0  0.22909852262E+02 -0.13216873849E+02  0.13786769373E+02  0.29826533401E+02  0.00000000000E+00 0.  1.
</event>
<event>
 7    1  0.6593656E-013  0.5930196E+02  0.7816164E-02  0.1266605E+00
        -11   -1    0    0    0    0  0.00000000000E+00  0.00000000000E+00  0.45593999997E+02  0.45594000000E+02  0.51100000000E-03 0.  1.
         11   -1    0    0    0    0 -0.00000000000E+00 -0.00000000000E+00 -0.45593999997E+02  0.45594000000E+02  0.51100000000E-03 0. -1.
    9900012    2    1    2    0    0  0.10635270216E+02  0.26102266711E+02  0.14909139665E+02  0.59301956885E+02  0.50000023448E+02 0.  0.
         12    1    1    2    0    0 -0.10635270216E+02 -0.26102266711E+02 -0.14909139665E+02  0.31886043115E+02  0.00000000000E+00 0. -1.
         11    1    3    3    0    0  0.55244125856E+01  0.65328590790E+01 -0.94745966258E+01  0.12765788798E+02  0.51100000000E-03 0. -1.
        -11    1    3    3    0    0 -0.57207401950E+01  0.12472104326E+02 -0.48573682802E+01  0.14555901950E+02  0.51100000000E-03 0.  1.
        -12    1    3    3    0    0  0.10831597826E+02  0.70973033060E+01  0.29241104570E+02  0.31980266137E+02  0.00000000000E+00 0.  1.
</event>
<event>
 7    1  0.6593656E-013  0.5930191E+02  0.7816164E-02  0.1266605E+00
        -11   -1    0    0    0    0  0.00000000000E+00  0.00000000000E+00  0.45593999997E+02  0.45594000000E+02  0.51100000000E-03 0. -1.
         11   -1    0    0    0    0 -0.00000000000E+00 -0.00000000000E+00 -0.45593999997E+02  0.45594000000E+02  0.51100000000E-03 0.  1.
    9900012    2    1    2    0    0  0.23601582637E+02  0.11209541468E+02 -0.18276605062E+02  0.59301908746E+02  0.49999935654E+02 0.  0.
         12    1    1    2    0    0 -0.23601582637E+02 -0.11209541468E+02  0.18276605062E+02  0.31886091254E+02  0.00000000000E+00 0. -1.
         11    1    3    3    0    0 -0.61980956460E+01  0.97993141695E+00  0.54899009201E+01  0.83376056271E+01  0.51100000000E-03 0. -1.
        -11    1    3    3    0    0  0.39713567373E+01 -0.57174560511E+01 -0.19003126998E+02  0.20238078318E+02  0.51100000000E-03 0.  1.
        -12    1    3    3    0    0  0.25828321546E+02  0.15947066103E+02 -0.47633789837E+01  0.30726224801E+02  0.00000000000E+00 0.  1.
</event>
<event>
 7    1  0.6593656E-013  0.5930195E+02  0.7816164E-02  0.1266605E+00
        -11   -1    0    0    0    0  0.00000000000E+00  0.00000000000E+00  0.45593999997E+02  0.45594000000E+02  0.51100000000E-03 0. -1.
         11   -1    0    0    0    0 -0.00000000000E+00 -0.00000000000E+00 -0.45593999997E+02  0.45594000000E+02  0.51100000000E-03 0.  1.
    9900012    2    1    2    0    0  0.26891387294E+02 -0.16253226736E+02  0.54227214542E+01  0.59301952927E+02  0.50000016231E+02 0.  0.
         12    1    1    2    0    0 -0.26891387294E+02  0.16253226736E+02 -0.54227214542E+01  0.31886047073E+02  0.00000000000E+00 0. -1.
         11    1    3    3    0    0  0.30413588935E+01 -0.94544613168E+01  0.16775416922E+02  0.19494904870E+02  0.51100000000E-03 0. -1.
        -11    1    3    3    0    0  0.17331128324E+02 -0.14699627339E+02 -0.16747799937E+02  0.28230052353E+02  0.51100000000E-03 0.  1.
         12    1    3    3    0    0  0.65189000774E+01  0.79008619204E+01  0.53951044695E+01  0.11576995704E+02  0.00000000000E+00 0. -1.
</event>
<event>
 7    1  0.6593656E-013  0.5930196E+02  0.7816164E-02  0.1266605E+00
        -11   -1    0    0    0    0  0.00000000000E+00  0.00000000000E+00  0.45593999997E+02  0.45594000000E+02  0.51100000000E-03 0.  1.
         11   -1    0    0    0    0 -0.00000000000E+00 -0.00000000000E+00 -0.45593999997E+02  0.45594000000E+02  0.51100000000E-03 0. -1.
    9900012    2    1    2    0    0  0.25502917081E+02 -0.11220090920E+01  0.19106595776E+02  0.59301957815E+02  0.50000025145E+02 0.  0.
         12    1    1    2    0    0 -0.25502917081E+02  0.11220090920E+01 -0.19106595776E+02  0.31886042185E+02  0.00000000000E+00 0. -1.
         11    1    3    3    0    0 -0.59974029336E+01 -0.98650868368E+00  0.14798482643E+02  0.15998035196E+02  0.51100000000E-03 0. -1.
        -11    1    3    3    0    0 -0.30741185034E+01  0.71203998091E+01  0.10494128838E+01  0.78263379479E+01  0.51100000000E-03 0.  1.
         12    1    3    3    0    0  0.34574438518E+02 -0.72559002174E+01  0.32587002496E+01  0.35477584672E+02  0.00000000000E+00 0. -1.
</event>
<event>
 7    1  0.6593656E-013  0.5930196E+02  0.7816164E-02  0.1266605E+00
        -11   -1    0    0    0    0  0.00000000000E+00  0.00000000000E+00  0.45593999997E+02  0.45594000000E+02  0.51100000000E-03 0.  1.
         11   -1    0    0    0    0 -0.00000000000E+00 -0.00000000000E+00 -0.45593999997E+02  0.45594000000E+02  0.51100000000E-03 0. -1.
    9900012    2    1    2    0    0  0.26346036310E+01  0.17029968520E+02  0.26828315588E+02  0.59301961027E+02  0.50000031002E+02 0.  0.
         12    1    1    2    0    0 -0.26346036310E+01 -0.17029968520E+02 -0.26828315588E+02  0.31886038973E+02  0.00000000000E+00 0. -1.
         11    1    3    3    0    0 -0.18265588381E+01  0.16843088071E+02  0.55414736618E+01  0.17825090843E+02  0.51100000000E-03 0. -1.
        -11    1    3    3    0    0 -0.11038872483E+02  0.11367765583E+02  0.13583626697E+02  0.20870977805E+02  0.51100000000E-03 0.  1.
         12    1    3    3    0    0  0.15500034952E+02 -0.11180885133E+02  0.77032152298E+01  0.20605892379E+02  0.00000000000E+00 0. -1.
</event>
<event>
 7    1  0.6593656E-013  0.5930195E+02  0.7816164E-02  0.1266605E+00
        -11   -1    0    0    0    0  0.00000000000E+00  0.00000000000E+00  0.45593999997E+02  0.45594000000E+02  0.51100000000E-03 0.  1.
         11   -1    0    0    0    0 -0.00000000000E+00 -0.00000000000E+00 -0.45593999997E+02  0.45594000000E+02  0.51100000000E-03 0. -1.
    9900012    2    1    2    0    0 -0.18990188516E+02 -0.25613768800E+02  0.16700048716E+00  0.59301948172E+02  0.50000007558E+02 0.  0.
         12    1    1    2    0    0  0.18990188516E+02  0.25613768800E+02 -0.16700048716E+00  0.31886051828E+02  0.00000000000E+00 0. -1.
         11    1    3    3    0    0  0.72971241921E+01 -0.10253911746E+02  0.86261217118E+01  0.15257807956E+02  0.51100000000E-03 0. -1.
        -11    1    3    3    0    0  0.88854220820E+00 -0.14715451917E+02 -0.81791654584E+01  0.16859204614E+02  0.51100000000E-03 0.  1.
        -12    1    3    3    0    0 -0.27175854917E+02 -0.64440513665E+00 -0.27995576623E+00  0.27184935602E+02  0.00000000000E+00 0.  1.
</event>
<event>
 7    1  0.6593656E-013  0.5930195E+02  0.7816164E-02  0.1266605E+00
        -11   -1    0    0    0    0  0.00000000000E+00  0.00000000000E+00  0.45593999997E+02  0.45594000000E+02  0.51100000000E-03 0. -1.
         11   -1    0    0    0    0 -0.00000000000E+00 -0.00000000000E+00 -0.45593999997E+02  0.45594000000E+02  0.51100000000E-03 0.  1.
    9900012    2    1    2    0    0 -0.89059281821E+01 -0.10019580480E+01 -0.30600663912E+02  0.59301951192E+02  0.50000013067E+02 0.  0.
         12    1    1    2    0    0  0.89059281821E+01  0.10019580480E+01  0.30600663912E+02  0.31886048808E+02  0.00000000000E+00 0. -1.
         11    1    3    3    0    0 -0.68384307744E+01  0.69444723650E+00  0.47947969814E+01  0.83807201823E+01  0.51100000000E-03 0. -1.
        -11    1    3    3    0    0 -0.54490672072E+01 -0.18072535621E+02 -0.12781315869E+02  0.22796291646E+02  0.51100000000E-03 0.  1.
         12    1    3    3    0    0  0.33815697995E+01  0.16376130336E+02 -0.22614145024E+02  0.28124939364E+02  0.00000000000E+00 0. -1.
</event>
<event>
 7    1  0.6593656E-013  0.5930196E+02  0.7816164E-02  0.1266605E+00
        -11   -1    0    0    0    0  0.00000000000E+00  0.00000000000E+00  0.45593999997E+02  0.45594000000E+02  0.51100000000E-03 0.  1.
         11   -1    0    0    0    0 -0.00000000000E+00 -0.00000000000E+00 -0.45593999997E+02  0.45594000000E+02  0.51100000000E-03 0. -1.
    9900012    2    1    2    0    0  0.36400741143E+01 -0.19323274292E+02  0.25101410014E+02  0.59301955191E+02  0.50000020359E+02 0.  0.
         12    1    1    2    0    0 -0.36400741143E+01  0.19323274292E+02 -0.25101410014E+02  0.31886044809E+02  0.00000000000E+00 0. -1.
         11    1    3    3    0    0 -0.48603893786E+01  0.70403389285E+01 -0.72443092674E+01  0.11210253082E+02  0.51100000000E-03 0. -1.
        -11    1    3    3    0    0  0.23108741845E+01  0.30801546596E+01  0.96939327846E+01  0.10430715475E+02  0.51100000000E-03 0.  1.
         12    1    3    3    0    0  0.61895893084E+01 -0.29443767880E+02  0.22651786496E+02  0.37660986634E+02  0.00000000000E+00 0. -1.
</event>
<event>
 7    1  0.6593656E-013  0.5930194E+02  0.7816164E-02  0.1266605E+00
        -11   -1    0    0    0    0  0.00000000000E+00  0.00000000000E+00  0.45593999997E+02  0.45594000000E+02  0.51100000000E-03 0.  1.
         11   -1    0    0    0    0 -0.00000000000E+00 -0.00000000000E+00 -0.45593999997E+02  0.45594000000E+02  0.51100000000E-03 0. -1.
    9900012    2    1    2    0    0 -0.14457127716E+02  0.26800669456E+02  0.94570806032E+01  0.59301940371E+02  0.49999993332E+02 0.  0.
         12    1    1    2    0    0  0.14457127716E+02 -0.26800669456E+02 -0.94570806032E+01  0.31886059629E+02  0.00000000000E+00 0. -1.
         11    1    3    3    0    0 -0.20473453215E+02  0.87376695061E+01  0.16304899140E+01  0.22319669633E+02  0.51100000000E-03 0. -1.
        -11    1    3    3    0    0  0.54931285248E+00  0.25117084470E+00  0.16443243866E+02  0.16454333791E+02  0.51100000000E-03 0.  1.
         12    1    3    3    0    0  0.54670126456E+01  0.17811829105E+02 -0.86166531766E+01  0.20527936947E+02  0.00000000000E+00 0. -1.
</event>
<event>
 7    1  0.6593656E-013  0.5930195E+02  0.7816164E-02  0.1266605E+00
        -11   -1    0    0    0    0  0.00000000000E+00  0.00000000000E+00  0.45593999997E+02  0.45594000000E+02  0.51100000000E-03 0. -1.
         11   -1    0    0    0    0 -0.00000000000E+00 -0.00000000000E+00 -0.45593999997E+02  0.45594000000E+02  0.51100000000E-03 0.  1.
    9900012    2    1    2    0    0 -0.24612296219E+02 -0.16726292514E+02 -0.11453665519E+02  0.59301945991E+02  0.50000003581E+02 0.  0.
         12    1    1    2    0    0  0.24612296219E+02  0.16726292514E+02  0.11453665519E+02  0.31886054009E+02  0.00000000000E+00 0. -1.
         11    1    3    3    0    0 -0.55522233082E+01 -0.24667636601E+02 -0.40893862055E+01  0.25613327760E+02  0.51100000000E-03 0. -1.
        -11    1    3    3    0    0 -0.16837647178E+02 -0.61778010480E+01 -0.78050839770E+00  0.17952180421E+02  0.51100000000E-03 0.  1.
        -12    1    3    3    0    0 -0.22224257329E+01  0.14119145135E+02 -0.65837709160E+01  0.15736437810E+02  0.00000000000E+00 0.  1.
</event>
<event>
 7    1  0.6593656E-013  0.5930194E+02  0.7816164E-02  0.1266605E+00
        -11   -1    0    0    0    0  0.00000000000E+00  0.00000000000E+00  0.45593999997E+02  0.45594000000E+02  0.51100000000E-03 0.  1.
         11   -1    0    0    0    0 -0.00000000000E+00 -0.00000000000E+00 -0.45593999997E+02  0.45594000000E+02  0.51100000000E-03 0. -1.
    9900012    2    1    2    0    0 -0.14713451168E+02 -0.51619118597E+01  0.27813484508E+02  0.59301938785E+02  0.49999990438E+02 0.  0.
         12    1    1    2    0    0  0.14713451168E+02  0.51619118597E+01 -0.27813484508E+02  0.31886061215E+02  0.00000000000E+00 0. -1.
         11    1    3    3    0    0  0.26206973852E+01  0.44253061473E+01  0.13201224635E+02  0.14167699934E+02  0.51100000000E-03 0. -1.
        -11    1    3    3    0    0 -0.16489909409E+02  0.48901197320E+01  0.22738372147E+02  0.28510769044E+02  0.51100000000E-03 0.  1.
         12    1    3    3    0    0 -0.84423914411E+00 -0.14477337739E+02 -0.81261122740E+01  0.16623469807E+02  0.00000000000E+00 0. -1.
</event>
<event>
 7    1  0.6593656E-013  0.5930194E+02  0.7816164E-02  0.1266605E+00
        -11   -1    0    0    0    0  0.00000000000E+00  0.00000000000E+00  0.45593999997E+02  0.45594000000E+02  0.51100000000E-03 0.  1.
         11   -1    0    0    0    0 -0.00000000000E+00 -0.00000000000E+00 -0.45593999997E+02  0.45594000000E+02  0.51100000000E-03 0. -1.
    9900012    2    1    2    0    0 -0.19482644957E+02 -0.91431224900E+01  0.23527653771E+02  0.59301942932E+02  0.49999998002E+02 0.  0.
         12    1    1    2    0    0  0.19482644957E+02  0.91431224900E+01 -0.23527653771E+02  0.31886057068E+02  0.00000000000E+00 0. -1.
         11    1    3    3    0    0 -0.17229123911E+02 -0.13009905790E+02  0.11464518455E+02  0.24444540149E+02  0.51100000000E-03 0. -1.
        -11    1    3    3    0    0 -0.12544106451E+02 -0.59018488522E+01  0.14938669509E+02  0.20380144099E+02  0.51100000000E-03 0.  1.
         12    1    3    3    0    0  0.10290585406E+02  0.97686321519E+01 -0.28755341931E+01  0.14477258685E+02  0.00000000000E+00 0. -1.
</event>
<event>
 7    1  0.6593656E-013  0.5930193E+02  0.7816164E-02  0.1266605E+00
        -11   -1    0    0    0    0  0.00000000000E+00  0.00000000000E+00  0.45593999997E+02  0.45594000000E+02  0.51100000000E-03 0. -1.
         11   -1    0    0    0    0 -0.00000000000E+00 -0.00000000000E+00 -0.45593999997E+02  0.45594000000E+02  0.51100000000E-03 0.  1.
    9900012    2    1    2    0    0 -0.84560954148E+01  0.20524853484E+02  0.22889871368E+02  0.59301931389E+02  0.49999976951E+02 0.  0.
         12    1    1    2    0    0  0.84560954148E+01 -0.20524853484E+02 -0.22889871368E+02  0.31886068611E+02  0.00000000000E+00 0. -1.
         11    1    3    3    0    0 -0.22700692289E+02  0.80365134411E+01  0.32597296454E+00  0.24083463981E+02  0.51100000000E-03 0. -1.
        -11    1    3    3    0    0 -0.48520409625E+01  0.19835011837E+01  0.41417381858E+01  0.66806117915E+01  0.51100000000E-03 0.  1.
        -12    1    3    3    0    0  0.19096637837E+02  0.10504838859E+02  0.18422160218E+02  0.28537855617E+02  0.00000000000E+00 0.  1.
</event>
<event>
 7    1  0.6593656E-013  0.5930195E+02  0.7816164E-02  0.1266605E+00
        -11   -1    0    0    0    0  0.00000000000E+00  0.00000000000E+00  0.45593999997E+02  0.45594000000E+02  0.51100000000E-03 0. -1.
         11   -1    0    0    0    0 -0.00000000000E+00 -0.00000000000E+00 -0.45593999997E+02  0.45594000000E+02  0.51100000000E-03 0.  1.
    9900012    2    1    2    0    0  0.16639958827E+02  0.12259769745E+02  0.24280235066E+02  0.59301952913E+02  0.50000016205E+02 0.  0.
         12    1    1    2    0    0 -0.16639958827E+02 -0.12259769745E+02 -0.24280235066E+02  0.31886047087E+02  0.00000000000E+00 0. -1.
         11    1    3    3    0    0 -0.35068777157E+01 -0.96368742001E+01 -0.38560688397E+01  0.10956130833E+02  0.51100000000E-03 0. -1.
        -11    1    3    3    0    0  0.10671712895E+02 -0.41915835082E+01  0.67325673059E+01  0.13295950181E+02  0.51100000000E-03 0.  1.
         12    1    3    3    0    0  0.94751236484E+01  0.26088227453E+02  0.21403736599E+02  0.35049871900E+02  0.00000000000E+00 0. -1.
</event>
<event>
 7    1  0.6593656E-013  0.5930194E+02  0.7816164E-02  0.1266605E+00
        -11   -1    0    0    0    0  0.00000000000E+00  0.00000000000E+00  0.45593999997E+02  0.45594000000E+02  0.51100000000E-03 0.  1.
         11   -1    0    0    0    0 -0.00000000000E+00 -0.00000000000E+00 -0.45593999997E+02  0.45594000000E+02  0.51100000000E-03 0. -1.
    9900012    2    1    2    0    0  0.96772047112E+01  0.19879428799E+02  0.22975653293E+02  0.59301943100E+02  0.49999998308E+02 0.  0.
         12    1    1    2    0    0 -0.96772047112E+01 -0.19879428799E+02 -0.22975653293E+02  0.31886056900E+02  0.00000000000E+00 0. -1.
         11    1    3    3    0    0  0.68258516557E+01  0.16735376853E+02 -0.60191515240E+01  0.19049810356E+02  0.51100000000E-03 0. -1.
        -11    1    3    3    0    0 -0.73278610553E+00  0.72827606802E+01 -0.29130983817E+01  0.78779261893E+01  0.51100000000E-03 0.  1.
        -12    1    3    3    0    0  0.35841391610E+01 -0.41387087345E+01  0.31907903199E+02  0.32374206555E+02  0.00000000000E+00 0.  1.
</event>
<event>
 7    1  0.6593656E-013  0.5930195E+02  0.7816164E-02  0.1266605E+00
        -11   -1    0    0    0    0  0.00000000000E+00  0.00000000000E+00  0.45593999997E+02  0.45594000000E+02  0.51100000000E-03 0. -1.
         11   -1    0    0    0    0 -0.00000000000E+00 -0.00000000000E+00 -0.45593999997E+02  0.45594000000E+02  0.51100000000E-03 0.  1.
    9900012    2    1    2    0    0  0.27951468886E+02 -0.13430064150E+02 -0.74208414313E+01  0.59301950958E+02  0.50000012640E+02 0.  0.
         12    1    1    2    0    0 -0.27951468886E+02  0.13430064150E+02  0.74208414313E+01  0.31886049042E+02  0.00000000000E+00 0. -1.
         11    1    3    3    0    0 -0.18747262350E+01 -0.11893907778E+02  0.58849710358E+01  0.13401959747E+02  0.51100000000E-03 0. -1.
        -11    1    3    3    0    0  0.26487700188E+02 -0.13696809937E+02 -0.37011477264E+01  0.30048283785E+02  0.51100000000E-03 0.  1.
         12    1    3    3    0    0  0.33384949328E+01  0.12160653565E+02 -0.96046647407E+01  0.15851707426E+02  0.00000000000E+00 0. -1.
</event>
<event>
 7    1  0.6593656E-013  0.5930181E+02  0.7816164E-02  0.1266605E+00
        -11   -1    0    0    0    0  0.00000000000E+00  0.00000000000E+00  0.45593999997E+02  0.45594000000E+02  0.51100000000E-03 0.  1.
         11   -1    0    0    0    0 -0.00000000000E+00 -0.00000000000E+00 -0.45593999997E+02  0.45594000000E+02  0.51100000000E-03 0. -1.
    9900012    2    1    2    0    0  0.28701893627E+02  0.26237495278E+00  0.13887461861E+02  0.59301809645E+02  0.49999754918E+02 0.  0.
         12    1    1    2    0    0 -0.28701893627E+02 -0.26237495278E+00 -0.13887461861E+02  0.31886190355E+02  0.00000000000E+00 0. -1.
         11    1    3    3    0    0  0.15983152319E+02 -0.37907726923E+01  0.11015003755E+02  0.19777801284E+02  0.51100000000E-03 0. -1.
        -11    1    3    3    0    0  0.16667500782E+02  0.16581759820E+02  0.88112863833E+01  0.25107749980E+02  0.51100000000E-03 0.  1.
         12    1    3    3    0    0 -0.39487594736E+01 -0.12528612175E+02 -0.59388282772E+01  0.14416258382E+02  0.00000000000E+00 0. -1.
</event>
<event>
 7    1  0.6593656E-013  0.5930196E+02  0.7816164E-02  0.1266605E+00
        -11   -1    0    0    0    0  0.00000000000E+00  0.00000000000E+00  0.45593999997E+02  0.45594000000E+02  0.51100000000E-03 0.  1.
         11   -1    0    0    0    0 -0.00000000000E+00 -0.00000000000E+00 -0.45593999997E+02  0.45594000000E+02  0.51100000000E-03 0. -1.
    9900012    2    1    2    0    0 -0.60428806629E+01 -0.19714827053E+02  0.24321359673E+02  0.59301963107E+02  0.50000034796E+02 0.  0.
         12    1    1    2    0    0  0.60428806629E+01  0.19714827053E+02 -0.24321359673E+02  0.31886036893E+02  0.00000000000E+00 0. -1.
         11    1    3    3    0    0  0.87305258979E+01 -0.59135587047E+01 -0.32328610800E+01  0.11029218015E+02  0.51100000000E-03 0. -1.
        -11    1    3    3    0    0  0.10649093967E+02 -0.10469030177E+01  0.42927235230E+01  0.11529383494E+02  0.51100000000E-03 0.  1.
        -12    1    3    3    0    0 -0.25422500528E+02 -0.12754365330E+02  0.23261497230E+02  0.36743361597E+02  0.00000000000E+00 0.  1.
</event>
<event>
 7    1  0.6593656E-013  0.5930195E+02  0.7816164E-02  0.1266605E+00
        -11   -1    0    0    0    0  0.00000000000E+00  0.00000000000E+00  0.45593999997E+02  0.45594000000E+02  0.51100000000E-03 0.  1.
         11   -1    0    0    0    0 -0.00000000000E+00 -0.00000000000E+00 -0.45593999997E+02  0.45594000000E+02  0.51100000000E-03 0. -1.
    9900012    2    1    2    0    0 -0.39836069974E+01 -0.37424793371E+01  0.31414091463E+02  0.59301946329E+02  0.50000004196E+02 0.  0.
         12    1    1    2    0    0  0.39836069974E+01  0.37424793371E+01 -0.31414091463E+02  0.31886053671E+02  0.00000000000E+00 0. -1.
         11    1    3    3    0    0  0.34964445270E+01 -0.36971343669E+01  0.25224206584E+01  0.56794835238E+01  0.51100000000E-03 0. -1.
        -11    1    3    3    0    0  0.17365127587E+02 -0.63578762011E+01  0.17880055005E+02  0.25722881121E+02  0.51100000000E-03 0.  1.
        -12    1    3    3    0    0 -0.24845179112E+02  0.63125312309E+01  0.11011615799E+02  0.27899581684E+02  0.00000000000E+00 0.  1.
</event>
<event>
 7    1  0.6593656E-013  0.5930194E+02  0.7816164E-02  0.1266605E+00
        -11   -1    0    0    0    0  0.00000000000E+00  0.00000000000E+00  0.45593999997E+02  0.45594000000E+02  0.51100000000E-03 0.  1.
         11   -1    0    0    0    0 -0.00000000000E+00 -0.00000000000E+00 -0.45593999997E+02  0.45594000000E+02  0.51100000000E-03 0. -1.
    9900012    2    1    2    0    0 -0.28622522412E+02 -0.11851955268E+02  0.75500496240E+01  0.59301939061E+02  0.49999990941E+02 0.  0.
         12    1    1    2    0    0  0.28622522412E+02  0.11851955268E+02 -0.75500496240E+01  0.31886060939E+02  0.00000000000E+00 0. -1.
         11    1    3    3    0    0 -0.14223596134E+02  0.69395161442E+01  0.14776212615E+02  0.21651882846E+02  0.51100000000E-03 0. -1.
        -11    1    3    3    0    0  0.35720388860E+01 -0.94209228226E+01  0.75314245977E+01  0.12579173477E+02  0.51100000000E-03 0.  1.
         12    1    3    3    0    0 -0.17970965164E+02 -0.93705485900E+01 -0.14757587588E+02  0.25070882737E+02  0.00000000000E+00 0. -1.
</event>
<event>
 7    1  0.6593656E-013  0.5930191E+02  0.7816164E-02  0.1266605E+00
        -11   -1    0    0    0    0  0.00000000000E+00  0.00000000000E+00  0.45593999997E+02  0.45594000000E+02  0.51100000000E-03 0. -1.
         11   -1    0    0    0    0 -0.00000000000E+00 -0.00000000000E+00 -0.45593999997E+02  0.45594000000E+02  0.51100000000E-03 0.  1.
    9900012    2    1    2    0    0  0.28227260169E+02  0.11207448275E+02 -0.97127445694E+01  0.59301913370E+02  0.49999944088E+02 0.  0.
         12    1    1    2    0    0 -0.28227260169E+02 -0.11207448275E+02  0.97127445694E+01  0.31886086630E+02  0.00000000000E+00 0. -1.
         11    1    3    3    0    0  0.20647004822E+02  0.18205762939E+02  0.39005297678E+01  0.27802207557E+02  0.51100000000E-03 0. -1.
        -11    1    3    3    0    0 -0.62963039044E+00  0.96640115973E+01 -0.62047131468E+01  0.11501652928E+02  0.51100000000E-03 0.  1.
        -12    1    3    3    0    0  0.82098857375E+01 -0.16662326262E+02 -0.74085611905E+01  0.19998052885E+02  0.00000000000E+00 0.  1.
</event>
<event>
 7    1  0.6593656E-013  0.5930190E+02  0.7816164E-02  0.1266605E+00
        -11   -1    0    0    0    0  0.00000000000E+00  0.00000000000E+00  0.45593999997E+02  0.45594000000E+02  0.51100000000E-03 0.  1.
         11   -1    0    0    0    0 -0.00000000000E+00 -0.00000000000E+00 -0.45593999997E+02  0.45594000000E+02  0.51100000000E-03 0. -1.
    9900012    2    1    2    0    0  0.18599494512E+02 -0.15936106017E+02  0.20416241874E+02  0.59301896391E+02  0.49999913123E+02 0.  0.
         12    1    1    2    0    0 -0.18599494512E+02  0.15936106017E+02 -0.20416241874E+02  0.31886103609E+02  0.00000000000E+00 0. -1.
         11    1    3    3    0    0  0.81533007298E+01 -0.93689304760E+01  0.26169860433E+01  0.12692587887E+02  0.51100000000E-03 0. -1.
        -11    1    3    3    0    0  0.21492670844E+02 -0.50671043560E+01  0.24986266270E+02  0.33345523672E+02  0.51100000000E-03 0.  1.
        -12    1    3    3    0    0 -0.11046477062E+02 -0.15000711847E+01 -0.71870104394E+01  0.13263784833E+02  0.00000000000E+00 0.  1.
</event>
<event>
 7    1  0.6593656E-013  0.5930195E+02  0.7816164E-02  0.1266605E+00
        -11   -1    0    0    0    0  0.00000000000E+00  0.00000000000E+00  0.45593999997E+02  0.45594000000E+02  0.51100000000E-03 0.  1.
         11   -1    0    0    0    0 -0.00000000000E+00 -0.00000000000E+00 -0.45593999997E+02  0.45594000000E+02  0.51100000000E-03 0. -1.
    9900012    2    1    2    0    0 -0.26389138618E+02  0.12089789566E+02 -0.13197376308E+02  0.59301946777E+02  0.50000005014E+02 0.  0.
         12    1    1    2    0    0  0.26389138618E+02 -0.12089789566E+02  0.13197376308E+02  0.31886053223E+02  0.00000000000E+00 0. -1.
         11    1    3    3    0    0 -0.21445330655E+02  0.10589902688E+02 -0.28409040851E+02  0.37136529836E+02  0.51100000000E-03 0. -1.
        -11    1    3    3    0    0 -0.84232951280E+01  0.40898724304E+01  0.40715112387E+01  0.10210590646E+02  0.51100000000E-03 0.  1.
        -12    1    3    3    0    0  0.34794871657E+01 -0.25899855530E+01  0.11140153305E+02  0.11954826295E+02  0.00000000000E+00 0.  1.
</event>
<event>
 7    1  0.6593656E-013  0.5930193E+02  0.7816164E-02  0.1266605E+00
        -11   -1    0    0    0    0  0.00000000000E+00  0.00000000000E+00  0.45593999997E+02  0.45594000000E+02  0.51100000000E-03 0. -1.
         11   -1    0    0    0    0 -0.00000000000E+00 -0.00000000000E+00 -0.45593999997E+02  0.45594000000E+02  0.51100000000E-03 0.  1.
    9900012    2    1    2    0    0  0.16914388393E+02  0.19619458511E+02 -0.18593058391E+02  0.59301929259E+02  0.49999973066E+02 0.  0.
         12    1    1    2    0    0 -0.16914388393E+02 -0.19619458511E+02  0.18593058391E+02  0.31886070741E+02  0.00000000000E+00 0. -1.
         11    1    3    3    0    0  0.14016260867E+02  0.50196776690E+01  0.12850552698E+02  0.19666963098E+02  0.51100000000E-03 0. -1.
        -11    1    3    3    0    0  0.88082502418E+01  0.34950457714E+01 -0.59029988932E+01  0.11164497905E+02  0.51100000000E-03 0.  1.
         12    1    3    3    0    0 -0.59101227159E+01  0.11104735070E+02 -0.25540612195E+02  0.28470468257E+02  0.00000000000E+00 0. -1.
</event>
<event>
 7    1  0.6593656E-013  0.5930195E+02  0.7816164E-02  0.1266605E+00
        -11   -1    0    0    0    0  0.00000000000E+00  0.00000000000E+00  0.45593999997E+02  0.45594000000E+02  0.51100000000E-03 0.  1.
         11   -1    0    0    0    0 -0.00000000000E+00 -0.00000000000E+00 -0.45593999997E+02  0.45594000000E+02  0.51100000000E-03 0. -1.
    9900012    2    1    2    0    0  0.25761165682E+02  0.68390089498E+01  0.17501734456E+02  0.59301946471E+02  0.50000004456E+02 0.  0.
         12    1    1    2    0    0 -0.25761165682E+02 -0.68390089498E+01 -0.17501734456E+02  0.31886053529E+02  0.00000000000E+00 0. -1.
         11    1    3    3    0    0 -0.80473557099E+01  0.22712650614E+01  0.12087420823E+02  0.14697765861E+02  0.51100000000E-03 0. -1.
        -11    1    3    3    0    0  0.12752775034E+01  0.10993188432E+02  0.22358379453E+01  0.11290504692E+02  0.51100000000E-03 0.  1.
        -12    1    3    3    0    0  0.32533243889E+02 -0.64254445436E+01  0.31784756878E+01  0.33313675918E+02  0.00000000000E+00 0.  1.
</event>
<event>
 7    1  0.6593656E-013  0.5930195E+02  0.7816164E-02  0.1266605E+00
        -11   -1    0    0    0    0  0.00000000000E+00  0.00000000000E+00  0.45593999997E+02  0.45594000000E+02  0.51100000000E-03 0.  1.
         11   -1    0    0    0    0 -0.00000000000E+00 -0.00000000000E+00 -0.45593999997E+02  0.45594000000E+02  0.51100000000E-03 0. -1.
    9900012    2    1    2    0    0  0.29717638207E+02  0.11525027203E+02  0.86959592404E+00  0.59301945530E+02  0.50000002739E+02 0.  0.
         12    1    1    2    0    0 -0.29717638207E+02 -0.11525027203E+02 -0.86959592404E+00  0.31886054470E+02  0.00000000000E+00 0. -1.
         11    1    3    3    0    0  0.29289695567E+02  0.15776293276E+02  0.66470185142E+01  0.33925809516E+02  0.51100000000E-03 0. -1.
        -11    1    3    3    0    0  0.10047248657E+02  0.34579285198E+01  0.19835504369E+01  0.10809206623E+02  0.51100000000E-03 0.  1.
         12    1    3    3    0    0 -0.96193060180E+01 -0.77091945924E+01 -0.77609730271E+01  0.14566929390E+02  0.00000000000E+00 0. -1.
</event>
<event>
 7    1  0.6593656E-013  0.5930192E+02  0.7816164E-02  0.1266605E+00
        -11   -1    0    0    0    0  0.00000000000E+00  0.00000000000E+00  0.45593999997E+02  0.45594000000E+02  0.51100000000E-03 0.  1.
         11   -1    0    0    0    0 -0.00000000000E+00 -0.00000000000E+00 -0.45593999997E+02  0.45594000000E+02  0.51100000000E-03 0. -1.
    9900012    2    1    2    0    0  0.23583400443E+02  0.12671550544E+00  0.21459939549E+02  0.59301924062E+02  0.49999963587E+02 0.  0.
         12    1    1    2    0    0 -0.23583400443E+02 -0.12671550544E+00 -0.21459939549E+02  0.31886075938E+02  0.00000000000E+00 0. -1.
         11    1    3    3    0    0  0.41953205954E+01  0.12703759407E+02  0.16445286094E+02  0.21199850304E+02  0.51100000000E-03 0. -1.
        -11    1    3    3    0    0 -0.26851241036E+01 -0.12795425533E+02  0.87250595900E+01  0.15718125560E+02  0.51100000000E-03 0.  1.
         12    1    3    3    0    0  0.22073203952E+02  0.21838163127E+00 -0.37104061347E+01  0.22383948198E+02  0.00000000000E+00 0. -1.
</event>
<event>
 7    1  0.6593656E-013  0.5930194E+02  0.7816164E-02  0.1266605E+00
        -11   -1    0    0    0    0  0.00000000000E+00  0.00000000000E+00  0.45593999997E+02  0.45594000000E+02  0.51100000000E-03 0.  1.
         11   -1    0    0    0    0 -0.00000000000E+00 -0.00000000000E+00 -0.45593999997E+02  0.45594000000E+02  0.51100000000E-03 0. -1.
    9900012    2    1    2    0    0 -0.22993818366E+02 -0.71521249823E+00  0.22079253284E+02  0.59301942898E+02  0.49999997940E+02 0.  0.
         12    1    1    2    0    0  0.22993818366E+02  0.71521249823E+00 -0.22079253284E+02  0.31886057102E+02  0.00000000000E+00 0. -1.
         11    1    3    3    0    0 -0.27725737012E+01 -0.80875079417E+01  0.27784962589E+01  0.89897158664E+01  0.51100000000E-03 0. -1.
        -11    1    3    3    0    0  0.25598437035E+01  0.60881130677E+01 -0.10728117849E+02  0.12598032916E+02  0.51100000000E-03 0.  1.
        -12    1    3    3    0    0 -0.22781088368E+02  0.12841823758E+01  0.30028874874E+02  0.37714194116E+02  0.00000000000E+00 0.  1.
</event>
<event>
 7    1  0.6593656E-013  0.5930191E+02  0.7816164E-02  0.1266605E+00
        -11   -1    0    0    0    0  0.00000000000E+00  0.00000000000E+00  0.45593999997E+02  0.45594000000E+02  0.51100000000E-03 0. -1.
         11   -1    0    0    0    0 -0.00000000000E+00 -0.00000000000E+00 -0.45593999997E+02  0.45594000000E+02  0.51100000000E-03 0.  1.
    9900012    2    1    2    0    0 -0.22336078653E+02  0.12077068961E+02 -0.19286435191E+02  0.59301912334E+02  0.49999942198E+02 0.  0.
         12    1    1    2    0    0  0.22336078653E+02 -0.12077068961E+02  0.19286435191E+02  0.31886087666E+02  0.00000000000E+00 0. -1.
         11    1    3    3    0    0 -0.10042963134E+02  0.10209210401E+02 -0.17170146723E+02  0.22358511226E+02  0.51100000000E-03 0. -1.
        -11    1    3    3    0    0  0.86188023949E+01  0.40529773652E+01 -0.10618157832E+02  0.14263788286E+02  0.51100000000E-03 0.  1.
         12    1    3    3    0    0 -0.20911917915E+02 -0.21851188048E+01  0.85018693644E+01  0.22679612822E+02  0.00000000000E+00 0. -1.
</event>
<event>
 7    1  0.6593656E-013  0.5930206E+02  0.7816164E-02  0.1266604E+00
        -11   -1    0    0    0    0  0.00000000000E+00  0.00000000000E+00  0.45593999997E+02  0.45594000000E+02  0.51100000000E-03 0.  1.
         11   -1    0    0    0    0 -0.00000000000E+00 -0.00000000000E+00 -0.45593999997E+02  0.45594000000E+02  0.51100000000E-03 0. -1.
    9900012    2    1    2    0    0  0.48764290070E+01  0.10075703554E+02  0.29856549829E+02  0.59302063764E+02  0.50000218369E+02 0.  0.
         12    1    1    2    0    0 -0.48764290070E+01 -0.10075703554E+02 -0.29856549829E+02  0.31885936236E+02  0.00000000000E+00 0. -1.
         11    1    3    3    0    0  0.21612282082E+02  0.11842623122E+02  0.12125773738E+02  0.27465848762E+02  0.51100000000E-03 0. -1.
        -11    1    3    3    0    0 -0.11495003025E+01  0.31584442744E+01 -0.36244859581E+01  0.49430779785E+01  0.51100000000E-03 0.  1.
        -12    1    3    3    0    0 -0.15586352773E+02 -0.49253638422E+01  0.21355262050E+02  0.26893137023E+02  0.00000000000E+00 0.  1.
</event>
<event>
 7    1  0.6593656E-013  0.5930194E+02  0.7816164E-02  0.1266605E+00
        -11   -1    0    0    0    0  0.00000000000E+00  0.00000000000E+00  0.45593999997E+02  0.45594000000E+02  0.51100000000E-03 0.  1.
         11   -1    0    0    0    0 -0.00000000000E+00 -0.00000000000E+00 -0.45593999997E+02  0.45594000000E+02  0.51100000000E-03 0. -1.
    9900012    2    1    2    0    0 -0.10723057240E+02  0.57761771189E+01  0.29468163922E+02  0.59301939353E+02  0.49999991474E+02 0.  0.
         12    1    1    2    0    0  0.10723057240E+02 -0.57761771189E+01 -0.29468163922E+02  0.31886060647E+02  0.00000000000E+00 0. -1.
         11    1    3    3    0    0  0.17491208048E+02  0.37704435428E+01  0.81892293893E+01  0.19677959288E+02  0.51100000000E-03 0. -1.
        -11    1    3    3    0    0 -0.15728794505E+02  0.27793908158E+01  0.12653529336E+01  0.16022518785E+02  0.51100000000E-03 0.  1.
        -12    1    3    3    0    0 -0.12485470782E+02 -0.77365723977E+00  0.20013581599E+02  0.23601461281E+02  0.00000000000E+00 0.  1.
</event>
<event>
 7    1  0.6593656E-013  0.5930188E+02  0.7816164E-02  0.1266605E+00
        -11   -1    0    0    0    0  0.00000000000E+00  0.00000000000E+00  0.45593999997E+02  0.45594000000E+02  0.51100000000E-03 0.  1.
         11   -1    0    0    0    0 -0.00000000000E+00 -0.00000000000E+00 -0.45593999997E+02  0.45594000000E+02  0.51100000000E-03 0. -1.
    9900012    2    1    2    0    0  0.13613688301E+02 -0.21170588851E+02  0.19575446428E+02  0.59301883204E+02  0.49999889072E+02 0.  0.
         12    1    1    2    0    0 -0.13613688301E+02  0.21170588851E+02 -0.19575446428E+02  0.31886116796E+02  0.00000000000E+00 0. -1.
         11    1    3    3    0    0  0.18228053018E+01  0.31516599815E+01  0.24641961111E+01  0.43963442247E+01  0.51100000000E-03 0. -1.
        -11    1    3    3    0    0  0.54314756732E+00  0.38089292435E+01  0.23608735430E+02  0.23920186874E+02  0.51100000000E-03 0.  1.
        -12    1    3    3    0    0  0.11247735432E+02 -0.28131178076E+02 -0.64974851123E+01  0.30985352105E+02  0.00000000000E+00 0.  1.
</event>
<event>
 7    1  0.6593656E-013  0.5930214E+02  0.7816164E-02  0.1266604E+00
        -11   -1    0    0    0    0  0.00000000000E+00  0.00000000000E+00  0.45593999997E+02  0.45594000000E+02  0.51100000000E-03 0.  1.
         11   -1    0    0    0    0 -0.00000000000E+00 -0.00000000000E+00 -0.45593999997E+02  0.45594000000E+02  0.51100000000E-03 0. -1.
    9900012    2    1    2    0    0 -0.24803993427E+02  0.19761695314E+02 -0.33083729189E+01  0.59302140705E+02  0.50000358691E+02 0.  0.
         12    1    1    2    0    0  0.24803993427E+02 -0.19761695314E+02  0.33083729189E+01  0.31885859295E+02  0.00000000000E+00 0. -1.
         11    1    3    3    0    0 -0.15945010965E+02  0.84800925319E+01  0.13422425454E+02  0.22501485492E+02  0.51100000000E-03 0. -1.
        -11    1    3    3    0    0 -0.44689291709E+01  0.14248655247E+02  0.39542744265E+01  0.15447711507E+02  0.51100000000E-03 0.  1.
         12    1    3    3    0    0 -0.43900532910E+01 -0.29670524649E+01 -0.20685072799E+02  0.21352943706E+02  0.00000000000E+00 0. -1.
</event>
<event>
 7    1  0.6593656E-013  0.5930191E+02  0.7816164E-02  0.1266605E+00
        -11   -1    0    0    0    0  0.00000000000E+00  0.00000000000E+00  0.45593999997E+02  0.45594000000E+02  0.51100000000E-03 0.  1.
         11   -1    0    0    0    0 -0.00000000000E+00 -0.00000000000E+00 -0.45593999997E+02  0.45594000000E+02  0.51100000000E-03 0. -1.
    9900012    2    1    2    0    0 -0.29555997195E+02 -0.94377886694E+01 -0.73548398810E+01  0.59301913773E+02  0.49999944823E+02 0.  0.
         12    1    1    2    0    0  0.29555997195E+02  0.94377886694E+01  0.73548398810E+01  0.31886086227E+02  0.00000000000E+00 0. -1.
         11    1    3    3    0    0 -0.16280068065E+01  0.74107267167E+00  0.13499886040E+01  0.22409962870E+01  0.51100000000E-03 0. -1.
        -11    1    3    3    0    0 -0.23695986974E+02  0.40398036692E+01  0.15549928035E+02  0.28629007571E+02  0.51100000000E-03 0.  1.
         12    1    3    3    0    0 -0.42320034147E+01 -0.14218665010E+02 -0.24254756520E+02  0.28431909915E+02  0.00000000000E+00 0. -1.
</event>
<event>
 7    1  0.6593656E-013  0.5930193E+02  0.7816164E-02  0.1266605E+00
        -11   -1    0    0    0    0  0.00000000000E+00  0.00000000000E+00  0.45593999997E+02  0.45594000000E+02  0.51100000000E-03 0. -1.
         11   -1    0    0    0    0 -0.00000000000E+00 -0.00000000000E+00 -0.45593999997E+02  0.45594000000E+02  0.51100000000E-03 0.  1.
    9900012    2    1    2    0    0  0.19185587413E+02 -0.18071513091E+02 -0.17945898003E+02  0.59301927728E+02  0.49999970273E+02 0.  0.
         12    1    1    2    0    0 -0.19185587413E+02  0.18071513091E+02  0.17945898003E+02  0.31886072272E+02  0.00000000000E+00 0. -1.
         11    1    3    3    0    0  0.77679239746E+01 -0.43962891709E+01 -0.25560955204E+02  0.27074534761E+02  0.51100000000E-03 0. -1.
        -11    1    3    3    0    0  0.36959984975E+01 -0.17434737397E+02 -0.35186224300E+01  0.18166209760E+02  0.51100000000E-03 0.  1.
        -12    1    3    3    0    0  0.77216649410E+01  0.37595134768E+01  0.11133679630E+02  0.14061183206E+02  0.00000000000E+00 0.  1.
</event>
<event>
 7    1  0.6593656E-013  0.5930193E+02  0.7816164E-02  0.1266605E+00
        -11   -1    0    0    0    0  0.00000000000E+00  0.00000000000E+00  0.45593999997E+02  0.45594000000E+02  0.51100000000E-03 0.  1.
         11   -1    0    0    0    0 -0.00000000000E+00 -0.00000000000E+00 -0.45593999997E+02  0.45594000000E+02  0.51100000000E-03 0. -1.
    9900012    2    1    2    0    0  0.21770918292E+02  0.88109483161E+01  0.21566542861E+02  0.59301929930E+02  0.49999974289E+02 0.  0.
         12    1    1    2    0    0 -0.21770918292E+02 -0.88109483161E+01 -0.21566542861E+02  0.31886070070E+02  0.00000000000E+00 0. -1.
         11    1    3    3    0    0 -0.37500865412E+01 -0.41416334929E+01  0.10595869086E+02  0.11978677682E+02  0.51100000000E-03 0. -1.
        -11    1    3    3    0    0  0.27546583579E+01 -0.26043126908E+01  0.18383476754E+02  0.18770263852E+02  0.51100000000E-03 0.  1.
         12    1    3    3    0    0  0.22766346475E+02  0.15556894500E+02 -0.74128029789E+01  0.28552988396E+02  0.00000000000E+00 0. -1.
</event>
<event>
 7    1  0.6593656E-013  0.5930194E+02  0.7816164E-02  0.1266605E+00
        -11   -1    0    0    0    0  0.00000000000E+00  0.00000000000E+00  0.45593999997E+02  0.45594000000E+02  0.51100000000E-03 0.  1.
         11   -1    0    0    0    0 -0.00000000000E+00 -0.00000000000E+00 -0.45593999997E+02  0.45594000000E+02  0.51100000000E-03 0. -1.
    9900012    2    1    2    0    0 -0.12941823002E+02  0.27580663136E+02 -0.94094035540E+01  0.59301942908E+02  0.49999997957E+02 0.  0.
         12    1    1    2    0    0  0.12941823002E+02 -0.27580663136E+02  0.94094035540E+01  0.31886057092E+02  0.00000000000E+00 0. -1.
         11    1    3    3    0    0  0.12106516859E+02  0.48004214114E+01 -0.16875905343E+02  0.21316847271E+02  0.51100000000E-03 0. -1.
        -11    1    3    3    0    0  0.13399264597E+01  0.16608873572E+01  0.33006202229E+01  0.39303999602E+01  0.51100000000E-03 0.  1.
         12    1    3    3    0    0 -0.26388266322E+02  0.21119354368E+02  0.41658815657E+01  0.34054695676E+02  0.00000000000E+00 0. -1.
</event>
<event>
 7    1  0.6593656E-013  0.5930197E+02  0.7816164E-02  0.1266605E+00
        -11   -1    0    0    0    0  0.00000000000E+00  0.00000000000E+00  0.45593999997E+02  0.45594000000E+02  0.51100000000E-03 0.  1.
         11   -1    0    0    0    0 -0.00000000000E+00 -0.00000000000E+00 -0.45593999997E+02  0.45594000000E+02  0.51100000000E-03 0. -1.
    9900012    2    1    2    0    0 -0.14485189516E+02  0.21683295302E+02  0.18350286741E+02  0.59301968043E+02  0.50000043798E+02 0.  0.
         12    1    1    2    0    0  0.14485189516E+02 -0.21683295302E+02 -0.18350286741E+02  0.31886031957E+02  0.00000000000E+00 0. -1.
         11    1    3    3    0    0 -0.12255571030E+01 -0.98910184860E+01 -0.19280813221E+01  0.10151440033E+02  0.51100000000E-03 0. -1.
        -11    1    3    3    0    0 -0.51312388005E+01 -0.31347223366E+01 -0.28527471090E+01  0.66553934583E+01  0.51100000000E-03 0.  1.
        -12    1    3    3    0    0 -0.81283936123E+01  0.34709036125E+02  0.23131115172E+02  0.42495134551E+02  0.00000000000E+00 0.  1.
</event>
<event>
 7    1  0.6593656E-013  0.5930195E+02  0.7816164E-02  0.1266605E+00
        -11   -1    0    0    0    0  0.00000000000E+00  0.00000000000E+00  0.45593999997E+02  0.45594000000E+02  0.51100000000E-03 0. -1.
         11   -1    0    0    0    0 -0.00000000000E+00 -0.00000000000E+00 -0.45593999997E+02  0.45594000000E+02  0.51100000000E-03 0.  1.
    9900012    2    1    2    0    0 -0.40528489001E+00  0.28088196324E+02 -0.15086727213E+02  0.59301947146E+02  0.50000005688E+02 0.  0.
         12    1    1    2    0    0  0.40528489001E+00 -0.28088196324E+02  0.15086727213E+02  0.31886052854E+02  0.00000000000E+00 0. -1.
         11    1    3    3    0    0 -0.66195879229E+01 -0.75154193900E+00  0.21310220361E+01  0.69946418589E+01  0.51100000000E-03 0. -1.
        -11    1    3    3    0    0  0.12434138473E+02 -0.52921692023E+01 -0.10149768214E+02  0.16900670090E+02  0.51100000000E-03 0.  1.
        -12    1    3    3    0    0 -0.62198354398E+01  0.34131907465E+02 -0.70679810351E+01  0.35406635198E+02  0.00000000000E+00 0.  1.
</event>
<event>
 7    1  0.6593656E-013  0.5930194E+02  0.7816164E-02  0.1266605E+00
        -11   -1    0    0    0    0  0.00000000000E+00  0.00000000000E+00  0.45593999997E+02  0.45594000000E+02  0.51100000000E-03 0.  1.
         11   -1    0    0    0    0 -0.00000000000E+00 -0.00000000000E+00 -0.45593999997E+02  0.45594000000E+02  0.51100000000E-03 0. -1.
    9900012    2    1    2    0    0  0.25118568298E+02 -0.16327946900E+02  0.10916789205E+02  0.59301943331E+02  0.49999998730E+02 0.  0.
         12    1    1    2    0    0 -0.25118568298E+02  0.16327946900E+02 -0.10916789205E+02  0.31886056669E+02  0.00000000000E+00 0. -1.
         11    1    3    3    0    0  0.73263577384E+01 -0.19250221299E+01  0.50752417202E+01  0.91180758217E+01  0.51100000000E-03 0. -1.
        -11    1    3    3    0    0  0.21293563243E+01 -0.15830343244E+02  0.22292554778E+02  0.27424294419E+02  0.51100000000E-03 0.  1.
         12    1    3    3    0    0  0.15662854235E+02  0.14274184740E+01 -0.16451007293E+02  0.22759573091E+02  0.00000000000E+00 0. -1.
</event>
<event>
 7    1  0.6593656E-013  0.5930197E+02  0.7816164E-02  0.1266605E+00
        -11   -1    0    0    0    0  0.00000000000E+00  0.00000000000E+00  0.45593999997E+02  0.45594000000E+02  0.51100000000E-03 0.  1.
         11   -1    0    0    0    0 -0.00000000000E+00 -0.00000000000E+00 -0.45593999997E+02  0.45594000000E+02  0.51100000000E-03 0. -1.
    9900012    2    1    2    0    0  0.97891011475E+01  0.69491398786E+01  0.29539833162E+02  0.59301971875E+02  0.50000050787E+02 0.  0.
         12    1    1    2    0    0 -0.97891011475E+01 -0.69491398786E+01 -0.29539833162E+02  0.31886028125E+02  0.00000000000E+00 0. -1.
         11    1    3    3    0    0 -0.77593825774E+00 -0.23940211268E+01  0.28834301708E+02  0.28943917713E+02  0.51100000000E-03 0. -1.
        -11    1    3    3    0    0  0.47966421560E+01  0.13488478156E+02  0.10857629501E+02  0.17967608009E+02  0.51100000000E-03 0.  1.
         12    1    3    3    0    0  0.57683972493E+01 -0.41453171505E+01 -0.10152098047E+02  0.12390446152E+02  0.00000000000E+00 0. -1.
</event>
<event>
 7    1  0.6593656E-013  0.5930202E+02  0.7816164E-02  0.1266604E+00
        -11   -1    0    0    0    0  0.00000000000E+00  0.00000000000E+00  0.45593999997E+02  0.45594000000E+02  0.51100000000E-03 0.  1.
         11   -1    0    0    0    0 -0.00000000000E+00 -0.00000000000E+00 -0.45593999997E+02  0.45594000000E+02  0.51100000000E-03 0. -1.
    9900012    2    1    2    0    0  0.67238655168E+00  0.31331076288E+02 -0.58844856995E+01  0.59302021624E+02  0.50000141516E+02 0.  0.
         12    1    1    2    0    0 -0.67238655168E+00 -0.31331076288E+02  0.58844856995E+01  0.31885978376E+02  0.00000000000E+00 0. -1.
         11    1    3    3    0    0 -0.13686211730E+02  0.43605651540E+01 -0.96163077056E+01  0.17285840857E+02  0.51100000000E-03 0. -1.
        -11    1    3    3    0    0  0.31108341270E+01  0.12172443214E+02  0.15548883229E+02  0.19990333482E+02  0.51100000000E-03 0.  1.
        -12    1    3    3    0    0  0.11247764155E+02  0.14798067920E+02 -0.11817061223E+02  0.22025847285E+02  0.00000000000E+00 0.  1.
</event>
<event>
 7    1  0.6593656E-013  0.5930194E+02  0.7816164E-02  0.1266605E+00
        -11   -1    0    0    0    0  0.00000000000E+00  0.00000000000E+00  0.45593999997E+02  0.45594000000E+02  0.51100000000E-03 0. -1.
         11   -1    0    0    0    0 -0.00000000000E+00 -0.00000000000E+00 -0.45593999997E+02  0.45594000000E+02  0.51100000000E-03 0.  1.
    9900012    2    1    2    0    0  0.31810295585E+02 -0.70153665596E+00 -0.20817943487E+01  0.59301938365E+02  0.49999989672E+02 0.  0.
         12    1    1    2    0    0 -0.31810295585E+02  0.70153665596E+00  0.20817943487E+01  0.31886061635E+02  0.00000000000E+00 0. -1.
         11    1    3    3    0    0  0.64608058171E+01 -0.41843732246E+01 -0.24618086108E+01  0.80815526346E+01  0.51100000000E-03 0. -1.
        -11    1    3    3    0    0  0.14148701815E+02 -0.16163650956E+02 -0.12838499081E+02  0.25025515663E+02  0.51100000000E-03 0.  1.
         12    1    3    3    0    0  0.11200787953E+02  0.19646487525E+02  0.13218513343E+02  0.26194870067E+02  0.00000000000E+00 0. -1.
</event>
<event>
 7    1  0.6593656E-013  0.5930197E+02  0.7816164E-02  0.1266605E+00
        -11   -1    0    0    0    0  0.00000000000E+00  0.00000000000E+00  0.45593999997E+02  0.45594000000E+02  0.51100000000E-03 0.  1.
         11   -1    0    0    0    0 -0.00000000000E+00 -0.00000000000E+00 -0.45593999997E+02  0.45594000000E+02  0.51100000000E-03 0. -1.
    9900012    2    1    2    0    0  0.30091569541E+02 -0.95261107253E+01  0.45243500056E+01  0.59301967227E+02  0.50000042310E+02 0.  0.
         12    1    1    2    0    0 -0.30091569541E+02  0.95261107253E+01 -0.45243500056E+01  0.31886032773E+02  0.00000000000E+00 0. -1.
         11    1    3    3    0    0  0.43788694442E+01 -0.17640696982E+01 -0.15614290240E+02  0.16312341937E+02  0.51100000000E-03 0. -1.
        -11    1    3    3    0    0  0.21044103754E+02 -0.92413737217E+01  0.75431916441E+00  0.22996223358E+02  0.51100000000E-03 0.  1.
        -12    1    3    3    0    0  0.46685963435E+01  0.14793326946E+01  0.19384321081E+02  0.19993401932E+02  0.00000000000E+00 0.  1.
</event>
<event>
 7    1  0.6593656E-013  0.5930193E+02  0.7816164E-02  0.1266605E+00
        -11   -1    0    0    0    0  0.00000000000E+00  0.00000000000E+00  0.45593999997E+02  0.45594000000E+02  0.51100000000E-03 0.  1.
         11   -1    0    0    0    0 -0.00000000000E+00 -0.00000000000E+00 -0.45593999997E+02  0.45594000000E+02  0.51100000000E-03 0. -1.
    9900012    2    1    2    0    0 -0.63064249900E+01 -0.94013078489E+01  0.29808825194E+02  0.59301927102E+02  0.49999969132E+02 0.  0.
         12    1    1    2    0    0  0.63064249900E+01  0.94013078489E+01 -0.29808825194E+02  0.31886072898E+02  0.00000000000E+00 0. -1.
         11    1    3    3    0    0  0.57766702388E+01 -0.38791806684E+01 -0.93561793638E+01  0.11660019479E+02  0.51100000000E-03 0. -1.
        -11    1    3    3    0    0  0.40559260951E+01  0.51601779701E+01  0.45586809906E+01  0.79912167914E+01  0.51100000000E-03 0.  1.
        -12    1    3    3    0    0 -0.16139021324E+02 -0.10682305151E+02  0.34606323567E+02  0.39650690832E+02  0.00000000000E+00 0.  1.
</event>
<event>
 7    1  0.6593656E-013  0.5930195E+02  0.7816164E-02  0.1266605E+00
        -11   -1    0    0    0    0  0.00000000000E+00  0.00000000000E+00  0.45593999997E+02  0.45594000000E+02  0.51100000000E-03 0.  1.
         11   -1    0    0    0    0 -0.00000000000E+00 -0.00000000000E+00 -0.45593999997E+02  0.45594000000E+02  0.51100000000E-03 0. -1.
    9900012    2    1    2    0    0  0.95313541935E+01 -0.30408386982E+02 -0.10970672661E+01  0.59301948689E+02  0.50000008502E+02 0.  0.
         12    1    1    2    0    0 -0.95313541935E+01  0.30408386982E+02  0.10970672661E+01  0.31886051311E+02  0.00000000000E+00 0. -1.
         11    1    3    3    0    0  0.85766910487E+01 -0.20976538482E+02 -0.58490826561E+01  0.23404840615E+02  0.51100000000E-03 0. -1.
        -11    1    3    3    0    0  0.16400481712E+00 -0.18722414924E+02  0.13522917186E+02  0.23095995490E+02  0.51100000000E-03 0.  1.
        -12    1    3    3    0    0  0.79065832770E+00  0.92905664249E+01 -0.87709017959E+01  0.12801112584E+02  0.00000000000E+00 0.  1.
</event>
<event>
 7    1  0.6593656E-013  0.5930194E+02  0.7816164E-02  0.1266605E+00
        -11   -1    0    0    0    0  0.00000000000E+00  0.00000000000E+00  0.45593999997E+02  0.45594000000E+02  0.51100000000E-03 0. -1.
         11   -1    0    0    0    0 -0.00000000000E+00 -0.00000000000E+00 -0.45593999997E+02  0.45594000000E+02  0.51100000000E-03 0.  1.
    9900012    2    1    2    0    0 -0.11164488046E+02 -0.29670507206E+02 -0.34257783309E+01  0.59301941159E+02  0.49999994769E+02 0.  0.
         12    1    1    2    0    0  0.11164488046E+02  0.29670507206E+02  0.34257783309E+01  0.31886058841E+02  0.00000000000E+00 0. -1.
         11    1    3    3    0    0  0.52664159710E+01 -0.13559724920E+02  0.19165040332E+01  0.14672227678E+02  0.51100000000E-03 0. -1.
        -11    1    3    3    0    0  0.11770239063E+00 -0.43618799779E+01  0.15163428386E+02  0.15778764573E+02  0.51100000000E-03 0.  1.
        -12    1    3    3    0    0 -0.16548606408E+02 -0.11748902309E+02 -0.20505710750E+02  0.28850948908E+02  0.00000000000E+00 0.  1.
</event>
<event>
 7    1  0.6593656E-013  0.5930193E+02  0.7816164E-02  0.1266605E+00
        -11   -1    0    0    0    0  0.00000000000E+00  0.00000000000E+00  0.45593999997E+02  0.45594000000E+02  0.51100000000E-03 0. -1.
         11   -1    0    0    0    0 -0.00000000000E+00 -0.00000000000E+00 -0.45593999997E+02  0.45594000000E+02  0.51100000000E-03 0.  1.
    9900012    2    1    2    0    0 -0.10825234658E+02  0.27870561100E+02 -0.11080053909E+02  0.59301929748E+02  0.49999973958E+02 0.  0.
         12    1    1    2    0    0  0.10825234658E+02 -0.27870561100E+02  0.11080053909E+02  0.31886070252E+02  0.00000000000E+00 0. -1.
         11    1    3    3    0    0  0.80640749984E+01 -0.44056108399E+01  0.30373629649E+01  0.96780311270E+01  0.51100000000E-03 0. -1.
        -11    1    3    3    0    0 -0.11746982733E+02  0.18014413961E+02 -0.22900202478E+02  0.31415441864E+02  0.51100000000E-03 0.  1.
         12    1    3    3    0    0 -0.71423269238E+01  0.14261757979E+02  0.87827856041E+01  0.18208456758E+02  0.00000000000E+00 0. -1.
</event>
<event>
 7    1  0.6593656E-013  0.5930194E+02  0.7816164E-02  0.1266605E+00
        -11   -1    0    0    0    0  0.00000000000E+00  0.00000000000E+00  0.45593999997E+02  0.45594000000E+02  0.51100000000E-03 0.  1.
         11   -1    0    0    0    0 -0.00000000000E+00 -0.00000000000E+00 -0.45593999997E+02  0.45594000000E+02  0.51100000000E-03 0. -1.
    9900012    2    1    2    0    0  0.33294059578E+01 -0.13158892162E+01  0.31684449132E+02  0.59301939954E+02  0.49999992571E+02 0.  0.
         12    1    1    2    0    0 -0.33294059578E+01  0.13158892162E+01 -0.31684449132E+02  0.31886060046E+02  0.00000000000E+00 0. -1.
         11    1    3    3    0    0  0.13128490936E+02  0.11372456053E+02  0.20405698696E+02  0.26797062720E+02  0.51100000000E-03 0. -1.
        -11    1    3    3    0    0  0.14841600951E+01  0.69480533726E+01 -0.21470092226E+00  0.71080428814E+01  0.51100000000E-03 0.  1.
        -12    1    3    3    0    0 -0.11283245073E+02 -0.19636398642E+02  0.11493451358E+02  0.25396834353E+02  0.00000000000E+00 0.  1.
</event>
<event>
 7    1  0.6593656E-013  0.5930197E+02  0.7816164E-02  0.1266605E+00
        -11   -1    0    0    0    0  0.00000000000E+00  0.00000000000E+00  0.45593999997E+02  0.45594000000E+02  0.51100000000E-03 0.  1.
         11   -1    0    0    0    0 -0.00000000000E+00 -0.00000000000E+00 -0.45593999997E+02  0.45594000000E+02  0.51100000000E-03 0. -1.
    9900012    2    1    2    0    0 -0.24925606225E+02 -0.31374184477E+01 -0.19636436778E+02  0.59301970308E+02  0.50000047929E+02 0.  0.
         12    1    1    2    0    0  0.24925606225E+02  0.31374184477E+01  0.19636436778E+02  0.31886029692E+02  0.00000000000E+00 0. -1.
         11    1    3    3    0    0 -0.12444843844E+02 -0.58315496072E+01 -0.89923566669E+00  0.13772789629E+02  0.51100000000E-03 0.  1.
        -11    1    3    3    0    0  0.14490716499E+00  0.16382076695E+02  0.32645469497E+01  0.16704810743E+02  0.51100000000E-03 0. -1.
         12    1    3    3    0    0 -0.12625669545E+02 -0.13687945535E+02 -0.22001748061E+02  0.28824369936E+02  0.00000000000E+00 0. -1.
</event>
<event>
 7    1  0.6593656E-013  0.5930196E+02  0.7816164E-02  0.1266605E+00
        -11   -1    0    0    0    0  0.00000000000E+00  0.00000000000E+00  0.45593999997E+02  0.45594000000E+02  0.51100000000E-03 0.  1.
         11   -1    0    0    0    0 -0.00000000000E+00 -0.00000000000E+00 -0.45593999997E+02  0.45594000000E+02  0.51100000000E-03 0. -1.
    9900012    2    1    2    0    0 -0.30171918794E+02 -0.10014225310E+02  0.24678403858E+01  0.59301958721E+02  0.50000026797E+02 0.  0.
         12    1    1    2    0    0  0.30171918794E+02  0.10014225310E+02 -0.24678403858E+01  0.31886041279E+02  0.00000000000E+00 0. -1.
         11    1    3    3    0    0 -0.12166684179E+02  0.10371207532E+02 -0.91304241112E+01  0.18410724980E+02  0.51100000000E-03 0. -1.
        -11    1    3    3    0    0  0.61802085360E+01 -0.65734402141E+01 -0.29195124650E+01  0.94830716064E+01  0.51100000000E-03 0.  1.
        -12    1    3    3    0    0 -0.24185443152E+02 -0.13811992627E+02  0.14517776962E+02  0.31408162135E+02  0.00000000000E+00 0.  1.
</event>
<event>
 7    1  0.6593656E-013  0.5930196E+02  0.7816164E-02  0.1266605E+00
        -11   -1    0    0    0    0  0.00000000000E+00  0.00000000000E+00  0.45593999997E+02  0.45594000000E+02  0.51100000000E-03 0.  1.
         11   -1    0    0    0    0 -0.00000000000E+00 -0.00000000000E+00 -0.45593999997E+02  0.45594000000E+02  0.51100000000E-03 0. -1.
    9900012    2    1    2    0    0 -0.63817435846E+01 -0.41986708704E+01  0.30957456901E+02  0.59301958759E+02  0.50000026867E+02 0.  0.
         12    1    1    2    0    0  0.63817435846E+01  0.41986708704E+01 -0.30957456901E+02  0.31886041241E+02  0.00000000000E+00 0. -1.
         11    1    3    3    0    0 -0.34406708758E+01 -0.37124783992E+01  0.60158230174E+01  0.78619869485E+01  0.51100000000E-03 0. -1.
        -11    1    3    3    0    0  0.11904092946E+02  0.53852725559E+01  0.31560537516E+02  0.34158104719E+02  0.51100000000E-03 0.  1.
         12    1    3    3    0    0 -0.14845165655E+02 -0.58714650272E+01 -0.66189036333E+01  0.17281867092E+02  0.00000000000E+00 0. -1.
</event>
<event>
 7    1  0.6593656E-013  0.5930215E+02  0.7816164E-02  0.1266604E+00
        -11   -1    0    0    0    0  0.00000000000E+00  0.00000000000E+00  0.45593999997E+02  0.45594000000E+02  0.51100000000E-03 0. -1.
         11   -1    0    0    0    0 -0.00000000000E+00 -0.00000000000E+00 -0.45593999997E+02  0.45594000000E+02  0.51100000000E-03 0.  1.
    9900012    2    1    2    0    0 -0.64561080273E+01  0.13200826385E+02 -0.28297778071E+02  0.59302150602E+02  0.50000376740E+02 0.  0.
         12    1    1    2    0    0  0.64561080273E+01 -0.13200826385E+02  0.28297778071E+02  0.31885849398E+02  0.00000000000E+00 0. -1.
         11    1    3    3    0    0 -0.39599771102E+01  0.69557140594E+01 -0.12200520334E+02  0.14591643961E+02  0.51100000000E-03 0.  1.
        -11    1    3    3    0    0 -0.87058581662E+01  0.15914027449E+02 -0.24493132880E+02  0.30478874563E+02  0.51100000000E-03 0. -1.
         12    1    3    3    0    0  0.62097272491E+01 -0.96689151240E+01  0.83958751434E+01  0.14231632078E+02  0.00000000000E+00 0. -1.
</event>
<event>
 7    1  0.6593656E-013  0.5930193E+02  0.7816164E-02  0.1266605E+00
        -11   -1    0    0    0    0  0.00000000000E+00  0.00000000000E+00  0.45593999997E+02  0.45594000000E+02  0.51100000000E-03 0.  1.
         11   -1    0    0    0    0 -0.00000000000E+00 -0.00000000000E+00 -0.45593999997E+02  0.45594000000E+02  0.51100000000E-03 0. -1.
    9900012    2    1    2    0    0 -0.34982084516E+01 -0.15185906015E+02  0.27818560097E+02  0.59301929534E+02  0.49999973568E+02 0.  0.
         12    1    1    2    0    0  0.34982084516E+01  0.15185906015E+02 -0.27818560097E+02  0.31886070466E+02  0.00000000000E+00 0. -1.
         11    1    3    3    0    0 -0.51433798699E+01 -0.34392887708E+01 -0.74928898156E+01  0.97173279138E+01  0.51100000000E-03 0. -1.
        -11    1    3    3    0    0  0.15689763469E+02  0.77960006605E+00  0.12955453338E+02  0.20362225454E+02  0.51100000000E-03 0.  1.
        -12    1    3    3    0    0 -0.14044592051E+02 -0.12526217310E+02  0.22355996575E+02  0.29222376167E+02  0.00000000000E+00 0.  1.
</event>
<event>
 7    1  0.6593656E-013  0.5930194E+02  0.7816164E-02  0.1266605E+00
        -11   -1    0    0    0    0  0.00000000000E+00  0.00000000000E+00  0.45593999997E+02  0.45594000000E+02  0.51100000000E-03 0.  1.
         11   -1    0    0    0    0 -0.00000000000E+00 -0.00000000000E+00 -0.45593999997E+02  0.45594000000E+02  0.51100000000E-03 0. -1.
    9900012    2    1    2    0    0 -0.18388614994E+01  0.16507781946E+02  0.27218242065E+02  0.59301937567E+02  0.49999988216E+02 0.  0.
         12    1    1    2    0    0  0.18388614994E+01 -0.16507781946E+02 -0.27218242065E+02  0.31886062433E+02  0.00000000000E+00 0. -1.
         11    1    3    3    0    0 -0.19688193025E+01  0.47058429955E+01  0.43490118573E+01  0.67033657322E+01  0.51100000000E-03 0. -1.
        -11    1    3    3    0    0  0.12699847158E+02  0.19970856863E+02  0.28083914030E+02  0.36726386552E+02  0.51100000000E-03 0.  1.
         12    1    3    3    0    0 -0.12569889355E+02 -0.81689179131E+01 -0.52146838217E+01  0.15872185282E+02  0.00000000000E+00 0. -1.
</event>
<event>
 7    1  0.6593656E-013  0.5930180E+02  0.7816164E-02  0.1266605E+00
        -11   -1    0    0    0    0  0.00000000000E+00  0.00000000000E+00  0.45593999997E+02  0.45594000000E+02  0.51100000000E-03 0. -1.
         11   -1    0    0    0    0 -0.00000000000E+00 -0.00000000000E+00 -0.45593999997E+02  0.45594000000E+02  0.51100000000E-03 0.  1.
    9900012    2    1    2    0    0  0.12315444804E+02 -0.55525697359E+01 -0.28883010772E+02  0.59301803572E+02  0.49999743842E+02 0.  0.
         12    1    1    2    0    0 -0.12315444804E+02  0.55525697359E+01  0.28883010772E+02  0.31886196428E+02  0.00000000000E+00 0. -1.
         11    1    3    3    0    0  0.12807327074E+02  0.52459109409E+01  0.43631059997E+01  0.14511509316E+02  0.51100000000E-03 0. -1.
        -11    1    3    3    0    0  0.94918261485E+01 -0.25274707754E+01 -0.29797515296E+02  0.31374747652E+02  0.51100000000E-03 0.  1.
        -12    1    3    3    0    0 -0.99837084185E+01 -0.82710099013E+01 -0.34486014757E+01  0.13415546605E+02  0.00000000000E+00 0.  1.
</event>
<event>
 7    1  0.6593656E-013  0.5930193E+02  0.7816164E-02  0.1266605E+00
        -11   -1    0    0    0    0  0.00000000000E+00  0.00000000000E+00  0.45593999997E+02  0.45594000000E+02  0.51100000000E-03 0.  1.
         11   -1    0    0    0    0 -0.00000000000E+00 -0.00000000000E+00 -0.45593999997E+02  0.45594000000E+02  0.51100000000E-03 0. -1.
    9900012    2    1    2    0    0  0.89382310273E+01 -0.11701264392E+01  0.30585296501E+02  0.59301928875E+02  0.49999972364E+02 0.  0.
         12    1    1    2    0    0 -0.89382310273E+01  0.11701264392E+01 -0.30585296501E+02  0.31886071125E+02  0.00000000000E+00 0. -1.
         11    1    3    3    0    0  0.16207792683E+02 -0.42206795761E+01  0.42342906553E+01  0.17275297316E+02  0.51100000000E-03 0. -1.
        -11    1    3    3    0    0  0.56224341751E+01  0.25395700349E+01  0.28311963965E+02  0.28976343555E+02  0.51100000000E-03 0.  1.
         12    1    3    3    0    0 -0.12891995831E+02  0.51098310202E+00 -0.19609581198E+01  0.13050288003E+02  0.00000000000E+00 0. -1.
</event>
<event>
 7    1  0.6593656E-013  0.5930195E+02  0.7816164E-02  0.1266605E+00
        -11   -1    0    0    0    0  0.00000000000E+00  0.00000000000E+00  0.45593999997E+02  0.45594000000E+02  0.51100000000E-03 0.  1.
         11   -1    0    0    0    0 -0.00000000000E+00 -0.00000000000E+00 -0.45593999997E+02  0.45594000000E+02  0.51100000000E-03 0. -1.
    9900012    2    1    2    0    0 -0.42840630568E+01 -0.45431771037E+01  0.31268616837E+02  0.59301952058E+02  0.50000014645E+02 0.  0.
         12    1    1    2    0    0  0.42840630568E+01  0.45431771037E+01 -0.31268616837E+02  0.31886047942E+02  0.00000000000E+00 0. -1.
         11    1    3    3    0    0  0.92676664263E+00  0.59940778975E+01  0.25956388501E+02  0.26655617992E+02  0.51100000000E-03 0. -1.
        -11    1    3    3    0    0 -0.11107453193E+02 -0.98930322742E+01  0.15103661001E+02  0.21198306062E+02  0.51100000000E-03 0.  1.
         12    1    3    3    0    0  0.58966234934E+01 -0.64422272689E+00 -0.97914326648E+01  0.11448028004E+02  0.00000000000E+00 0. -1.
</event>
<event>
 7    1  0.6593656E-013  0.5930194E+02  0.7816164E-02  0.1266605E+00
        -11   -1    0    0    0    0  0.00000000000E+00  0.00000000000E+00  0.45593999997E+02  0.45594000000E+02  0.51100000000E-03 0.  1.
         11   -1    0    0    0    0 -0.00000000000E+00 -0.00000000000E+00 -0.45593999997E+02  0.45594000000E+02  0.51100000000E-03 0. -1.
    9900012    2    1    2    0    0  0.45654947427E+01 -0.27392194096E+02  0.15669874937E+02  0.59301936897E+02  0.49999986996E+02 0.  0.
         12    1    1    2    0    0 -0.45654947427E+01  0.27392194096E+02 -0.15669874937E+02  0.31886063103E+02  0.00000000000E+00 0. -1.
         11    1    3    3    0    0  0.12488792731E+02 -0.27030013382E+01  0.47781734802E+01  0.13642107689E+02  0.51100000000E-03 0. -1.
        -11    1    3    3    0    0  0.14375450333E+02 -0.94101109958E+01  0.25424653278E+01  0.17368589219E+02  0.51100000000E-03 0.  1.
        -12    1    3    3    0    0 -0.22298748322E+02 -0.15279081762E+02  0.83492361293E+01  0.28291239990E+02  0.00000000000E+00 0.  1.
</event>
<event>
 7    1  0.6593656E-013  0.5930197E+02  0.7816164E-02  0.1266605E+00
        -11   -1    0    0    0    0  0.00000000000E+00  0.00000000000E+00  0.45593999997E+02  0.45594000000E+02  0.51100000000E-03 0. -1.
         11   -1    0    0    0    0 -0.00000000000E+00 -0.00000000000E+00 -0.45593999997E+02  0.45594000000E+02  0.51100000000E-03 0.  1.
    9900012    2    1    2    0    0 -0.70914261300E+01  0.26383174157E+02  0.16442592933E+02  0.59301967549E+02  0.50000042897E+02 0.  0.
         12    1    1    2    0    0  0.70914261300E+01 -0.26383174157E+02 -0.16442592933E+02  0.31886032451E+02  0.00000000000E+00 0. -1.
         11    1    3    3    0    0  0.92872424508E+01  0.23005820273E+02  0.60460960011E+00  0.24817054455E+02  0.51100000000E-03 0. -1.
        -11    1    3    3    0    0  0.54642010441E+01  0.65825835118E+01  0.42980886948E+01  0.95739994479E+01  0.51100000000E-03 0.  1.
        -12    1    3    3    0    0 -0.21842869625E+02 -0.32052296284E+01  0.11539894638E+02  0.24910913646E+02  0.00000000000E+00 0.  1.
</event>
<event>
 7    1  0.6593656E-013  0.5930191E+02  0.7816164E-02  0.1266605E+00
        -11   -1    0    0    0    0  0.00000000000E+00  0.00000000000E+00  0.45593999997E+02  0.45594000000E+02  0.51100000000E-03 0.  1.
         11   -1    0    0    0    0 -0.00000000000E+00 -0.00000000000E+00 -0.45593999997E+02  0.45594000000E+02  0.51100000000E-03 0. -1.
    9900012    2    1    2    0    0  0.10484149732E+02 -0.26764367267E+02  0.13801225291E+02  0.59301912590E+02  0.49999942665E+02 0.  0.
         12    1    1    2    0    0 -0.10484149732E+02  0.26764367267E+02 -0.13801225291E+02  0.31886087410E+02  0.00000000000E+00 0. -1.
         11    1    3    3    0    0 -0.11370840583E+02 -0.63597945638E+01 -0.28307184908E+01  0.13332515513E+02  0.51100000000E-03 0. -1.
        -11    1    3    3    0    0 -0.76068863608E+01 -0.51029462547E+01  0.81680362779E+00  0.91963008330E+01  0.51100000000E-03 0.  1.
        -12    1    3    3    0    0  0.29461876676E+02 -0.15301626448E+02  0.15815140154E+02  0.36773096244E+02  0.00000000000E+00 0.  1.
</event>
<event>
 7    1  0.6593656E-013  0.5930195E+02  0.7816164E-02  0.1266605E+00
        -11   -1    0    0    0    0  0.00000000000E+00  0.00000000000E+00  0.45593999997E+02  0.45594000000E+02  0.51100000000E-03 0.  1.
         11   -1    0    0    0    0 -0.00000000000E+00 -0.00000000000E+00 -0.45593999997E+02  0.45594000000E+02  0.51100000000E-03 0. -1.
    9900012    2    1    2    0    0 -0.30721695911E+02 -0.78357497655E+01  0.33909437061E+01  0.59301951746E+02  0.50000014076E+02 0.  0.
         12    1    1    2    0    0  0.30721695911E+02  0.78357497655E+01 -0.33909437061E+01  0.31886048254E+02  0.00000000000E+00 0. -1.
         11    1    3    3    0    0 -0.37390768812E+01  0.50094913933E+01 -0.68228733583E+00  0.62881806759E+01  0.51100000000E-03 0. -1.
        -11    1    3    3    0    0 -0.24329160408E+02 -0.10638498646E+02 -0.17085580719E+02  0.31575350645E+02  0.51100000000E-03 0.  1.
         12    1    3    3    0    0 -0.26534586223E+01 -0.22067425125E+01  0.21158811761E+02  0.21438420425E+02  0.00000000000E+00 0. -1.
</event>
<event>
 7    1  0.6593656E-013  0.5930206E+02  0.7816164E-02  0.1266604E+00
        -11   -1    0    0    0    0  0.00000000000E+00  0.00000000000E+00  0.45593999997E+02  0.45594000000E+02  0.51100000000E-03 0.  1.
         11   -1    0    0    0    0 -0.00000000000E+00 -0.00000000000E+00 -0.45593999997E+02  0.45594000000E+02  0.51100000000E-03 0. -1.
    9900012    2    1    2    0    0  0.29169698092E+02  0.39498437348E+01  0.12257280036E+02  0.59302055350E+02  0.50000203026E+02 0.  0.
         12    1    1    2    0    0 -0.29169698092E+02 -0.39498437348E+01 -0.12257280036E+02  0.31885944650E+02  0.00000000000E+00 0. -1.
         11    1    3    3    0    0  0.13193988115E+02 -0.19475520399E+01 -0.26082442190E+01  0.13589599681E+02  0.51100000000E-03 0. -1.
        -11    1    3    3    0    0  0.26220537736E+02 -0.58100976455E+01  0.50772913573E+01  0.27332265212E+02  0.51100000000E-03 0.  1.
        -12    1    3    3    0    0 -0.10244827759E+02  0.11707493420E+02  0.97882328981E+01  0.18380190458E+02  0.00000000000E+00 0.  1.
</event>
<event>
 7    1  0.6593656E-013  0.5930194E+02  0.7816164E-02  0.1266605E+00
        -11   -1    0    0    0    0  0.00000000000E+00  0.00000000000E+00  0.45593999997E+02  0.45594000000E+02  0.51100000000E-03 0.  1.
         11   -1    0    0    0    0 -0.00000000000E+00 -0.00000000000E+00 -0.45593999997E+02  0.45594000000E+02  0.51100000000E-03 0. -1.
    9900012    2    1    2    0    0 -0.42087778105E+01 -0.30010761012E+02  0.99177141665E+01  0.59301942836E+02  0.49999997826E+02 0.  0.
         12    1    1    2    0    0  0.42087778105E+01  0.30010761012E+02 -0.99177141665E+01  0.31886057164E+02  0.00000000000E+00 0. -1.
         11    1    3    3    0    0  0.54728633000E+01 -0.23685231870E+02  0.44522345462E+01  0.24713656835E+02  0.51100000000E-03 0. -1.
        -11    1    3    3    0    0  0.32977097851E+01 -0.16601918608E+02  0.61766276432E+01  0.18018027655E+02  0.51100000000E-03 0.  1.
         12    1    3    3    0    0 -0.12979350896E+02  0.10276389466E+02 -0.71114802292E+00  0.16570258345E+02  0.00000000000E+00 0. -1.
</event>
<event>
 7    1  0.6593656E-013  0.5930190E+02  0.7816164E-02  0.1266605E+00
        -11   -1    0    0    0    0  0.00000000000E+00  0.00000000000E+00  0.45593999997E+02  0.45594000000E+02  0.51100000000E-03 0.  1.
         11   -1    0    0    0    0 -0.00000000000E+00 -0.00000000000E+00 -0.45593999997E+02  0.45594000000E+02  0.51100000000E-03 0. -1.
    9900012    2    1    2    0    0 -0.28758252372E+02  0.68625240644E+01  0.11941198209E+02  0.59301897530E+02  0.49999915200E+02 0.  0.
         12    1    1    2    0    0  0.28758252372E+02 -0.68625240644E+01 -0.11941198209E+02  0.31886102470E+02  0.00000000000E+00 0. -1.
         11    1    3    3    0    0  0.20833264577E+00  0.13301725575E+02 -0.61146285457E+01  0.14641311016E+02  0.51100000000E-03 0. -1.
        -11    1    3    3    0    0 -0.86600363396E+01  0.10895901577E+02  0.84677922868E+01  0.16291728179E+02  0.51100000000E-03 0.  1.
         12    1    3    3    0    0 -0.20306548678E+02 -0.17335103088E+02  0.95880344680E+01  0.28368858335E+02  0.00000000000E+00 0. -1.
</event>
<event>
 7    1  0.6593656E-013  0.5930195E+02  0.7816164E-02  0.1266605E+00
        -11   -1    0    0    0    0  0.00000000000E+00  0.00000000000E+00  0.45593999997E+02  0.45594000000E+02  0.51100000000E-03 0.  1.
         11   -1    0    0    0    0 -0.00000000000E+00 -0.00000000000E+00 -0.45593999997E+02  0.45594000000E+02  0.51100000000E-03 0. -1.
    9900012    2    1    2    0    0  0.48256386097E+00  0.20718618965E+01  0.31815009297E+02  0.59301948251E+02  0.50000007702E+02 0.  0.
         12    1    1    2    0    0 -0.48256386097E+00 -0.20718618965E+01 -0.31815009297E+02  0.31886051749E+02  0.00000000000E+00 0. -1.
         11    1    3    3    0    0  0.96493824241E+01 -0.65920017246E+01  0.42974516410E+01  0.12451231215E+02  0.51100000000E-03 0. -1.
        -11    1    3    3    0    0  0.25130118013E-01  0.61331952110E+01  0.34495174210E+02  0.35036177860E+02  0.51100000000E-03 0.  1.
         12    1    3    3    0    0 -0.91919486811E+01  0.25306684101E+01 -0.69776165542E+01  0.11814539176E+02  0.00000000000E+00 0. -1.
</event>
<event>
 7    1  0.6593656E-013  0.5930195E+02  0.7816164E-02  0.1266605E+00
        -11   -1    0    0    0    0  0.00000000000E+00  0.00000000000E+00  0.45593999997E+02  0.45594000000E+02  0.51100000000E-03 0. -1.
         11   -1    0    0    0    0 -0.00000000000E+00 -0.00000000000E+00 -0.45593999997E+02  0.45594000000E+02  0.51100000000E-03 0.  1.
    9900012    2    1    2    0    0  0.28319126776E+02  0.86216045908E+01  0.11849688573E+02  0.59301950913E+02  0.50000012558E+02 0.  0.
         12    1    1    2    0    0 -0.28319126776E+02 -0.86216045908E+01 -0.11849688573E+02  0.31886049087E+02  0.00000000000E+00 0. -1.
         11    1    3    3    0    0 -0.54295641083E+01  0.47244094041E+01 -0.49451714279E+01  0.87324069612E+01  0.51100000000E-03 0. -1.
        -11    1    3    3    0    0 -0.16224811792E+01 -0.35095767302E+01  0.13772605047E+02  0.14305041910E+02  0.51100000000E-03 0.  1.
        -12    1    3    3    0    0  0.35371172064E+02  0.74067719169E+01  0.30222549536E+01  0.36264502042E+02  0.00000000000E+00 0.  1.
</event>
<event>
 7    1  0.6593656E-013  0.5930194E+02  0.7816164E-02  0.1266605E+00
        -11   -1    0    0    0    0  0.00000000000E+00  0.00000000000E+00  0.45593999997E+02  0.45594000000E+02  0.51100000000E-03 0.  1.
         11   -1    0    0    0    0 -0.00000000000E+00 -0.00000000000E+00 -0.45593999997E+02  0.45594000000E+02  0.51100000000E-03 0. -1.
    9900012    2    1    2    0    0 -0.54661491349E+01  0.11584456095E+02  0.29200041912E+02  0.59301939455E+02  0.49999991661E+02 0.  0.
         12    1    1    2    0    0  0.54661491349E+01 -0.11584456095E+02 -0.29200041912E+02  0.31886060545E+02  0.00000000000E+00 0. -1.
         11    1    3    3    0    0 -0.99646206693E+01 -0.19598771618E+01 -0.10959778346E+01  0.10214497112E+02  0.51100000000E-03 0. -1.
        -11    1    3    3    0    0  0.90051818399E-01  0.24487047166E+02  0.11880280818E+02  0.27216992134E+02  0.51100000000E-03 0.  1.
         12    1    3    3    0    0  0.44084197159E+01 -0.10942713909E+02  0.18415738929E+02  0.21870450209E+02  0.00000000000E+00 0. -1.
</event>
<event>
 7    1  0.6593656E-013  0.5930196E+02  0.7816164E-02  0.1266605E+00
        -11   -1    0    0    0    0  0.00000000000E+00  0.00000000000E+00  0.45593999997E+02  0.45594000000E+02  0.51100000000E-03 0.  1.
         11   -1    0    0    0    0 -0.00000000000E+00 -0.00000000000E+00 -0.45593999997E+02  0.45594000000E+02  0.51100000000E-03 0. -1.
    9900012    2    1    2    0    0 -0.67586501665E+00 -0.63315950653E+01  0.31243778400E+02  0.59301959508E+02  0.50000028232E+02 0.  0.
         12    1    1    2    0    0  0.67586501665E+00  0.63315950653E+01 -0.31243778400E+02  0.31886040492E+02  0.00000000000E+00 0. -1.
         11    1    3    3    0    0  0.23386578752E+01  0.17828838721E+02  0.10426227154E+02  0.20785644655E+02  0.51100000000E-03 0. -1.
        -11    1    3    3    0    0 -0.14430355388E+01  0.27851356463E+01  0.80857206397E+01  0.86728432857E+01  0.51100000000E-03 0.  1.
         12    1    3    3    0    0 -0.15714873530E+01 -0.26945569433E+02  0.12731830606E+02  0.29843471567E+02  0.00000000000E+00 0. -1.
</event>
<event>
 7    1  0.6593656E-013  0.5930194E+02  0.7816164E-02  0.1266605E+00
        -11   -1    0    0    0    0  0.00000000000E+00  0.00000000000E+00  0.45593999997E+02  0.45594000000E+02  0.51100000000E-03 0. -1.
         11   -1    0    0    0    0 -0.00000000000E+00 -0.00000000000E+00 -0.45593999997E+02  0.45594000000E+02  0.51100000000E-03 0.  1.
    9900012    2    1    2    0    0 -0.29759014262E+02  0.79934123203E+01 -0.81992189747E+01  0.59301940943E+02  0.49999994374E+02 0.  0.
         12    1    1    2    0    0  0.29759014262E+02 -0.79934123203E+01  0.81992189747E+01  0.31886059057E+02  0.00000000000E+00 0. -1.
         11    1    3    3    0    0 -0.26717849477E+02  0.16313528226E+02 -0.69620182573E+01  0.32069368287E+02  0.51100000000E-03 0. -1.
        -11    1    3    3    0    0 -0.11060559032E+02  0.46077802381E+01 -0.89851348418E+00  0.12015611993E+02  0.51100000000E-03 0.  1.
         12    1    3    3    0    0  0.80193942466E+01 -0.12927896143E+02 -0.33868723321E+00  0.15216960663E+02  0.00000000000E+00 0. -1.
</event>
<event>
 7    1  0.6593656E-013  0.5930198E+02  0.7816164E-02  0.1266605E+00
        -11   -1    0    0    0    0  0.00000000000E+00  0.00000000000E+00  0.45593999997E+02  0.45594000000E+02  0.51100000000E-03 0. -1.
         11   -1    0    0    0    0 -0.00000000000E+00 -0.00000000000E+00 -0.45593999997E+02  0.45594000000E+02  0.51100000000E-03 0.  1.
    9900012    2    1    2    0    0  0.20819881644E+02 -0.49920820966E+01  0.23629008413E+02  0.59301978080E+02  0.50000062103E+02 0.  0.
         12    1    1    2    0    0 -0.20819881644E+02  0.49920820966E+01 -0.23629008413E+02  0.31886021920E+02  0.00000000000E+00 0. -1.
         11    1    3    3    0    0 -0.34701922598E+01  0.31530976313E+01  0.57784531496E+01  0.74414232547E+01  0.51100000000E-03 0. -1.
        -11    1    3    3    0    0  0.18589614995E+02  0.15462746167E+02  0.11397250236E+02  0.26731397605E+02  0.51100000000E-03 0.  1.
         12    1    3    3    0    0  0.57004589085E+01 -0.23607925895E+02  0.64533050269E+01  0.25129157220E+02  0.00000000000E+00 0. -1.
</event>
<event>
 7    1  0.6593656E-013  0.5930202E+02  0.7816164E-02  0.1266604E+00
        -11   -1    0    0    0    0  0.00000000000E+00  0.00000000000E+00  0.45593999997E+02  0.45594000000E+02  0.51100000000E-03 0. -1.
         11   -1    0    0    0    0 -0.00000000000E+00 -0.00000000000E+00 -0.45593999997E+02  0.45594000000E+02  0.51100000000E-03 0.  1.
    9900012    2    1    2    0    0  0.94890345741E+01 -0.29568083837E+02 -0.72389382031E+01  0.59302022122E+02  0.50000142424E+02 0.  0.
         12    1    1    2    0    0 -0.94890345741E+01  0.29568083837E+02  0.72389382031E+01  0.31885977878E+02  0.00000000000E+00 0. -1.
         11    1    3    3    0    0  0.13128338973E+02 -0.14303172475E+02  0.14508111105E+02  0.24236734828E+02  0.51100000000E-03 0. -1.
        -11    1    3    3    0    0 -0.45383326463E+01 -0.16741680682E+02 -0.47554505882E+01  0.17985956906E+02  0.51100000000E-03 0.  1.
        -12    1    3    3    0    0  0.89902824711E+00  0.14767693199E+01 -0.16991598720E+02  0.17079330387E+02  0.00000000000E+00 0.  1.
</event>
<event>
 7    1  0.6593656E-013  0.5930196E+02  0.7816164E-02  0.1266605E+00
        -11   -1    0    0    0    0  0.00000000000E+00  0.00000000000E+00  0.45593999997E+02  0.45594000000E+02  0.51100000000E-03 0. -1.
         11   -1    0    0    0    0 -0.00000000000E+00 -0.00000000000E+00 -0.45593999997E+02  0.45594000000E+02  0.51100000000E-03 0.  1.
    9900012    2    1    2    0    0  0.21683172517E+02  0.16037264218E+02 -0.17010749852E+02  0.59301961919E+02  0.50000032629E+02 0.  0.
         12    1    1    2    0    0 -0.21683172517E+02 -0.16037264218E+02  0.17010749852E+02  0.31886038081E+02  0.00000000000E+00 0. -1.
         11    1    3    3    0    0 -0.44606928681E+01  0.17504469180E+01 -0.28454316952E+01  0.55729998267E+01  0.51100000000E-03 0. -1.
        -11    1    3    3    0    0  0.25082352331E+02  0.28095993308E+02 -0.76903225756E+01  0.38440217221E+02  0.51100000000E-03 0.  1.
         12    1    3    3    0    0  0.10615130540E+01 -0.13809176008E+02 -0.64749955808E+01  0.15288744871E+02  0.00000000000E+00 0. -1.
</event>
<event>
 7    1  0.6593656E-013  0.5930195E+02  0.7816164E-02  0.1266605E+00
        -11   -1    0    0    0    0  0.00000000000E+00  0.00000000000E+00  0.45593999997E+02  0.45594000000E+02  0.51100000000E-03 0.  1.
         11   -1    0    0    0    0 -0.00000000000E+00 -0.00000000000E+00 -0.45593999997E+02  0.45594000000E+02  0.51100000000E-03 0. -1.
    9900012    2    1    2    0    0  0.16273376369E+02  0.21561294145E+02 -0.16941308660E+02  0.59301950969E+02  0.50000012659E+02 0.  0.
         12    1    1    2    0    0 -0.16273376369E+02 -0.21561294145E+02  0.16941308660E+02  0.31886049031E+02  0.00000000000E+00 0. -1.
         11    1    3    3    0    0  0.93104495791E+01 -0.63033407727E+01 -0.13195147369E+02  0.17335757572E+02  0.51100000000E-03 0. -1.
        -11    1    3    3    0    0  0.64308787569E+01  0.72693518370E+00 -0.11967634246E+02  0.13605473386E+02  0.51100000000E-03 0.  1.
        -12    1    3    3    0    0  0.53204803347E+00  0.27137699734E+02  0.82214729542E+01  0.28360720011E+02  0.00000000000E+00 0.  1.
</event>
<event>
 7    1  0.6593656E-013  0.5930194E+02  0.7816164E-02  0.1266605E+00
        -11   -1    0    0    0    0  0.00000000000E+00  0.00000000000E+00  0.45593999997E+02  0.45594000000E+02  0.51100000000E-03 0.  1.
         11   -1    0    0    0    0 -0.00000000000E+00 -0.00000000000E+00 -0.45593999997E+02  0.45594000000E+02  0.51100000000E-03 0. -1.
    9900012    2    1    2    0    0  0.14161077041E+02 -0.26288645861E+02  0.11184445554E+02  0.59301939934E+02  0.49999992535E+02 0.  0.
         12    1    1    2    0    0 -0.14161077041E+02  0.26288645861E+02 -0.11184445554E+02  0.31886060066E+02  0.00000000000E+00 0. -1.
         11    1    3    3    0    0  0.20297793451E+02 -0.14199715782E+02 -0.10105882156E+02  0.26753713792E+02  0.51100000000E-03 0. -1.
        -11    1    3    3    0    0 -0.25419451563E+01  0.58141985477E+01  0.59630420060E+01  0.87077126822E+01  0.51100000000E-03 0.  1.
        -12    1    3    3    0    0 -0.35947712536E+01 -0.17903128626E+02  0.15327285704E+02  0.23840513460E+02  0.00000000000E+00 0.  1.
</event>
<event>
 7    1  0.6593656E-013  0.5930195E+02  0.7816164E-02  0.1266605E+00
        -11   -1    0    0    0    0  0.00000000000E+00  0.00000000000E+00  0.45593999997E+02  0.45594000000E+02  0.51100000000E-03 0.  1.
         11   -1    0    0    0    0 -0.00000000000E+00 -0.00000000000E+00 -0.45593999997E+02  0.45594000000E+02  0.51100000000E-03 0. -1.
    9900012    2    1    2    0    0  0.15760308755E+02 -0.22853011999E+02  0.15686694672E+02  0.59301954789E+02  0.50000019625E+02 0.  0.
         12    1    1    2    0    0 -0.15760308755E+02  0.22853011999E+02 -0.15686694672E+02  0.31886045211E+02  0.00000000000E+00 0. -1.
         11    1    3    3    0    0  0.21472418631E+02 -0.14602371919E+02 -0.87447712184E+01  0.27400092179E+02  0.51100000000E-03 0. -1.
        -11    1    3    3    0    0 -0.60573894326E+01  0.39575531891E+01  0.44834920761E+01  0.85121028800E+01  0.51100000000E-03 0.  1.
        -12    1    3    3    0    0  0.34527955677E+00 -0.12208193269E+02  0.19947973815E+02  0.23389759729E+02  0.00000000000E+00 0.  1.
</event>
<event>
 7    1  0.6593656E-013  0.5930196E+02  0.7816164E-02  0.1266605E+00
        -11   -1    0    0    0    0  0.00000000000E+00  0.00000000000E+00  0.45593999997E+02  0.45594000000E+02  0.51100000000E-03 0.  1.
         11   -1    0    0    0    0 -0.00000000000E+00 -0.00000000000E+00 -0.45593999997E+02  0.45594000000E+02  0.51100000000E-03 0. -1.
    9900012    2    1    2    0    0  0.40454200086E+01 -0.15676939847E+02  0.27469754083E+02  0.59301964571E+02  0.50000037466E+02 0.  0.
         12    1    1    2    0    0 -0.40454200086E+01  0.15676939847E+02 -0.27469754083E+02  0.31886035429E+02  0.00000000000E+00 0. -1.
         11    1    3    3    0    0 -0.30586948840E+01 -0.27273957510E+01  0.18322942104E+01  0.44890538324E+01  0.51100000000E-03 0. -1.
        -11    1    3    3    0    0  0.17941251850E+02  0.11241154971E+02  0.65970521399E+01  0.22175959511E+02  0.51100000000E-03 0.  1.
         12    1    3    3    0    0 -0.10837136958E+02 -0.24190699067E+02  0.19040407733E+02  0.32636951227E+02  0.00000000000E+00 0. -1.
</event>
<event>
 7    1  0.6593656E-013  0.5930195E+02  0.7816164E-02  0.1266605E+00
        -11   -1    0    0    0    0  0.00000000000E+00  0.00000000000E+00  0.45593999997E+02  0.45594000000E+02  0.51100000000E-03 0. -1.
         11   -1    0    0    0    0 -0.00000000000E+00 -0.00000000000E+00 -0.45593999997E+02  0.45594000000E+02  0.51100000000E-03 0.  1.
    9900012    2    1    2    0    0 -0.16832194288E+01  0.30017530592E+02 -0.10622369421E+02  0.59301951286E+02  0.50000013237E+02 0.  0.
         12    1    1    2    0    0  0.16832194288E+01 -0.30017530592E+02  0.10622369421E+02  0.31886048714E+02  0.00000000000E+00 0. -1.
         11    1    3    3    0    0 -0.18999515289E+00 -0.33909764862E+01  0.81654937893E+01  0.88436479336E+01  0.51100000000E-03 0. -1.
        -11    1    3    3    0    0 -0.16538044437E+02  0.11109008707E+02 -0.75562425442E+01  0.21307599346E+02  0.51100000000E-03 0.  1.
        -12    1    3    3    0    0  0.15044820161E+02  0.22299498371E+02 -0.11231620666E+02  0.29150704006E+02  0.00000000000E+00 0.  1.
</event>
<event>
 7    1  0.6593656E-013  0.5930195E+02  0.7816164E-02  0.1266605E+00
        -11   -1    0    0    0    0  0.00000000000E+00  0.00000000000E+00  0.45593999997E+02  0.45594000000E+02  0.51100000000E-03 0. -1.
         11   -1    0    0    0    0 -0.00000000000E+00 -0.00000000000E+00 -0.45593999997E+02  0.45594000000E+02  0.51100000000E-03 0.  1.
    9900012    2    1    2    0    0  0.23336660813E+02 -0.27254362618E+01 -0.21556728559E+02  0.59301948396E+02  0.50000007966E+02 0.  0.
         12    1    1    2    0    0 -0.23336660813E+02  0.27254362618E+01  0.21556728559E+02  0.31886051604E+02  0.00000000000E+00 0. -1.
         11    1    3    3    0    0  0.19390971293E+02  0.35838808979E+00 -0.34952719618E+01  0.19706728193E+02  0.51100000000E-03 0. -1.
        -11    1    3    3    0    0 -0.82044261413E+01  0.19000524991E+01  0.72287702909E+01  0.11098555221E+02  0.51100000000E-03 0.  1.
        -12    1    3    3    0    0  0.12150115662E+02 -0.49838768506E+01 -0.25290226888E+02  0.28496664982E+02  0.00000000000E+00 0.  1.
</event>
<event>
 7    1  0.6593656E-013  0.5930193E+02  0.7816164E-02  0.1266605E+00
        -11   -1    0    0    0    0  0.00000000000E+00  0.00000000000E+00  0.45593999997E+02  0.45594000000E+02  0.51100000000E-03 0.  1.
         11   -1    0    0    0    0 -0.00000000000E+00 -0.00000000000E+00 -0.45593999997E+02  0.45594000000E+02  0.51100000000E-03 0. -1.
    9900012    2    1    2    0    0  0.79578024773E+01 -0.26233366374E+02 -0.16285127023E+02  0.59301929472E+02  0.49999973454E+02 0.  0.
         12    1    1    2    0    0 -0.79578024773E+01  0.26233366374E+02  0.16285127023E+02  0.31886070528E+02  0.00000000000E+00 0. -1.
         11    1    3    3    0    0 -0.63142253227E+01 -0.96348509275E+01 -0.57538139778E+01  0.12876574442E+02  0.51100000000E-03 0. -1.
        -11    1    3    3    0    0 -0.70237863307E+01 -0.81153998452E+01  0.10718147386E+02  0.15168123572E+02  0.51100000000E-03 0.  1.
        -12    1    3    3    0    0  0.21295814131E+02 -0.84831156012E+01 -0.21249460430E+02  0.31257231457E+02  0.00000000000E+00 0.  1.
</event>
<event>
 7    1  0.6593656E-013  0.5930193E+02  0.7816164E-02  0.1266605E+00
        -11   -1    0    0    0    0  0.00000000000E+00  0.00000000000E+00  0.45593999997E+02  0.45594000000E+02  0.51100000000E-03 0.  1.
         11   -1    0    0    0    0 -0.00000000000E+00 -0.00000000000E+00 -0.45593999997E+02  0.45594000000E+02  0.51100000000E-03 0. -1.
    9900012    2    1    2    0    0  0.46175154769E+01  0.28441216653E+02  0.13656391658E+02  0.59301932714E+02  0.49999979366E+02 0.  0.
         12    1    1    2    0    0 -0.46175154769E+01 -0.28441216653E+02 -0.13656391658E+02  0.31886067286E+02  0.00000000000E+00 0. -1.
         11    1    3    3    0    0  0.78380164889E+01  0.63594955316E+01  0.23668434092E+01  0.10367238489E+02  0.51100000000E-03 0. -1.
        -11    1    3    3    0    0  0.56727860389E+01  0.32364269619E+02  0.29594660780E+01  0.32990678823E+02  0.51100000000E-03 0.  1.
         12    1    3    3    0    0 -0.88932870509E+01 -0.10282548498E+02  0.83300821707E+01  0.15944015403E+02  0.00000000000E+00 0. -1.
</event>
<event>
 7    1  0.6593656E-013  0.5930203E+02  0.7816164E-02  0.1266604E+00
        -11   -1    0    0    0    0  0.00000000000E+00  0.00000000000E+00  0.45593999997E+02  0.45594000000E+02  0.51100000000E-03 0. -1.
         11   -1    0    0    0    0 -0.00000000000E+00 -0.00000000000E+00 -0.45593999997E+02  0.45594000000E+02  0.51100000000E-03 0.  1.
    9900012    2    1    2    0    0  0.16285752001E+02 -0.27024861487E+02 -0.45984824346E+01  0.59302032909E+02  0.50000162098E+02 0.  0.
         12    1    1    2    0    0 -0.16285752001E+02  0.27024861487E+02  0.45984824346E+01  0.31885967091E+02  0.00000000000E+00 0. -1.
         11    1    3    3    0    0 -0.69299163917E-01  0.18980157344E+01 -0.44360949701E+01  0.48255781982E+01  0.51100000000E-03 0. -1.
        -11    1    3    3    0    0  0.46235908883E+01 -0.90879944670E+01 -0.21040305926E+02  0.23380840657E+02  0.51100000000E-03 0.  1.
         12    1    3    3    0    0  0.11731460277E+02 -0.19834882754E+02  0.20877918461E+02  0.31095614054E+02  0.00000000000E+00 0. -1.
</event>
<event>
 7    1  0.6593656E-013  0.5930193E+02  0.7816164E-02  0.1266605E+00
        -11   -1    0    0    0    0  0.00000000000E+00  0.00000000000E+00  0.45593999997E+02  0.45594000000E+02  0.51100000000E-03 0.  1.
         11   -1    0    0    0    0 -0.00000000000E+00 -0.00000000000E+00 -0.45593999997E+02  0.45594000000E+02  0.51100000000E-03 0. -1.
    9900012    2    1    2    0    0 -0.29556231825E+02 -0.11954584895E+02 -0.48853889232E+00  0.59301927649E+02  0.49999970129E+02 0.  0.
         12    1    1    2    0    0  0.29556231825E+02  0.11954584895E+02  0.48853889232E+00  0.31886072351E+02  0.00000000000E+00 0. -1.
         11    1    3    3    0    0 -0.35018787190E+02 -0.51539523576E+01 -0.95459505403E+01  0.36660658111E+02  0.51100000000E-03 0. -1.
        -11    1    3    3    0    0 -0.68401322230E+01 -0.34477775172E+01  0.54123583565E+01  0.93791365209E+01  0.51100000000E-03 0.  1.
         12    1    3    3    0    0  0.12302687588E+02 -0.33528550200E+01  0.36450532914E+01  0.13262133017E+02  0.00000000000E+00 0. -1.
</event>
<event>
 7    1  0.6593656E-013  0.5930195E+02  0.7816164E-02  0.1266605E+00
        -11   -1    0    0    0    0  0.00000000000E+00  0.00000000000E+00  0.45593999997E+02  0.45594000000E+02  0.51100000000E-03 0. -1.
         11   -1    0    0    0    0 -0.00000000000E+00 -0.00000000000E+00 -0.45593999997E+02  0.45594000000E+02  0.51100000000E-03 0.  1.
    9900012    2    1    2    0    0  0.36082491023E+01  0.31152027237E+02  0.57664422230E+01  0.59301951037E+02  0.50000012783E+02 0.  0.
         12    1    1    2    0    0 -0.36082491023E+01 -0.31152027237E+02 -0.57664422230E+01  0.31886048963E+02  0.00000000000E+00 0. -1.
         11    1    3    3    0    0  0.19631036059E+01  0.77144398514E+00  0.91502289826E+01  0.93901859558E+01  0.51100000000E-03 0. -1.
        -11    1    3    3    0    0  0.17852647112E+02  0.25499309675E+02  0.41149847480E+01  0.31398485673E+02  0.51100000000E-03 0.  1.
        -12    1    3    3    0    0 -0.16207501615E+02  0.48812735765E+01 -0.74987715075E+01  0.18513279409E+02  0.00000000000E+00 0.  1.
</event>
<event>
 7    1  0.6593656E-013  0.5930194E+02  0.7816164E-02  0.1266605E+00
        -11   -1    0    0    0    0  0.00000000000E+00  0.00000000000E+00  0.45593999997E+02  0.45594000000E+02  0.51100000000E-03 0.  1.
         11   -1    0    0    0    0 -0.00000000000E+00 -0.00000000000E+00 -0.45593999997E+02  0.45594000000E+02  0.51100000000E-03 0. -1.
    9900012    2    1    2    0    0 -0.24759372705E+02  0.17376088967E+02  0.10087899590E+02  0.59301941562E+02  0.49999995504E+02 0.  0.
         12    1    1    2    0    0  0.24759372705E+02 -0.17376088967E+02 -0.10087899590E+02  0.31886058438E+02  0.00000000000E+00 0. -1.
         11    1    3    3    0    0 -0.10609934190E+02  0.22292519010E+02 -0.70801599827E+01  0.25683764774E+02  0.51100000000E-03 0. -1.
        -11    1    3    3    0    0  0.45618847408E+01  0.11161183250E+01  0.12582969523E+02  0.13430846391E+02  0.51100000000E-03 0.  1.
         12    1    3    3    0    0 -0.18711323256E+02 -0.60325483673E+01  0.45850900497E+01  0.20187330397E+02  0.00000000000E+00 0. -1.
</event>
<event>
 7    1  0.6593656E-013  0.5930194E+02  0.7816164E-02  0.1266605E+00
        -11   -1    0    0    0    0  0.00000000000E+00  0.00000000000E+00  0.45593999997E+02  0.45594000000E+02  0.51100000000E-03 0.  1.
         11   -1    0    0    0    0 -0.00000000000E+00 -0.00000000000E+00 -0.45593999997E+02  0.45594000000E+02  0.51100000000E-03 0. -1.
    9900012    2    1    2    0    0  0.63033081322E+01  0.16841589403E+02  0.26331543558E+02  0.59301937007E+02  0.49999987196E+02 0.  0.
         12    1    1    2    0    0 -0.63033081322E+01 -0.16841589403E+02 -0.26331543558E+02  0.31886062993E+02  0.00000000000E+00 0. -1.
         11    1    3    3    0    0  0.39036583589E+00 -0.92380844319E+01 -0.77396634826E+01  0.12058067032E+02  0.51100000000E-03 0. -1.
        -11    1    3    3    0    0 -0.27566496977E+01  0.21462439054E+02  0.16878108211E+02  0.27442775821E+02  0.51100000000E-03 0.  1.
        -12    1    3    3    0    0  0.86695919940E+01  0.46172347813E+01  0.17193098829E+02  0.19801094155E+02  0.00000000000E+00 0.  1.
</event>
<event>
 7    1  0.6593656E-013  0.5930192E+02  0.7816164E-02  0.1266605E+00
        -11   -1    0    0    0    0  0.00000000000E+00  0.00000000000E+00  0.45593999997E+02  0.45594000000E+02  0.51100000000E-03 0.  1.
         11   -1    0    0    0    0 -0.00000000000E+00 -0.00000000000E+00 -0.45593999997E+02  0.45594000000E+02  0.51100000000E-03 0. -1.
    9900012    2    1    2    0    0  0.73287569321E+01  0.28326619168E+02 -0.12673351730E+02  0.59301923481E+02  0.49999962528E+02 0.  0.
         12    1    1    2    0    0 -0.73287569321E+01 -0.28326619168E+02  0.12673351730E+02  0.31886076519E+02  0.00000000000E+00 0. -1.
         11    1    3    3    0    0  0.89202446452E+01  0.15858238732E+02 -0.16874353406E+02  0.24815283664E+02  0.51100000000E-03 0. -1.
        -11    1    3    3    0    0  0.55630755721E+01  0.21311456041E+02  0.63237175134E+01  0.22915395957E+02  0.51100000000E-03 0.  1.
        -12    1    3    3    0    0 -0.71545632852E+01 -0.88430756041E+01 -0.21227158373E+01  0.11571243860E+02  0.00000000000E+00 0.  1.
</event>
<event>
 7    1  0.6593656E-013  0.5930169E+02  0.7816164E-02  0.1266606E+00
        -11   -1    0    0    0    0  0.00000000000E+00  0.00000000000E+00  0.45593999997E+02  0.45594000000E+02  0.51100000000E-03 0.  1.
         11   -1    0    0    0    0 -0.00000000000E+00 -0.00000000000E+00 -0.45593999997E+02  0.45594000000E+02  0.51100000000E-03 0. -1.
    9900012    2    1    2    0    0  0.21500785311E+02  0.14690574110E+02  0.18402170405E+02  0.59301692401E+02  0.49999541091E+02 0.  0.
         12    1    1    2    0    0 -0.21500785311E+02 -0.14690574110E+02 -0.18402170405E+02  0.31886307599E+02  0.00000000000E+00 0. -1.
         11    1    3    3    0    0  0.56157854995E+01  0.17612207758E+02  0.97253951712E+01  0.20888040128E+02  0.51100000000E-03 0. -1.
        -11    1    3    3    0    0  0.40366627982E+01  0.95457329930E+01 -0.90172805080E+01  0.13737795054E+02  0.51100000000E-03 0.  1.
         12    1    3    3    0    0  0.11848337014E+02 -0.12467366640E+02  0.17694055742E+02  0.24675857220E+02  0.00000000000E+00 0. -1.
</event>
<event>
 7    1  0.6593656E-013  0.5930194E+02  0.7816164E-02  0.1266605E+00
        -11   -1    0    0    0    0  0.00000000000E+00  0.00000000000E+00  0.45593999997E+02  0.45594000000E+02  0.51100000000E-03 0.  1.
         11   -1    0    0    0    0 -0.00000000000E+00 -0.00000000000E+00 -0.45593999997E+02  0.45594000000E+02  0.51100000000E-03 0. -1.
    9900012    2    1    2    0    0  0.26324627503E+01 -0.31723710144E+02  0.18430651385E+01  0.59301944512E+02  0.50000000884E+02 0.  0.
         12    1    1    2    0    0 -0.26324627503E+01  0.31723710144E+02 -0.18430651385E+01  0.31886055488E+02  0.00000000000E+00 0. -1.
         11    1    3    3    0    0  0.33982408756E+01 -0.20196629002E+02  0.86470743329E+01  0.22231143895E+02  0.51100000000E-03 0. -1.
        -11    1    3    3    0    0  0.13808956565E+02 -0.38660401428E+01 -0.13119206162E+02  0.19435717594E+02  0.51100000000E-03 0.  1.
         12    1    3    3    0    0 -0.14574734691E+02 -0.76610409994E+01  0.63151969676E+01  0.17635083023E+02  0.00000000000E+00 0. -1.
</event>
<event>
 7    1  0.6593656E-013  0.5930177E+02  0.7816164E-02  0.1266605E+00
        -11   -1    0    0    0    0  0.00000000000E+00  0.00000000000E+00  0.45593999997E+02  0.45594000000E+02  0.51100000000E-03 0. -1.
         11   -1    0    0    0    0 -0.00000000000E+00 -0.00000000000E+00 -0.45593999997E+02  0.45594000000E+02  0.51100000000E-03 0.  1.
    9900012    2    1    2    0    0  0.28695582575E+02 -0.13349239428E+02  0.38849791192E+01  0.59301769188E+02  0.49999681133E+02 0.  0.
         12    1    1    2    0    0 -0.28695582575E+02  0.13349239428E+02 -0.38849791192E+01  0.31886230812E+02  0.00000000000E+00 0. -1.
         11    1    3    3    0    0  0.15679686845E+02 -0.13906224263E+02  0.18018885056E+02  0.27639028053E+02  0.51100000000E-03 0.  1.
        -11    1    3    3    0    0  0.20385361364E+01 -0.43326953267E+01  0.63265153973E+01  0.79342722229E+01  0.51100000000E-03 0. -1.
        -12    1    3    3    0    0  0.10977359594E+02  0.48896801610E+01 -0.20460421334E+02  0.23728468912E+02  0.00000000000E+00 0.  1.
</event>
<event>
 7    1  0.6593656E-013  0.5930195E+02  0.7816164E-02  0.1266605E+00
        -11   -1    0    0    0    0  0.00000000000E+00  0.00000000000E+00  0.45593999997E+02  0.45594000000E+02  0.51100000000E-03 0.  1.
         11   -1    0    0    0    0 -0.00000000000E+00 -0.00000000000E+00 -0.45593999997E+02  0.45594000000E+02  0.51100000000E-03 0. -1.
    9900012    2    1    2    0    0  0.58900316618E+01 -0.30449136127E+02  0.74079497170E+01  0.59301951596E+02  0.50000013802E+02 0.  0.
         12    1    1    2    0    0 -0.58900316618E+01  0.30449136127E+02 -0.74079497170E+01  0.31886048404E+02  0.00000000000E+00 0. -1.
         11    1    3    3    0    0  0.11240055593E+02 -0.14112892605E+02  0.21551439665E+01  0.18170229310E+02  0.51100000000E-03 0. -1.
        -11    1    3    3    0    0  0.10404979682E+02  0.20228988601E+01  0.12004733893E+02  0.16014660724E+02  0.51100000000E-03 0.  1.
        -12    1    3    3    0    0 -0.15755003614E+02 -0.18359142382E+02 -0.67519281428E+01  0.25117061562E+02  0.00000000000E+00 0.  1.
</event>
<event>
 7    1  0.6593656E-013  0.5930195E+02  0.7816164E-02  0.1266605E+00
        -11   -1    0    0    0    0  0.00000000000E+00  0.00000000000E+00  0.45593999997E+02  0.45594000000E+02  0.51100000000E-03 0. -1.
         11   -1    0    0    0    0 -0.00000000000E+00 -0.00000000000E+00 -0.45593999997E+02  0.45594000000E+02  0.51100000000E-03 0.  1.
    9900012    2    1    2    0    0 -0.30978175939E+02 -0.48031289634E+01 -0.58311996853E+01  0.59301947844E+02  0.50000006960E+02 0.  0.
         12    1    1    2    0    0  0.30978175939E+02  0.48031289634E+01  0.58311996853E+01  0.31886052156E+02  0.00000000000E+00 0. -1.
         11    1    3    3    0    0  0.71740595607E+00 -0.58429739750E+01 -0.29900537700E+01  0.66026841502E+01  0.51100000000E-03 0. -1.
        -11    1    3    3    0    0 -0.35432397373E+01 -0.67538578424E+01 -0.18173273758E+02  0.19708805721E+02  0.51100000000E-03 0.  1.
        -12    1    3    3    0    0 -0.28152342157E+02  0.77937028540E+01  0.15332127843E+02  0.32990457973E+02  0.00000000000E+00 0.  1.
</event>
<event>
 7    1  0.6593656E-013  0.5930196E+02  0.7816164E-02  0.1266605E+00
        -11   -1    0    0    0    0  0.00000000000E+00  0.00000000000E+00  0.45593999997E+02  0.45594000000E+02  0.51100000000E-03 0.  1.
         11   -1    0    0    0    0 -0.00000000000E+00 -0.00000000000E+00 -0.45593999997E+02  0.45594000000E+02  0.51100000000E-03 0. -1.
    9900012    2    1    2    0    0 -0.10441845099E+02 -0.30086651896E+02  0.15751065063E+01  0.59301957412E+02  0.50000024410E+02 0.  0.
         12    1    1    2    0    0  0.10441845099E+02  0.30086651896E+02 -0.15751065063E+01  0.31886042588E+02  0.00000000000E+00 0. -1.
         11    1    3    3    0    0 -0.42615840546E+01 -0.10213646547E+02  0.45085593520E+01  0.11950179167E+02  0.51100000000E-03 0. -1.
        -11    1    3    3    0    0  0.15017839012E+01 -0.31770981515E+02  0.31010496814E+01  0.31957270389E+02  0.51100000000E-03 0.  1.
        -12    1    3    3    0    0 -0.76820449461E+01  0.11897976166E+02 -0.60345025271E+01  0.15394507856E+02  0.00000000000E+00 0.  1.
</event>
<event>
 7    1  0.6593656E-013  0.5930194E+02  0.7816164E-02  0.1266605E+00
        -11   -1    0    0    0    0  0.00000000000E+00  0.00000000000E+00  0.45593999997E+02  0.45594000000E+02  0.51100000000E-03 0.  1.
         11   -1    0    0    0    0 -0.00000000000E+00 -0.00000000000E+00 -0.45593999997E+02  0.45594000000E+02  0.51100000000E-03 0. -1.
    9900012    2    1    2    0    0  0.15915903831E+01 -0.30600614632E+02 -0.88198605787E+01  0.59301941661E+02  0.49999995683E+02 0.  0.
         12    1    1    2    0    0 -0.15915903831E+01  0.30600614632E+02  0.88198605787E+01  0.31886058339E+02  0.00000000000E+00 0. -1.
         11    1    3    3    0    0  0.59406510123E+01  0.46746534846E+01  0.35227720445E+01  0.83398826604E+01  0.51100000000E-03 0. -1.
        -11    1    3    3    0    0  0.13575831524E+02 -0.14380281829E+02 -0.12566695533E+02  0.23431123403E+02  0.51100000000E-03 0.  1.
         12    1    3    3    0    0 -0.17924892154E+02 -0.20894986287E+02  0.22406290968E+00  0.27530935597E+02  0.00000000000E+00 0. -1.
</event>
<event>
 7    1  0.6593656E-013  0.5930195E+02  0.7816164E-02  0.1266605E+00
        -11   -1    0    0    0    0  0.00000000000E+00  0.00000000000E+00  0.45593999997E+02  0.45594000000E+02  0.51100000000E-03 0. -1.
         11   -1    0    0    0    0 -0.00000000000E+00 -0.00000000000E+00 -0.45593999997E+02  0.45594000000E+02  0.51100000000E-03 0.  1.
    9900012    2    1    2    0    0 -0.29846043263E+02 -0.11204889228E+02 -0.62011132600E+00  0.59301946949E+02  0.50000005328E+02 0.  0.
         12    1    1    2    0    0  0.29846043263E+02  0.11204889228E+02  0.62011132600E+00  0.31886053051E+02  0.00000000000E+00 0. -1.
         11    1    3    3    0    0 -0.16703039709E+02 -0.83909531378E+01 -0.68371704418E+01  0.19903430106E+02  0.51100000000E-03 0. -1.
        -11    1    3    3    0    0 -0.20447578426E+02 -0.11348120551E+02 -0.45661782964E+01  0.23827154425E+02  0.51100000000E-03 0.  1.
         12    1    3    3    0    0  0.73045748713E+01  0.85341844610E+01  0.10783237412E+02  0.15571362418E+02  0.00000000000E+00 0. -1.
</event>
<event>
 7    1  0.6593656E-013  0.5930195E+02  0.7816164E-02  0.1266605E+00
        -11   -1    0    0    0    0  0.00000000000E+00  0.00000000000E+00  0.45593999997E+02  0.45594000000E+02  0.51100000000E-03 0. -1.
         11   -1    0    0    0    0 -0.00000000000E+00 -0.00000000000E+00 -0.45593999997E+02  0.45594000000E+02  0.51100000000E-03 0.  1.
    9900012    2    1    2    0    0 -0.31554628039E+01  0.18187976398E+02 -0.25999247226E+02  0.59301948390E+02  0.50000007956E+02 0.  0.
         12    1    1    2    0    0  0.31554628039E+01 -0.18187976398E+02  0.25999247226E+02  0.31886051610E+02  0.00000000000E+00 0. -1.
         11    1    3    3    0    0  0.11309586244E+02 -0.13478836424E+02 -0.70710168655E+01  0.18962727971E+02  0.51100000000E-03 0. -1.
        -11    1    3    3    0    0 -0.48405489585E+01  0.10105265010E+02 -0.10240921304E+02  0.15179715563E+02  0.51100000000E-03 0.  1.
        -12    1    3    3    0    0 -0.96245000890E+01  0.21561547811E+02 -0.86873090562E+01  0.25159504856E+02  0.00000000000E+00 0.  1.
</event>
<event>
 7    1  0.6593656E-013  0.5930190E+02  0.7816164E-02  0.1266605E+00
        -11   -1    0    0    0    0  0.00000000000E+00  0.00000000000E+00  0.45593999997E+02  0.45594000000E+02  0.51100000000E-03 0.  1.
         11   -1    0    0    0    0 -0.00000000000E+00 -0.00000000000E+00 -0.45593999997E+02  0.45594000000E+02  0.51100000000E-03 0. -1.
    9900012    2    1    2    0    0 -0.57013617015E+01  0.41872616127E-01  0.31372217584E+02  0.59301900917E+02  0.49999921377E+02 0.  0.
         12    1    1    2    0    0  0.57013617015E+01 -0.41872616127E-01 -0.31372217584E+02  0.31886099083E+02  0.00000000000E+00 0. -1.
         11    1    3    3    0    0  0.32882422009E+01 -0.13486645972E+02  0.66648257480E+01  0.15398768096E+02  0.51100000000E-03 0. -1.
        -11    1    3    3    0    0  0.83179922210E+01 -0.52750120818E+01  0.11480939904E+02  0.15127019812E+02  0.51100000000E-03 0.  1.
        -12    1    3    3    0    0 -0.17307596123E+02  0.18803530670E+02  0.13226451932E+02  0.28776113010E+02  0.00000000000E+00 0.  1.
</event>
<event>
 7    1  0.6593656E-013  0.5930195E+02  0.7816164E-02  0.1266605E+00
        -11   -1    0    0    0    0  0.00000000000E+00  0.00000000000E+00  0.45593999997E+02  0.45594000000E+02  0.51100000000E-03 0.  1.
         11   -1    0    0    0    0 -0.00000000000E+00 -0.00000000000E+00 -0.45593999997E+02  0.45594000000E+02  0.51100000000E-03 0. -1.
    9900012    2    1    2    0    0 -0.88241711174E+01 -0.97456471902E+01  0.29049553739E+02  0.59301949641E+02  0.50000010238E+02 0.  0.
         12    1    1    2    0    0  0.88241711174E+01  0.97456471902E+01 -0.29049553739E+02  0.31886050359E+02  0.00000000000E+00 0. -1.
         11    1    3    3    0    0 -0.50915744315E+01 -0.17072732237E+02  0.63163505211E+01  0.18902343781E+02  0.51100000000E-03 0. -1.
        -11    1    3    3    0    0 -0.56845780536E+01 -0.35647910428E+01  0.27532440268E+02  0.28338267946E+02  0.51100000000E-03 0.  1.
         12    1    3    3    0    0  0.19519813677E+01  0.10891876090E+02 -0.47992370505E+01  0.12061337914E+02  0.00000000000E+00 0. -1.
</event>
<event>
 7    1  0.6593656E-013  0.5930200E+02  0.7816164E-02  0.1266605E+00
        -11   -1    0    0    0    0  0.00000000000E+00  0.00000000000E+00  0.45593999997E+02  0.45594000000E+02  0.51100000000E-03 0.  1.
         11   -1    0    0    0    0 -0.00000000000E+00 -0.00000000000E+00 -0.45593999997E+02  0.45594000000E+02  0.51100000000E-03 0. -1.
    9900012    2    1    2    0    0 -0.85190169642E+01 -0.14880041898E+02  0.26883590653E+02  0.59302003962E+02  0.50000109306E+02 0.  0.
         12    1    1    2    0    0  0.85190169642E+01  0.14880041898E+02 -0.26883590653E+02  0.31885996038E+02  0.00000000000E+00 0. -1.
         11    1    3    3    0    0 -0.22255681845E+01  0.30760669251E+00  0.11883210494E+02  0.12093736707E+02  0.51100000000E-03 0. -1.
        -11    1    3    3    0    0 -0.92961879110E+01 -0.28656213782E+02  0.14412879452E+02  0.33396538628E+02  0.51100000000E-03 0.  1.
         12    1    3    3    0    0  0.30027391314E+01  0.13468565191E+02  0.58750070716E+00  0.13811728628E+02  0.00000000000E+00 0. -1.
</event>
<event>
 7    1  0.6593656E-013  0.5930203E+02  0.7816164E-02  0.1266604E+00
        -11   -1    0    0    0    0  0.00000000000E+00  0.00000000000E+00  0.45593999997E+02  0.45594000000E+02  0.51100000000E-03 0.  1.
         11   -1    0    0    0    0 -0.00000000000E+00 -0.00000000000E+00 -0.45593999997E+02  0.45594000000E+02  0.51100000000E-03 0. -1.
    9900012    2    1    2    0    0 -0.10453044280E+02 -0.26977506326E+02  0.13403845019E+02  0.59302030616E+02  0.50000157916E+02 0.  0.
         12    1    1    2    0    0  0.10453044280E+02  0.26977506326E+02 -0.13403845019E+02  0.31885969384E+02  0.00000000000E+00 0. -1.
         11    1    3    3    0    0 -0.27544426105E+00 -0.62975488860E+01 -0.10661415109E+02  0.12385506203E+02  0.51100000000E-03 0. -1.
        -11    1    3    3    0    0 -0.15454585688E+02 -0.85891060269E+01 -0.19093770315E+01  0.17783775810E+02  0.51100000000E-03 0.  1.
        -12    1    3    3    0    0  0.52769856696E+01 -0.12090851413E+02  0.25974637160E+02  0.29132748604E+02  0.00000000000E+00 0.  1.
</event>
<event>
 7    1  0.6593656E-013  0.5930196E+02  0.7816164E-02  0.1266605E+00
        -11   -1    0    0    0    0  0.00000000000E+00  0.00000000000E+00  0.45593999997E+02  0.45594000000E+02  0.51100000000E-03 0.  1.
         11   -1    0    0    0    0 -0.00000000000E+00 -0.00000000000E+00 -0.45593999997E+02  0.45594000000E+02  0.51100000000E-03 0. -1.
    9900012    2    1    2    0    0 -0.27299570640E+02  0.15006254147E+02 -0.68018572113E+01  0.59301961015E+02  0.50000030980E+02 0.  0.
         12    1    1    2    0    0  0.27299570640E+02 -0.15006254147E+02  0.68018572113E+01  0.31886038985E+02  0.00000000000E+00 0. -1.
         11    1    3    3    0    0 -0.13661933528E+02  0.13216838840E+02  0.45020033169E+01  0.19534617754E+02  0.51100000000E-03 0. -1.
        -11    1    3    3    0    0 -0.30593646107E+01  0.13946453381E+02  0.65564659531E+01  0.15711477327E+02  0.51100000000E-03 0.  1.
         12    1    3    3    0    0 -0.10578272501E+02 -0.12157038074E+02 -0.17860326481E+02  0.24055865934E+02  0.00000000000E+00 0. -1.
</event>
<event>
 7    1  0.6593656E-013  0.5930196E+02  0.7816164E-02  0.1266605E+00
        -11   -1    0    0    0    0  0.00000000000E+00  0.00000000000E+00  0.45593999997E+02  0.45594000000E+02  0.51100000000E-03 0.  1.
         11   -1    0    0    0    0 -0.00000000000E+00 -0.00000000000E+00 -0.45593999997E+02  0.45594000000E+02  0.51100000000E-03 0. -1.
    9900012    2    1    2    0    0  0.19899967697E+02 -0.19325853948E+02  0.15723306143E+02  0.59301957580E+02  0.50000024716E+02 0.  0.
         12    1    1    2    0    0 -0.19899967697E+02  0.19325853948E+02 -0.15723306143E+02  0.31886042420E+02  0.00000000000E+00 0. -1.
         11    1    3    3    0    0 -0.56518973802E+01 -0.62094692729E+00  0.36727889239E+01  0.67689657868E+01  0.51100000000E-03 0. -1.
        -11    1    3    3    0    0  0.19253350578E+02  0.82370542587E+01 -0.28055901784E+01  0.21128462032E+02  0.51100000000E-03 0.  1.
        -12    1    3    3    0    0  0.62985144990E+01 -0.26941961279E+02  0.14856107398E+02  0.31404529760E+02  0.00000000000E+00 0.  1.
</event>
<event>
 7    1  0.6593656E-013  0.5930195E+02  0.7816164E-02  0.1266605E+00
        -11   -1    0    0    0    0  0.00000000000E+00  0.00000000000E+00  0.45593999997E+02  0.45594000000E+02  0.51100000000E-03 0.  1.
         11   -1    0    0    0    0 -0.00000000000E+00 -0.00000000000E+00 -0.45593999997E+02  0.45594000000E+02  0.51100000000E-03 0. -1.
    9900012    2    1    2    0    0  0.27252240229E+02  0.12945889194E+02 -0.10316950890E+02  0.59301951010E+02  0.50000012733E+02 0.  0.
         12    1    1    2    0    0 -0.27252240229E+02 -0.12945889194E+02  0.10316950890E+02  0.31886048990E+02  0.00000000000E+00 0. -1.
         11    1    3    3    0    0  0.89274373548E+01 -0.42385046789E+01 -0.11766890307E+02  0.15366319253E+02  0.51100000000E-03 0. -1.
        -11    1    3    3    0    0 -0.79676332153E+01  0.77579810901E+01 -0.88019008746E+01  0.14182485992E+02  0.51100000000E-03 0.  1.
        -12    1    3    3    0    0  0.26292436090E+02  0.94264127832E+01  0.10251840292E+02  0.29753145764E+02  0.00000000000E+00 0.  1.
</event>
<event>
 7    1  0.6593656E-013  0.5930210E+02  0.7816164E-02  0.1266604E+00
        -11   -1    0    0    0    0  0.00000000000E+00  0.00000000000E+00  0.45593999997E+02  0.45594000000E+02  0.51100000000E-03 0. -1.
         11   -1    0    0    0    0 -0.00000000000E+00 -0.00000000000E+00 -0.45593999997E+02  0.45594000000E+02  0.51100000000E-03 0.  1.
    9900012    2    1    2    0    0 -0.10779230105E+02  0.12318222517E+02 -0.27363853556E+02  0.59302095762E+02  0.50000276726E+02 0.  0.
         12    1    1    2    0    0  0.10779230105E+02 -0.12318222517E+02  0.27363853556E+02  0.31885904238E+02  0.00000000000E+00 0. -1.
         11    1    3    3    0    0 -0.97449814067E+01 -0.13581796768E+02 -0.13857723040E+02  0.21713275989E+02  0.51100000000E-03 0. -1.
        -11    1    3    3    0    0  0.11402521588E+00  0.12711396009E+02 -0.19322425109E+02  0.23128958096E+02  0.51100000000E-03 0.  1.
        -12    1    3    3    0    0 -0.11482739137E+01  0.13188623276E+02  0.58162945932E+01  0.14459861676E+02  0.00000000000E+00 0.  1.
</event>
<event>
 7    1  0.6593656E-013  0.5930201E+02  0.7816164E-02  0.1266605E+00
        -11   -1    0    0    0    0  0.00000000000E+00  0.00000000000E+00  0.45593999997E+02  0.45594000000E+02  0.51100000000E-03 0.  1.
         11   -1    0    0    0    0 -0.00000000000E+00 -0.00000000000E+00 -0.45593999997E+02  0.45594000000E+02  0.51100000000E-03 0. -1.
    9900012    2    1    2    0    0  0.28625832944E+02 -0.47057612539E+01  0.13233815556E+02  0.59302009740E+02  0.50000119843E+02 0.  0.
         12    1    1    2    0    0 -0.28625832944E+02  0.47057612539E+01 -0.13233815556E+02  0.31885990260E+02  0.00000000000E+00 0. -1.
         11    1    3    3    0    0  0.13526320700E+02 -0.10329308091E+02  0.49440412282E+01  0.17722852515E+02  0.51100000000E-03 0. -1.
        -11    1    3    3    0    0  0.21629781265E+02 -0.54978894202E+01  0.15147249210E+02  0.26972456035E+02  0.51100000000E-03 0.  1.
        -12    1    3    3    0    0 -0.65302690214E+01  0.11121436258E+02 -0.68574748816E+01  0.14606701191E+02  0.00000000000E+00 0.  1.
</event>
<event>
 7    1  0.6593656E-013  0.5930194E+02  0.7816164E-02  0.1266605E+00
        -11   -1    0    0    0    0  0.00000000000E+00  0.00000000000E+00  0.45593999997E+02  0.45594000000E+02  0.51100000000E-03 0.  1.
         11   -1    0    0    0    0 -0.00000000000E+00 -0.00000000000E+00 -0.45593999997E+02  0.45594000000E+02  0.51100000000E-03 0. -1.
    9900012    2    1    2    0    0  0.31393563644E+01 -0.38389497297E+01  0.31498058986E+02  0.59301940141E+02  0.49999992912E+02 0.  0.
         12    1    1    2    0    0 -0.31393563644E+01  0.38389497297E+01 -0.31498058986E+02  0.31886059859E+02  0.00000000000E+00 0. -1.
         11    1    3    3    0    0  0.12453545815E+02 -0.57568544366E+01  0.97696645189E+01  0.16842758724E+02  0.51100000000E-03 0. -1.
        -11    1    3    3    0    0  0.13158860048E+02  0.32327509974E+01  0.51245604620E+01  0.14486800785E+02  0.51100000000E-03 0.  1.
        -12    1    3    3    0    0 -0.22473049499E+02 -0.13148462905E+01  0.16603834005E+02  0.27972380632E+02  0.00000000000E+00 0.  1.
</event>
<event>
 7    1  0.6593656E-013  0.5930196E+02  0.7816164E-02  0.1266605E+00
        -11   -1    0    0    0    0  0.00000000000E+00  0.00000000000E+00  0.45593999997E+02  0.45594000000E+02  0.51100000000E-03 0.  1.
         11   -1    0    0    0    0 -0.00000000000E+00 -0.00000000000E+00 -0.45593999997E+02  0.45594000000E+02  0.51100000000E-03 0. -1.
    9900012    2    1    2    0    0  0.25102990093E+02 -0.79589893260E+01 -0.17978154428E+02  0.59301958237E+02  0.50000025913E+02 0.  0.
         12    1    1    2    0    0 -0.25102990093E+02  0.79589893260E+01  0.17978154428E+02  0.31886041763E+02  0.00000000000E+00 0. -1.
         11    1    3    3    0    0 -0.45651088531E+01 -0.25287623624E+01  0.61995132511E+01  0.81036302197E+01  0.51100000000E-03 0. -1.
        -11    1    3    3    0    0 -0.51774607773E+01 -0.61195623589E+01  0.11731455649E+01  0.81013217651E+01  0.51100000000E-03 0.  1.
         12    1    3    3    0    0  0.34845559724E+02  0.68933539532E+00 -0.25350813244E+02  0.43097006252E+02  0.00000000000E+00 0. -1.
</event>
<event>
 7    1  0.6593656E-013  0.5930196E+02  0.7816164E-02  0.1266605E+00
        -11   -1    0    0    0    0  0.00000000000E+00  0.00000000000E+00  0.45593999997E+02  0.45594000000E+02  0.51100000000E-03 0. -1.
         11   -1    0    0    0    0 -0.00000000000E+00 -0.00000000000E+00 -0.45593999997E+02  0.45594000000E+02  0.51100000000E-03 0.  1.
    9900012    2    1    2    0    0 -0.22403486698E+02  0.89560587805E+01 -0.20846875445E+02  0.59301961975E+02  0.50000032731E+02 0.  0.
         12    1    1    2    0    0  0.22403486698E+02 -0.89560587805E+01  0.20846875445E+02  0.31886038025E+02  0.00000000000E+00 0. -1.
         11    1    3    3    0    0 -0.21595085347E+02 -0.14260413700E+02 -0.15417010355E+02  0.30122936752E+02  0.51100000000E-03 0. -1.
        -11    1    3    3    0    0  0.48761531276E+01  0.22597368560E+01 -0.51789271954E+01  0.74635492320E+01  0.51100000000E-03 0.  1.
        -12    1    3    3    0    0 -0.56845544790E+01  0.20956735625E+02 -0.25093789532E+00  0.21715475991E+02  0.00000000000E+00 0.  1.
</event>
<event>
 7    1  0.6593656E-013  0.5930195E+02  0.7816164E-02  0.1266605E+00
        -11   -1    0    0    0    0  0.00000000000E+00  0.00000000000E+00  0.45593999997E+02  0.45594000000E+02  0.51100000000E-03 0.  1.
         11   -1    0    0    0    0 -0.00000000000E+00 -0.00000000000E+00 -0.45593999997E+02  0.45594000000E+02  0.51100000000E-03 0. -1.
    9900012    2    1    2    0    0 -0.13949479257E+02 -0.13938873791E+01  0.28638945121E+02  0.59301951779E+02  0.50000014136E+02 0.  0.
         12    1    1    2    0    0  0.13949479257E+02  0.13938873791E+01 -0.28638945121E+02  0.31886048221E+02  0.00000000000E+00 0. -1.
         11    1    3    3    0    0 -0.10073272060E+02  0.14453899821E+01  0.82247682523E+01  0.13084600692E+02  0.51100000000E-03 0. -1.
        -11    1    3    3    0    0 -0.16172187939E+02  0.50026147510E+01  0.25641173682E+02  0.30725162410E+02  0.51100000000E-03 0.  1.
         12    1    3    3    0    0  0.12295980742E+02 -0.78418921123E+01 -0.52269968137E+01  0.15492188677E+02  0.00000000000E+00 0. -1.
</event>
<event>
 7    1  0.6593656E-013  0.5930187E+02  0.7816164E-02  0.1266605E+00
        -11   -1    0    0    0    0  0.00000000000E+00  0.00000000000E+00  0.45593999997E+02  0.45594000000E+02  0.51100000000E-03 0.  1.
         11   -1    0    0    0    0 -0.00000000000E+00 -0.00000000000E+00 -0.45593999997E+02  0.45594000000E+02  0.51100000000E-03 0. -1.
    9900012    2    1    2    0    0 -0.22791376428E+02  0.21639446644E+02 -0.53863561898E+01  0.59301869417E+02  0.49999863928E+02 0.  0.
         12    1    1    2    0    0  0.22791376428E+02 -0.21639446644E+02  0.53863561898E+01  0.31886130583E+02  0.00000000000E+00 0. -1.
         11    1    3    3    0    0 -0.75868410911E+01 -0.25404984694E+01  0.33405809450E+01  0.86702809370E+01  0.51100000000E-03 0.  1.
        -11    1    3    3    0    0  0.68109281152E+01  0.40850212638E+01  0.11954344398E+02  0.14352090119E+02  0.51100000000E-03 0. -1.
         12    1    3    3    0    0 -0.22015463452E+02  0.20094923850E+02 -0.20681281533E+02  0.36279498362E+02  0.00000000000E+00 0. -1.
</event>
<event>
 7    1  0.6593656E-013  0.5930192E+02  0.7816164E-02  0.1266605E+00
        -11   -1    0    0    0    0  0.00000000000E+00  0.00000000000E+00  0.45593999997E+02  0.45594000000E+02  0.51100000000E-03 0. -1.
         11   -1    0    0    0    0 -0.00000000000E+00 -0.00000000000E+00 -0.45593999997E+02  0.45594000000E+02  0.51100000000E-03 0.  1.
    9900012    2    1    2    0    0 -0.24101864502E+02  0.18506681438E+02  0.96604943768E+01  0.59301917112E+02  0.49999950912E+02 0.  0.
         12    1    1    2    0    0  0.24101864502E+02 -0.18506681438E+02 -0.96604943768E+01  0.31886082888E+02  0.00000000000E+00 0. -1.
         11    1    3    3    0    0 -0.23782960171E+02  0.10362841283E+02 -0.63213200106E+01  0.26701624686E+02  0.51100000000E-03 0.  1.
        -11    1    3    3    0    0 -0.16500029964E+01  0.14914878587E+02 -0.20142914621E+00  0.15007221166E+02  0.51100000000E-03 0. -1.
         12    1    3    3    0    0  0.13310986653E+01 -0.67710384317E+01  0.16183243534E+02  0.17593071260E+02  0.00000000000E+00 0. -1.
</event>
<event>
 7    1  0.6593656E-013  0.5930193E+02  0.7816164E-02  0.1266605E+00
        -11   -1    0    0    0    0  0.00000000000E+00  0.00000000000E+00  0.45593999997E+02  0.45594000000E+02  0.51100000000E-03 0. -1.
         11   -1    0    0    0    0 -0.00000000000E+00 -0.00000000000E+00 -0.45593999997E+02  0.45594000000E+02  0.51100000000E-03 0.  1.
    9900012    2    1    2    0    0 -0.11905353848E+02  0.80865552577E+01 -0.28453321406E+02  0.59301932114E+02  0.49999978272E+02 0.  0.
         12    1    1    2    0    0  0.11905353848E+02 -0.80865552577E+01  0.28453321406E+02  0.31886067886E+02  0.00000000000E+00 0. -1.
         11    1    3    3    0    0 -0.57686438544E+01 -0.21095260374E+01 -0.39564858736E+01  0.73062393029E+01  0.51100000000E-03 0. -1.
        -11    1    3    3    0    0 -0.20069349469E+02  0.20242713004E+02 -0.13024902292E+02  0.31339979226E+02  0.51100000000E-03 0.  1.
         12    1    3    3    0    0  0.13932639475E+02 -0.10046631709E+02 -0.11471933241E+02  0.20655713586E+02  0.00000000000E+00 0. -1.
</event>
<event>
 7    1  0.6593656E-013  0.5930198E+02  0.7816164E-02  0.1266605E+00
        -11   -1    0    0    0    0  0.00000000000E+00  0.00000000000E+00  0.45593999997E+02  0.45594000000E+02  0.51100000000E-03 0. -1.
         11   -1    0    0    0    0 -0.00000000000E+00 -0.00000000000E+00 -0.45593999997E+02  0.45594000000E+02  0.51100000000E-03 0.  1.
    9900012    2    1    2    0    0 -0.98529441680E+01  0.30208063396E+02  0.26666402331E+01  0.59301975270E+02  0.50000056979E+02 0.  0.
         12    1    1    2    0    0  0.98529441680E+01 -0.30208063396E+02 -0.26666402331E+01  0.31886024730E+02  0.00000000000E+00 0. -1.
         11    1    3    3    0    0 -0.10797073751E+01  0.38275479810E+02  0.28478999076E+01  0.38396466724E+02  0.51100000000E-03 0. -1.
        -11    1    3    3    0    0 -0.15976371637E+01 -0.29075069020E+01 -0.82787400377E+01  0.89187206350E+01  0.51100000000E-03 0.  1.
        -12    1    3    3    0    0 -0.71755996292E+01 -0.51599095117E+01  0.80974803632E+01  0.11986787912E+02  0.00000000000E+00 0.  1.
</event>
<event>
 7    1  0.6593656E-013  0.5930193E+02  0.7816164E-02  0.1266605E+00
        -11   -1    0    0    0    0  0.00000000000E+00  0.00000000000E+00  0.45593999997E+02  0.45594000000E+02  0.51100000000E-03 0. -1.
         11   -1    0    0    0    0 -0.00000000000E+00 -0.00000000000E+00 -0.45593999997E+02  0.45594000000E+02  0.51100000000E-03 0.  1.
    9900012    2    1    2    0    0 -0.22560454547E+02  0.75801383273E+01  0.21220016603E+02  0.59301926064E+02  0.49999967238E+02 0.  0.
         12    1    1    2    0    0  0.22560454547E+02 -0.75801383273E+01 -0.21220016603E+02  0.31886073936E+02  0.00000000000E+00 0. -1.
         11    1    3    3    0    0 -0.17719968551E+02  0.44970173989E+01 -0.71516032441E+01  0.19630738146E+02  0.51100000000E-03 0. -1.
        -11    1    3    3    0    0 -0.12174356758E+02  0.95912456995E+01  0.89052945138E+01  0.17874876984E+02  0.51100000000E-03 0.  1.
         12    1    3    3    0    0  0.73338707618E+01 -0.65081247710E+01  0.19466325333E+02  0.21796310935E+02  0.00000000000E+00 0. -1.
</event>
<event>
 7    1  0.6593656E-013  0.5930192E+02  0.7816164E-02  0.1266605E+00
        -11   -1    0    0    0    0  0.00000000000E+00  0.00000000000E+00  0.45593999997E+02  0.45594000000E+02  0.51100000000E-03 0.  1.
         11   -1    0    0    0    0 -0.00000000000E+00 -0.00000000000E+00 -0.45593999997E+02  0.45594000000E+02  0.51100000000E-03 0. -1.
    9900012    2    1    2    0    0  0.85230922160E+01  0.78498709816E+01  0.29706206363E+02  0.59301917271E+02  0.49999951202E+02 0.  0.
         12    1    1    2    0    0 -0.85230922160E+01 -0.78498709816E+01 -0.29706206363E+02  0.31886082729E+02  0.00000000000E+00 0. -1.
         11    1    3    3    0    0  0.19611848498E+02 -0.71889113699E+01  0.10991306865E+02  0.23603259839E+02  0.51100000000E-03 0. -1.
        -11    1    3    3    0    0  0.66006164028E+01 -0.31969662772E+00  0.65400462912E+01  0.92974484985E+01  0.51100000000E-03 0.  1.
        -12    1    3    3    0    0 -0.17689372684E+02  0.15358478979E+02  0.12174853207E+02  0.26401208933E+02  0.00000000000E+00 0.  1.
</event>
<event>
 7    1  0.6593656E-013  0.5930193E+02  0.7816164E-02  0.1266605E+00
        -11   -1    0    0    0    0  0.00000000000E+00  0.00000000000E+00  0.45593999997E+02  0.45594000000E+02  0.51100000000E-03 0. -1.
         11   -1    0    0    0    0 -0.00000000000E+00 -0.00000000000E+00 -0.45593999997E+02  0.45594000000E+02  0.51100000000E-03 0.  1.
    9900012    2    1    2    0    0  0.43591112159E+01 -0.23695164087E+02 -0.20886813364E+02  0.59301927426E+02  0.49999969722E+02 0.  0.
         12    1    1    2    0    0 -0.43591112159E+01  0.23695164087E+02  0.20886813364E+02  0.31886072574E+02  0.00000000000E+00 0. -1.
         11    1    3    3    0    0  0.24056862638E+01 -0.10107713386E+02 -0.25962252427E+01  0.10709508955E+02  0.51100000000E-03 0. -1.
        -11    1    3    3    0    0  0.40521394386E+01 -0.25471743014E+02 -0.24009678570E+02  0.35237681415E+02  0.51100000000E-03 0.  1.
         12    1    3    3    0    0 -0.20987144865E+01  0.11884292313E+02  0.57190904482E+01  0.13354737056E+02  0.00000000000E+00 0. -1.
</event>
<event>
 7    1  0.6593656E-013  0.5930193E+02  0.7816164E-02  0.1266605E+00
        -11   -1    0    0    0    0  0.00000000000E+00  0.00000000000E+00  0.45593999997E+02  0.45594000000E+02  0.51100000000E-03 0.  1.
         11   -1    0    0    0    0 -0.00000000000E+00 -0.00000000000E+00 -0.45593999997E+02  0.45594000000E+02  0.51100000000E-03 0. -1.
    9900012    2    1    2    0    0  0.98687830683E+01  0.12692016775E+02  0.27536186090E+02  0.59301926026E+02  0.49999967170E+02 0.  0.
         12    1    1    2    0    0 -0.98687830683E+01 -0.12692016775E+02 -0.27536186090E+02  0.31886073974E+02  0.00000000000E+00 0. -1.
         11    1    3    3    0    0 -0.29491740341E+01 -0.42091738929E+01 -0.20597072902E+01  0.55368914316E+01  0.51100000000E-03 0. -1.
        -11    1    3    3    0    0 -0.13536374208E+02  0.11851375584E+02  0.13260114717E+02  0.22349925559E+02  0.51100000000E-03 0.  1.
         12    1    3    3    0    0  0.26354331310E+02  0.50498150842E+01  0.16335778663E+02  0.31415109036E+02  0.00000000000E+00 0. -1.
</event>
<event>
 7    1  0.6593656E-013  0.5930198E+02  0.7816164E-02  0.1266605E+00
        -11   -1    0    0    0    0  0.00000000000E+00  0.00000000000E+00  0.45593999997E+02  0.45594000000E+02  0.51100000000E-03 0. -1.
         11   -1    0    0    0    0 -0.00000000000E+00 -0.00000000000E+00 -0.45593999997E+02  0.45594000000E+02  0.51100000000E-03 0.  1.
    9900012    2    1    2    0    0  0.20129279674E+02  0.21826404887E+02 -0.11624915372E+02  0.59301976292E+02  0.50000058842E+02 0.  0.
         12    1    1    2    0    0 -0.20129279674E+02 -0.21826404887E+02  0.11624915372E+02  0.31886023708E+02  0.00000000000E+00 0. -1.
         11    1    3    3    0    0  0.15466638572E+02 -0.32015936829E+01 -0.91895179108E+01  0.18273323466E+02  0.51100000000E-03 0. -1.
        -11    1    3    3    0    0  0.14533724819E+02  0.52974337171E+00 -0.74514781928E+00  0.14562452770E+02  0.51100000000E-03 0.  1.
        -12    1    3    3    0    0 -0.98710837163E+01  0.24498255199E+02 -0.16902496419E+01  0.26466200055E+02  0.00000000000E+00 0.  1.
</event>
<event>
 7    1  0.6593656E-013  0.5930194E+02  0.7816164E-02  0.1266605E+00
        -11   -1    0    0    0    0  0.00000000000E+00  0.00000000000E+00  0.45593999997E+02  0.45594000000E+02  0.51100000000E-03 0.  1.
         11   -1    0    0    0    0 -0.00000000000E+00 -0.00000000000E+00 -0.45593999997E+02  0.45594000000E+02  0.51100000000E-03 0. -1.
    9900012    2    1    2    0    0  0.19761591404E+02  0.18823109074E+02  0.16489116544E+02  0.59301938869E+02  0.49999990593E+02 0.  0.
         12    1    1    2    0    0 -0.19761591404E+02 -0.18823109074E+02 -0.16489116544E+02  0.31886061131E+02  0.00000000000E+00 0. -1.
         11    1    3    3    0    0  0.18386906878E+02 -0.73331391412E+01  0.21519613332E+02  0.29239477294E+02  0.51100000000E-03 0. -1.
        -11    1    3    3    0    0  0.19044512069E+00  0.11352822323E+01  0.34341387744E+01  0.36219393250E+01  0.51100000000E-03 0.  1.
        -12    1    3    3    0    0  0.11842394059E+01  0.25020965983E+02 -0.84646355629E+01  0.26440522251E+02  0.00000000000E+00 0.  1.
</event>
<event>
 7    1  0.6593656E-013  0.5930194E+02  0.7816164E-02  0.1266605E+00
        -11   -1    0    0    0    0  0.00000000000E+00  0.00000000000E+00  0.45593999997E+02  0.45594000000E+02  0.51100000000E-03 0. -1.
         11   -1    0    0    0    0 -0.00000000000E+00 -0.00000000000E+00 -0.45593999997E+02  0.45594000000E+02  0.51100000000E-03 0.  1.
    9900012    2    1    2    0    0 -0.20411797892E+02  0.22643313732E+02 -0.93466556059E+01  0.59301935317E+02  0.49999984113E+02 0.  0.
         12    1    1    2    0    0  0.20411797892E+02 -0.22643313732E+02  0.93466556059E+01  0.31886064683E+02  0.00000000000E+00 0. -1.
         11    1    3    3    0    0  0.37939589123E+01 -0.41055165668E+00 -0.33091030125E+01  0.50510236487E+01  0.51100000000E-03 0. -1.
        -11    1    3    3    0    0 -0.76578807810E+01  0.20068500086E+02 -0.22226331275E+02  0.30909507210E+02  0.51100000000E-03 0.  1.
         12    1    3    3    0    0 -0.16547876024E+02  0.29853653026E+01  0.16188778681E+02  0.23341404458E+02  0.00000000000E+00 0. -1.
</event>
<event>
 7    1  0.6593656E-013  0.5930194E+02  0.7816164E-02  0.1266605E+00
        -11   -1    0    0    0    0  0.00000000000E+00  0.00000000000E+00  0.45593999997E+02  0.45594000000E+02  0.51100000000E-03 0. -1.
         11   -1    0    0    0    0 -0.00000000000E+00 -0.00000000000E+00 -0.45593999997E+02  0.45594000000E+02  0.51100000000E-03 0.  1.
    9900012    2    1    2    0    0  0.10176883528E+02  0.29837500907E+02 -0.47828385249E+01  0.59301937793E+02  0.49999988629E+02 0.  0.
         12    1    1    2    0    0 -0.10176883528E+02 -0.29837500907E+02  0.47828385249E+01  0.31886062207E+02  0.00000000000E+00 0. -1.
         11    1    3    3    0    0  0.13483572235E+01  0.19967257566E+02  0.17066063268E+02  0.26301329959E+02  0.51100000000E-03 0. -1.
        -11    1    3    3    0    0  0.36579870953E+00 -0.55307432346E+01 -0.83184423817E+00  0.56048991534E+01  0.51100000000E-03 0.  1.
        -12    1    3    3    0    0  0.84627275949E+01  0.15400986576E+02 -0.21017057554E+02  0.27395708680E+02  0.00000000000E+00 0.  1.
</event>
<event>
 7    1  0.6593656E-013  0.5930196E+02  0.7816164E-02  0.1266605E+00
        -11   -1    0    0    0    0  0.00000000000E+00  0.00000000000E+00  0.45593999997E+02  0.45594000000E+02  0.51100000000E-03 0.  1.
         11   -1    0    0    0    0 -0.00000000000E+00 -0.00000000000E+00 -0.45593999997E+02  0.45594000000E+02  0.51100000000E-03 0. -1.
    9900012    2    1    2    0    0  0.58415142271E+01  0.30120997473E+02 -0.86787989336E+01  0.59301963429E+02  0.50000035384E+02 0.  0.
         12    1    1    2    0    0 -0.58415142271E+01 -0.30120997473E+02  0.86787989336E+01  0.31886036571E+02  0.00000000000E+00 0. -1.
         11    1    3    3    0    0 -0.15045044777E+01 -0.48821055028E+01  0.65114850638E+01  0.82763473744E+01  0.51100000000E-03 0.  1.
        -11    1    3    3    0    0  0.42907949799E+01  0.21538938032E+00 -0.15518752719E+02  0.16102453241E+02  0.51100000000E-03 0. -1.
        -12    1    3    3    0    0  0.30552237249E+01  0.34787713596E+02  0.32846872191E+00  0.34923162814E+02  0.00000000000E+00 0.  1.
</event>
<event>
 7    1  0.6593656E-013  0.5930193E+02  0.7816164E-02  0.1266605E+00
        -11   -1    0    0    0    0  0.00000000000E+00  0.00000000000E+00  0.45593999997E+02  0.45594000000E+02  0.51100000000E-03 0.  1.
         11   -1    0    0    0    0 -0.00000000000E+00 -0.00000000000E+00 -0.45593999997E+02  0.45594000000E+02  0.51100000000E-03 0. -1.
    9900012    2    1    2    0    0 -0.37640687049E+01 -0.19619576006E+01  0.31602276690E+02  0.59301931211E+02  0.49999976625E+02 0.  0.
         12    1    1    2    0    0  0.37640687049E+01  0.19619576006E+01 -0.31602276690E+02  0.31886068789E+02  0.00000000000E+00 0. -1.
         11    1    3    3    0    0 -0.51425397564E+01 -0.16471224633E+01  0.53460631663E+01  0.75986261386E+01  0.51100000000E-03 0.  1.
        -11    1    3    3    0    0 -0.19964573111E+02 -0.84726209815E+01  0.12467171606E+02  0.25015991963E+02  0.51100000000E-03 0. -1.
        -12    1    3    3    0    0  0.21343044162E+02  0.81577858442E+01  0.13789041917E+02  0.26687313109E+02  0.00000000000E+00 0.  1.
</event>
<event>
 7    1  0.6593656E-013  0.5930196E+02  0.7816164E-02  0.1266605E+00
        -11   -1    0    0    0    0  0.00000000000E+00  0.00000000000E+00  0.45593999997E+02  0.45594000000E+02  0.51100000000E-03 0.  1.
         11   -1    0    0    0    0 -0.00000000000E+00 -0.00000000000E+00 -0.45593999997E+02  0.45594000000E+02  0.51100000000E-03 0. -1.
    9900012    2    1    2    0    0 -0.26243187352E+02  0.11796896645E+02 -0.13742191864E+02  0.59301960891E+02  0.50000030754E+02 0.  0.
         12    1    1    2    0    0  0.26243187352E+02 -0.11796896645E+02  0.13742191864E+02  0.31886039109E+02  0.00000000000E+00 0. -1.
         11    1    3    3    0    0 -0.42754846990E+01 -0.36425756566E+01 -0.14563076064E+02  0.15608693460E+02  0.51100000000E-03 0. -1.
        -11    1    3    3    0    0 -0.37017622849E+00 -0.10080035046E+02  0.18037017195E+01  0.10246827662E+02  0.51100000000E-03 0.  1.
        -12    1    3    3    0    0 -0.21597526424E+02  0.25519507348E+02 -0.98281751953E+00  0.33446439769E+02  0.00000000000E+00 0.  1.
</event>
<event>
 7    1  0.8491415E-013  0.5930223E+02  0.7816164E-02  0.1266604E+00
        -11   -1    0    0    0    0  0.00000000000E+00  0.00000000000E+00  0.45593999997E+02  0.45594000000E+02  0.51100000000E-03 0.  1.
         11   -1    0    0    0    0 -0.00000000000E+00 -0.00000000000E+00 -0.45593999997E+02  0.45594000000E+02  0.51100000000E-03 0. -1.
    9900012    2    1    2    0    0  0.11622396001E+02 -0.24371270624E+02  0.16960650625E+02  0.59302225896E+02  0.50000514057E+02 0.  0.
         12    1    1    2    0    0 -0.11622396001E+02  0.24371270624E+02 -0.16960650625E+02  0.31885774104E+02  0.00000000000E+00 0. -1.
         11    1    3    3    0    0  0.65918598401E+01  0.47701356611E+00 -0.58278305991E+01  0.88115701125E+01  0.51100000000E-03 0. -1.
        -11    1    3    3    0    0  0.14872225606E+02  0.20665246124E+01  0.21353428337E+01  0.15166189625E+02  0.51100000000E-03 0.  1.
        -12    1    3    3    0    0 -0.98416894455E+01 -0.26914808802E+02  0.20653138390E+02  0.35324466158E+02  0.00000000000E+00 0.  1.
</event>
<event>
 7    1  0.6593656E-013  0.5930192E+02  0.7816164E-02  0.1266605E+00
        -11   -1    0    0    0    0  0.00000000000E+00  0.00000000000E+00  0.45593999997E+02  0.45594000000E+02  0.51100000000E-03 0. -1.
         11   -1    0    0    0    0 -0.00000000000E+00 -0.00000000000E+00 -0.45593999997E+02  0.45594000000E+02  0.51100000000E-03 0.  1.
    9900012    2    1    2    0    0 -0.25774002749E+02  0.13499860206E+02 -0.13045188403E+02  0.59301915515E+02  0.49999948000E+02 0.  0.
         12    1    1    2    0    0  0.25774002749E+02 -0.13499860206E+02  0.13045188403E+02  0.31886084485E+02  0.00000000000E+00 0. -1.
         11    1    3    3    0    0 -0.23813150523E+02  0.23784408615E+02  0.30808248542E+01  0.33797273751E+02  0.51100000000E-03 0. -1.
        -11    1    3    3    0    0 -0.12913741675E+01  0.45542543875E+01 -0.54105868653E+01  0.71891119587E+01  0.51100000000E-03 0.  1.
         12    1    3    3    0    0 -0.66947805836E+00 -0.14838802796E+02 -0.10715426392E+02  0.18315529805E+02  0.00000000000E+00 0. -1.
</event>
<event>
 7    1  0.6593656E-013  0.5930195E+02  0.7816164E-02  0.1266605E+00
        -11   -1    0    0    0    0  0.00000000000E+00  0.00000000000E+00  0.45593999997E+02  0.45594000000E+02  0.51100000000E-03 0.  1.
         11   -1    0    0    0    0 -0.00000000000E+00 -0.00000000000E+00 -0.45593999997E+02  0.45594000000E+02  0.51100000000E-03 0. -1.
    9900012    2    1    2    0    0 -0.25643089632E+02  0.24553927557E+01  0.18791571262E+02  0.59301950544E+02  0.50000011884E+02 0.  0.
         12    1    1    2    0    0  0.25643089632E+02 -0.24553927557E+01 -0.18791571262E+02  0.31886049456E+02  0.00000000000E+00 0. -1.
         11    1    3    3    0    0 -0.35582837012E+01 -0.20497691102E+02  0.86199972911E+01  0.22519348947E+02  0.51100000000E-03 0.  1.
        -11    1    3    3    0    0 -0.11196768847E+02  0.10812544865E+02 -0.29610020981E+01  0.15844440436E+02  0.51100000000E-03 0. -1.
        -12    1    3    3    0    0 -0.10888037084E+02  0.12140538993E+02  0.13132576069E+02  0.20938161161E+02  0.00000000000E+00 0.  1.
</event>
<event>
 7    1  0.6593656E-013  0.5930157E+02  0.7816164E-02  0.1266606E+00
        -11   -1    0    0    0    0  0.00000000000E+00  0.00000000000E+00  0.45593999997E+02  0.45594000000E+02  0.51100000000E-03 0. -1.
         11   -1    0    0    0    0 -0.00000000000E+00 -0.00000000000E+00 -0.45593999997E+02  0.45594000000E+02  0.51100000000E-03 0.  1.
    9900012    2    1    2    0    0 -0.29491990915E+02 -0.10804236943E+02 -0.54986454687E+01  0.59301573953E+02  0.49999325069E+02 0.  0.
         12    1    1    2    0    0  0.29491990915E+02  0.10804236943E+02  0.54986454687E+01  0.31886426047E+02  0.00000000000E+00 0. -1.
         11    1    3    3    0    0  0.18260415336E+01  0.73269623300E+01 -0.51523764420E+01  0.91414324878E+01  0.51100000000E-03 0. -1.
        -11    1    3    3    0    0 -0.15861611228E+02  0.57490229116E+01  0.10323346506E+02  0.19779116727E+02  0.51100000000E-03 0.  1.
        -12    1    3    3    0    0 -0.15456421221E+02 -0.23880222184E+02 -0.10669615533E+02  0.30381024738E+02  0.00000000000E+00 0.  1.
</event>
<event>
 7    1  0.6593656E-013  0.5930195E+02  0.7816164E-02  0.1266605E+00
        -11   -1    0    0    0    0  0.00000000000E+00  0.00000000000E+00  0.45593999997E+02  0.45594000000E+02  0.51100000000E-03 0.  1.
         11   -1    0    0    0    0 -0.00000000000E+00 -0.00000000000E+00 -0.45593999997E+02  0.45594000000E+02  0.51100000000E-03 0. -1.
    9900012    2    1    2    0    0  0.26784549326E+02  0.15951682479E+02 -0.66971721275E+01  0.59301947077E+02  0.50000005562E+02 0.  0.
         12    1    1    2    0    0 -0.26784549326E+02 -0.15951682479E+02  0.66971721275E+01  0.31886052923E+02  0.00000000000E+00 0. -1.
         11    1    3    3    0    0  0.92230358539E+01  0.57232213102E+01 -0.94277149501E+01  0.14377115913E+02  0.51100000000E-03 0. -1.
        -11    1    3    3    0    0 -0.43238905497E+01  0.18522053641E+02 -0.60020235823E+01  0.19944592949E+02  0.51100000000E-03 0.  1.
        -12    1    3    3    0    0  0.21885404021E+02 -0.82935924722E+01  0.87325664049E+01  0.24980238215E+02  0.00000000000E+00 0.  1.
</event>
<event>
 7    1  0.6593656E-013  0.5930194E+02  0.7816164E-02  0.1266605E+00
        -11   -1    0    0    0    0  0.00000000000E+00  0.00000000000E+00  0.45593999997E+02  0.45594000000E+02  0.51100000000E-03 0.  1.
         11   -1    0    0    0    0 -0.00000000000E+00 -0.00000000000E+00 -0.45593999997E+02  0.45594000000E+02  0.51100000000E-03 0. -1.
    9900012    2    1    2    0    0  0.78581007932E+01  0.92534089923E+01  0.29484665641E+02  0.59301939817E+02  0.49999992321E+02 0.  0.
         12    1    1    2    0    0 -0.78581007932E+01 -0.92534089923E+01 -0.29484665641E+02  0.31886060183E+02  0.00000000000E+00 0. -1.
         11    1    3    3    0    0  0.11093749618E+02 -0.30238076441E+01 -0.36331252582E+01  0.12058784875E+02  0.51100000000E-03 0. -1.
        -11    1    3    3    0    0 -0.72782010232E+01  0.59225539423E+01  0.37413792257E+02  0.38572538245E+02  0.51100000000E-03 0.  1.
         12    1    3    3    0    0  0.40425521986E+01  0.63546626942E+01 -0.42960013586E+01  0.86706166971E+01  0.00000000000E+00 0. -1.
</event>
<event>
 7    1  0.6593656E-013  0.5930195E+02  0.7816164E-02  0.1266605E+00
        -11   -1    0    0    0    0  0.00000000000E+00  0.00000000000E+00  0.45593999997E+02  0.45594000000E+02  0.51100000000E-03 0. -1.
         11   -1    0    0    0    0 -0.00000000000E+00 -0.00000000000E+00 -0.45593999997E+02  0.45594000000E+02  0.51100000000E-03 0.  1.
    9900012    2    1    2    0    0 -0.69890310942E+01 -0.68497530770E+01 -0.30347230841E+02  0.59301951444E+02  0.50000013525E+02 0.  0.
         12    1    1    2    0    0  0.69890310942E+01  0.68497530770E+01  0.30347230841E+02  0.31886048556E+02  0.00000000000E+00 0. -1.
         11    1    3    3    0    0 -0.90616076561E+01 -0.12816602931E+02 -0.82736213720E+01  0.17743473585E+02  0.51100000000E-03 0. -1.
        -11    1    3    3    0    0 -0.15445748765E+02 -0.41235905294E+00 -0.15238265931E+02  0.21701288989E+02  0.51100000000E-03 0.  1.
         12    1    3    3    0    0  0.17518325327E+02  0.63792089067E+01 -0.68353435371E+01  0.19857188870E+02  0.00000000000E+00 0. -1.
</event>
<event>
 7    1  0.6593656E-013  0.5930192E+02  0.7816164E-02  0.1266605E+00
        -11   -1    0    0    0    0  0.00000000000E+00  0.00000000000E+00  0.45593999997E+02  0.45594000000E+02  0.51100000000E-03 0.  1.
         11   -1    0    0    0    0 -0.00000000000E+00 -0.00000000000E+00 -0.45593999997E+02  0.45594000000E+02  0.51100000000E-03 0. -1.
    9900012    2    1    2    0    0  0.22517189740E+02 -0.10303926974E+01  0.22552969678E+02  0.59301921781E+02  0.49999959427E+02 0.  0.
         12    1    1    2    0    0 -0.22517189740E+02  0.10303926974E+01 -0.22552969678E+02  0.31886078219E+02  0.00000000000E+00 0. -1.
         11    1    3    3    0    0 -0.22476888004E+01  0.60693397350E+01  0.10785950165E+02  0.12578780187E+02  0.51100000000E-03 0. -1.
        -11    1    3    3    0    0  0.44411309392E+01 -0.12945775839E+02  0.19826480179E+02  0.24091618307E+02  0.51100000000E-03 0.  1.
         12    1    3    3    0    0  0.20323747601E+02  0.58460434067E+01 -0.80594606660E+01  0.22631523287E+02  0.00000000000E+00 0. -1.
</event>
<event>
 7    1  0.6593656E-013  0.5930195E+02  0.7816164E-02  0.1266605E+00
        -11   -1    0    0    0    0  0.00000000000E+00  0.00000000000E+00  0.45593999997E+02  0.45594000000E+02  0.51100000000E-03 0. -1.
         11   -1    0    0    0    0 -0.00000000000E+00 -0.00000000000E+00 -0.45593999997E+02  0.45594000000E+02  0.51100000000E-03 0.  1.
    9900012    2    1    2    0    0 -0.13529570387E+02 -0.15736361487E+02 -0.24208219496E+02  0.59301949149E+02  0.50000009339E+02 0.  0.
         12    1    1    2    0    0  0.13529570387E+02  0.15736361487E+02  0.24208219496E+02  0.31886050851E+02  0.00000000000E+00 0. -1.
         11    1    3    3    0    0 -0.92512441757E+01  0.78490701080E+01 -0.62699438561E+01  0.13656705920E+02  0.51100000000E-03 0. -1.
        -11    1    3    3    0    0  0.76431467625E+01  0.54821903834E+01  0.12217554879E+00  0.94067545391E+01  0.51100000000E-03 0.  1.
         12    1    3    3    0    0 -0.11921472974E+02 -0.29067621979E+02 -0.18060451189E+02  0.36238488690E+02  0.00000000000E+00 0. -1.
</event>
<event>
 7    1  0.6593656E-013  0.5930199E+02  0.7816164E-02  0.1266605E+00
        -11   -1    0    0    0    0  0.00000000000E+00  0.00000000000E+00  0.45593999997E+02  0.45594000000E+02  0.51100000000E-03 0. -1.
         11   -1    0    0    0    0 -0.00000000000E+00 -0.00000000000E+00 -0.45593999997E+02  0.45594000000E+02  0.51100000000E-03 0.  1.
    9900012    2    1    2    0    0 -0.78003383574E+01  0.17486258143E+02 -0.25497115334E+02  0.59301993779E+02  0.50000090735E+02 0.  0.
         12    1    1    2    0    0  0.78003383574E+01 -0.17486258143E+02  0.25497115334E+02  0.31886006221E+02  0.00000000000E+00 0. -1.
         11    1    3    3    0    0  0.93635112854E+00  0.19191992598E+02 -0.11142456786E+01  0.19247100483E+02  0.51100000000E-03 0. -1.
        -11    1    3    3    0    0 -0.12144040782E+02  0.11939470648E+02 -0.91899057262E+01  0.19351564624E+02  0.51100000000E-03 0.  1.
         12    1    3    3    0    0  0.34073512959E+01 -0.13645205103E+02 -0.15192963929E+02  0.20703328672E+02  0.00000000000E+00 0. -1.
</event>
<event>
 7    1  0.6593656E-013  0.5930195E+02  0.7816164E-02  0.1266605E+00
        -11   -1    0    0    0    0  0.00000000000E+00  0.00000000000E+00  0.45593999997E+02  0.45594000000E+02  0.51100000000E-03 0.  1.
         11   -1    0    0    0    0 -0.00000000000E+00 -0.00000000000E+00 -0.45593999997E+02  0.45594000000E+02  0.51100000000E-03 0. -1.
    9900012    2    1    2    0    0 -0.40932436607E+01  0.28791556023E+02  0.13077142274E+02  0.59301953021E+02  0.50000016402E+02 0.  0.
         12    1    1    2    0    0  0.40932436607E+01 -0.28791556023E+02 -0.13077142274E+02  0.31886046979E+02  0.00000000000E+00 0. -1.
         11    1    3    3    0    0 -0.37030412999E+01 -0.75052137798E+00 -0.67157685692E+01  0.77056696623E+01  0.51100000000E-03 0. -1.
        -11    1    3    3    0    0 -0.21162859294E+00  0.28044913012E+02 -0.34922988612E+01  0.28262308542E+02  0.51100000000E-03 0.  1.
         12    1    3    3    0    0 -0.17857376783E+00  0.14971643882E+01  0.23285209704E+02  0.23333974817E+02  0.00000000000E+00 0. -1.
</event>
<event>
 7    1  0.6593656E-013  0.5930195E+02  0.7816164E-02  0.1266605E+00
        -11   -1    0    0    0    0  0.00000000000E+00  0.00000000000E+00  0.45593999997E+02  0.45594000000E+02  0.51100000000E-03 0. -1.
         11   -1    0    0    0    0 -0.00000000000E+00 -0.00000000000E+00 -0.45593999997E+02  0.45594000000E+02  0.51100000000E-03 0.  1.
    9900012    2    1    2    0    0 -0.10060199079E+02 -0.30180109211E+02 -0.21617767282E+01  0.59301954837E+02  0.50000019713E+02 0.  0.
         12    1    1    2    0    0  0.10060199079E+02  0.30180109211E+02  0.21617767282E+01  0.31886045163E+02  0.00000000000E+00 0. -1.
         11    1    3    3    0    0  0.10699538495E+02 -0.44467014598E+01 -0.12069776594E+02  0.16731191983E+02  0.51100000000E-03 0. -1.
        -11    1    3    3    0    0 -0.16069858804E+01 -0.13058596847E+01 -0.69470055510E+01  0.72490385240E+01  0.51100000000E-03 0.  1.
         12    1    3    3    0    0 -0.19152751694E+02 -0.24427548067E+02  0.16855005417E+02  0.35321724330E+02  0.00000000000E+00 0. -1.
</event>
<event>
 7    1  0.6593656E-013  0.5930215E+02  0.7816164E-02  0.1266604E+00
        -11   -1    0    0    0    0  0.00000000000E+00  0.00000000000E+00  0.45593999997E+02  0.45594000000E+02  0.51100000000E-03 0. -1.
         11   -1    0    0    0    0 -0.00000000000E+00 -0.00000000000E+00 -0.45593999997E+02  0.45594000000E+02  0.51100000000E-03 0.  1.
    9900012    2    1    2    0    0  0.94676534523E+01  0.28227277967E+02  0.11414546854E+02  0.59302147915E+02  0.50000371840E+02 0.  0.
         12    1    1    2    0    0 -0.94676534523E+01 -0.28227277967E+02 -0.11414546854E+02  0.31885852085E+02  0.00000000000E+00 0. -1.
         11    1    3    3    0    0  0.83453958922E+01  0.19800182024E+02 -0.48167724230E+01  0.22020311933E+02  0.51100000000E-03 0. -1.
        -11    1    3    3    0    0 -0.15357150455E+01  0.19528658521E+02  0.16865345957E+02  0.25848922972E+02  0.51100000000E-03 0.  1.
         12    1    3    3    0    0  0.26579726056E+01 -0.11101562579E+02 -0.63402667921E+00  0.11432913010E+02  0.00000000000E+00 0. -1.
</event>
