<event>
 7    1  0.5417298E-010  0.4778727E+02  0.7816164E-02  0.1312668E+00
        -11   -1    0    0    0    0  0.00000000000E+00  0.00000000000E+00  0.45593999997E+02  0.45594000000E+02  0.51100000000E-03 0.  1.
         11   -1    0    0    0    0 -0.00000000000E+00 -0.00000000000E+00 -0.45593999997E+02  0.45594000000E+02  0.51100000000E-03 0. -1.
    9900012    2    1    2    0    0  0.17586565963E+02  0.17955003044E+02  0.35382959736E+02  0.47787271016E+02  0.19999999868E+02 0.  0.
         12    1    1    2    0    0 -0.17586565963E+02 -0.17955003044E+02 -0.35382959736E+02  0.43400728984E+02  0.00000000000E+00 0. -1.
         11    1    3    3    0    0  0.97652158418E+01  0.32665032823E+01  0.12743253256E+02  0.16383527946E+02  0.51100000000E-03 0. -1.
        -11    1    3    3    0    0  0.11359374315E+02  0.73140584246E+01  0.15334383992E+02  0.20437078268E+02  0.51100000000E-03 0.  1.
         12    1    3    3    0    0 -0.35380241930E+01  0.73744413374E+01  0.73053224880E+01  0.10966664802E+02  0.00000000000E+00 0. -1.
</event>
<event>
 7    1  0.5417298E-010  0.4778727E+02  0.7816164E-02  0.1312668E+00
        -11   -1    0    0    0    0  0.00000000000E+00  0.00000000000E+00  0.45593999997E+02  0.45594000000E+02  0.51100000000E-03 0. -1.
         11   -1    0    0    0    0 -0.00000000000E+00 -0.00000000000E+00 -0.45593999997E+02  0.45594000000E+02  0.51100000000E-03 0.  1.
    9900012    2    1    2    0    0  0.22347738893E+02  0.25809691372E+02 -0.26796676983E+02  0.47787268443E+02  0.19999988140E+02 0.  0.
         12    1    1    2    0    0 -0.22347738893E+02 -0.25809691372E+02  0.26796676983E+02  0.43400731557E+02  0.00000000000E+00 0. -1.
         11    1    3    3    0    0  0.88589374411E+01  0.12335539510E+01 -0.83366563073E+01  0.12227111948E+02  0.51100000000E-03 0. -1.
        -11    1    3    3    0    0  0.69228989335E+01  0.11246147953E+02 -0.15580563208E+02  0.20424405097E+02  0.51100000000E-03 0.  1.
        -12    1    3    3    0    0  0.65659025186E+01  0.13329989467E+02 -0.28794574679E+01  0.15135751398E+02  0.00000000000E+00 0.  1.
</event>
<event>
 7    1  0.5417298E-010  0.4778726E+02  0.7816164E-02  0.1312668E+00
        -11   -1    0    0    0    0  0.00000000000E+00  0.00000000000E+00  0.45593999997E+02  0.45594000000E+02  0.51100000000E-03 0. -1.
         11   -1    0    0    0    0 -0.00000000000E+00 -0.00000000000E+00 -0.45593999997E+02  0.45594000000E+02  0.51100000000E-03 0.  1.
    9900012    2    1    2    0    0 -0.75209521509E+01 -0.42400732923E+02  0.54071443126E+01  0.47787261720E+02  0.19999957484E+02 0.  0.
         12    1    1    2    0    0  0.75209521509E+01  0.42400732923E+02 -0.54071443126E+01  0.43400738280E+02  0.00000000000E+00 0. -1.
         11    1    3    3    0    0 -0.14709965990E+01 -0.64781008558E+01 -0.60295814470E+01  0.89713697048E+01  0.51100000000E-03 0. -1.
        -11    1    3    3    0    0 -0.40902194331E+01 -0.13985361475E+02  0.14830548066E+01  0.14646490447E+02  0.51100000000E-03 0.  1.
         12    1    3    3    0    0 -0.19597361188E+01 -0.21937270592E+02  0.99536709530E+01  0.24169401567E+02  0.00000000000E+00 0. -1.
</event>
<event>
 7    1  0.5417298E-010  0.4778727E+02  0.7816164E-02  0.1312668E+00
        -11   -1    0    0    0    0  0.00000000000E+00  0.00000000000E+00  0.45593999997E+02  0.45594000000E+02  0.51100000000E-03 0. -1.
         11   -1    0    0    0    0 -0.00000000000E+00 -0.00000000000E+00 -0.45593999997E+02  0.45594000000E+02  0.51100000000E-03 0.  1.
    9900012    2    1    2    0    0 -0.98874043936E+01  0.17778823837E+02 -0.38337655274E+02  0.47787272418E+02  0.20000006265E+02 0.  0.
         12    1    1    2    0    0  0.98874043936E+01 -0.17778823837E+02  0.38337655274E+02  0.43400727582E+02  0.00000000000E+00 0. -1.
         11    1    3    3    0    0 -0.38024666432E+01 -0.33026375410E+01 -0.12322987468E+02  0.13312482402E+02  0.51100000000E-03 0. -1.
        -11    1    3    3    0    0 -0.95951925613E+00  0.65216892029E+00 -0.32984250538E+01  0.34965139211E+01  0.51100000000E-03 0.  1.
        -12    1    3    3    0    0 -0.51254184943E+01  0.20429292458E+02 -0.22716242753E+02  0.30978276096E+02  0.00000000000E+00 0.  1.
</event>
<event>
 7    1  0.7541960E-010  0.4778727E+02  0.7816164E-02  0.1312668E+00
        -11   -1    0    0    0    0  0.00000000000E+00  0.00000000000E+00  0.45593999997E+02  0.45594000000E+02  0.51100000000E-03 0.  1.
         11   -1    0    0    0    0 -0.00000000000E+00 -0.00000000000E+00 -0.45593999997E+02  0.45594000000E+02  0.51100000000E-03 0. -1.
    9900012    2    1    2    0    0 -0.24917282310E+02 -0.15779968245E+02  0.31839361365E+02  0.47787270885E+02  0.19999999275E+02 0.  0.
         12    1    1    2    0    0  0.24917282310E+02  0.15779968245E+02 -0.31839361365E+02  0.43400729115E+02  0.00000000000E+00 0. -1.
         11    1    3    3    0    0 -0.89605434865E+01 -0.11983618583E+01  0.10928772368E+02  0.14183281583E+02  0.51100000000E-03 0. -1.
        -11    1    3    3    0    0 -0.88031561948E+01 -0.41985885655E+01  0.69410527167E+00  0.97778058542E+01  0.51100000000E-03 0.  1.
        -12    1    3    3    0    0 -0.71535826289E+01 -0.10383017821E+02  0.20216483725E+02  0.23826183449E+02  0.00000000000E+00 0.  1.
</event>
<event>
 7    1  0.5417298E-010  0.4778727E+02  0.7816164E-02  0.1312668E+00
        -11   -1    0    0    0    0  0.00000000000E+00  0.00000000000E+00  0.45593999997E+02  0.45594000000E+02  0.51100000000E-03 0. -1.
         11   -1    0    0    0    0 -0.00000000000E+00 -0.00000000000E+00 -0.45593999997E+02  0.45594000000E+02  0.51100000000E-03 0.  1.
    9900012    2    1    2    0    0 -0.58639787127E+01 -0.43002288530E+02 -0.19977161787E+00  0.47787274501E+02  0.20000015758E+02 0.  0.
         12    1    1    2    0    0  0.58639787127E+01  0.43002288530E+02  0.19977161787E+00  0.43400725499E+02  0.00000000000E+00 0. -1.
         11    1    3    3    0    0 -0.34724014215E+01 -0.41861557622E+01  0.24977674741E+01  0.59850074614E+01  0.51100000000E-03 0. -1.
        -11    1    3    3    0    0 -0.60679586264E+01 -0.10746302285E+02  0.34885539090E+01  0.12824708313E+02  0.51100000000E-03 0.  1.
        -12    1    3    3    0    0  0.36763813352E+01 -0.28069830483E+02 -0.61860930010E+01  0.28977558726E+02  0.00000000000E+00 0.  1.
</event>
<event>
 7    1  0.5417298E-010  0.4778727E+02  0.7816164E-02  0.1312668E+00
        -11   -1    0    0    0    0  0.00000000000E+00  0.00000000000E+00  0.45593999997E+02  0.45594000000E+02  0.51100000000E-03 0.  1.
         11   -1    0    0    0    0 -0.00000000000E+00 -0.00000000000E+00 -0.45593999997E+02  0.45594000000E+02  0.51100000000E-03 0. -1.
    9900012    2    1    2    0    0  0.25499760661E+02 -0.34839558258E+02  0.44260969948E+01  0.47787274799E+02  0.20000017119E+02 0.  0.
         12    1    1    2    0    0 -0.25499760661E+02  0.34839558258E+02 -0.44260969948E+01  0.43400725201E+02  0.00000000000E+00 0. -1.
         11    1    3    3    0    0  0.14740864659E+02 -0.16972081105E+02  0.45653910896E+01  0.22938775556E+02  0.51100000000E-03 0. -1.
        -11    1    3    3    0    0  0.12809822831E+02 -0.18139436904E+02  0.14288609146E+01  0.22252468985E+02  0.51100000000E-03 0.  1.
        -12    1    3    3    0    0 -0.20509268296E+01  0.27195975146E+00 -0.15681550095E+01  0.25960302580E+01  0.00000000000E+00 0.  1.
</event>
<event>
 7    1  0.5417298E-010  0.4778728E+02  0.7816164E-02  0.1312668E+00
        -11   -1    0    0    0    0  0.00000000000E+00  0.00000000000E+00  0.45593999997E+02  0.45594000000E+02  0.51100000000E-03 0.  1.
         11   -1    0    0    0    0 -0.00000000000E+00 -0.00000000000E+00 -0.45593999997E+02  0.45594000000E+02  0.51100000000E-03 0. -1.
    9900012    2    1    2    0    0  0.13252615489E+02  0.21663156919E+02  0.35195151697E+02  0.47787275490E+02  0.20000020270E+02 0.  0.
         12    1    1    2    0    0 -0.13252615489E+02 -0.21663156919E+02 -0.35195151697E+02  0.43400724510E+02  0.00000000000E+00 0. -1.
         11    1    3    3    0    0  0.12701912470E+01  0.29945609707E+01 -0.19073952509E+01  0.37708007261E+01  0.51100000000E-03 0.  1.
        -11    1    3    3    0    0 -0.35230680165E+00 -0.65266990604E+00  0.89034617376E+00  0.11587988000E+01  0.51100000000E-03 0. -1.
        -12    1    3    3    0    0  0.12334731044E+02  0.19321265855E+02  0.36212200774E+02  0.42857675964E+02  0.00000000000E+00 0.  1.
</event>
<event>
 7    1  0.5417298E-010  0.4778727E+02  0.7816164E-02  0.1312668E+00
        -11   -1    0    0    0    0  0.00000000000E+00  0.00000000000E+00  0.45593999997E+02  0.45594000000E+02  0.51100000000E-03 0.  1.
         11   -1    0    0    0    0 -0.00000000000E+00 -0.00000000000E+00 -0.45593999997E+02  0.45594000000E+02  0.51100000000E-03 0. -1.
    9900012    2    1    2    0    0 -0.10929014718E+01  0.37111481660E+02  0.22475920402E+02  0.47787268410E+02  0.19999987988E+02 0.  0.
         12    1    1    2    0    0  0.10929014718E+01 -0.37111481660E+02 -0.22475920402E+02  0.43400731590E+02  0.00000000000E+00 0. -1.
         11    1    3    3    0    0 -0.34724099370E+01  0.71432509369E+01  0.50149584363E+01  0.93932674346E+01  0.51100000000E-03 0. -1.
        -11    1    3    3    0    0  0.38422078686E+01  0.42761342580E+01 -0.20465040260E+01  0.61021360595E+01  0.51100000000E-03 0.  1.
        -12    1    3    3    0    0 -0.14626994035E+01  0.25692096465E+02  0.19507465992E+02  0.32291864916E+02  0.00000000000E+00 0.  1.
</event>
<event>
 7    1  0.5417298E-010  0.4778727E+02  0.7816164E-02  0.1312668E+00
        -11   -1    0    0    0    0  0.00000000000E+00  0.00000000000E+00  0.45593999997E+02  0.45594000000E+02  0.51100000000E-03 0.  1.
         11   -1    0    0    0    0 -0.00000000000E+00 -0.00000000000E+00 -0.45593999997E+02  0.45594000000E+02  0.51100000000E-03 0. -1.
    9900012    2    1    2    0    0  0.30733927479E+02 -0.12876584340E+02  0.27807237910E+02  0.47787271864E+02  0.20000003737E+02 0.  0.
         12    1    1    2    0    0 -0.30733927479E+02  0.12876584340E+02 -0.27807237910E+02  0.43400728136E+02  0.00000000000E+00 0. -1.
         11    1    3    3    0    0  0.41552204877E+01 -0.64870373800E+01  0.39593718462E+01  0.86616474731E+01  0.51100000000E-03 0. -1.
        -11    1    3    3    0    0 -0.16576677437E+01 -0.10060135887E+00  0.31313559497E+01  0.35444849169E+01  0.51100000000E-03 0.  1.
        -12    1    3    3    0    0  0.28236374735E+02 -0.62889456013E+01  0.20716510114E+02  0.35581139474E+02  0.00000000000E+00 0.  1.
</event>
<event>
 7    1  0.5417298E-010  0.4778727E+02  0.7816164E-02  0.1312668E+00
        -11   -1    0    0    0    0  0.00000000000E+00  0.00000000000E+00  0.45593999997E+02  0.45594000000E+02  0.51100000000E-03 0. -1.
         11   -1    0    0    0    0 -0.00000000000E+00 -0.00000000000E+00 -0.45593999997E+02  0.45594000000E+02  0.51100000000E-03 0.  1.
    9900012    2    1    2    0    0 -0.35141829480E+02 -0.22297103642E+02 -0.12309115502E+02  0.47787270346E+02  0.19999996815E+02 0.  0.
         12    1    1    2    0    0  0.35141829480E+02  0.22297103642E+02  0.12309115502E+02  0.43400729654E+02  0.00000000000E+00 0. -1.
         11    1    3    3    0    0 -0.88356559500E+01  0.25062637312E+01 -0.25151953931E+01  0.95224147192E+01  0.51100000000E-03 0. -1.
        -11    1    3    3    0    0  0.76850575383E-02 -0.76094224664E-01 -0.11279704808E+01  0.11305605061E+01  0.51100000000E-03 0.  1.
        -12    1    3    3    0    0 -0.26313858588E+02 -0.24727273149E+02 -0.86659496284E+01  0.37134295121E+02  0.00000000000E+00 0.  1.
</event>
<event>
 7    1  0.5417298E-010  0.4778727E+02  0.7816164E-02  0.1312668E+00
        -11   -1    0    0    0    0  0.00000000000E+00  0.00000000000E+00  0.45593999997E+02  0.45594000000E+02  0.51100000000E-03 0.  1.
         11   -1    0    0    0    0 -0.00000000000E+00 -0.00000000000E+00 -0.45593999997E+02  0.45594000000E+02  0.51100000000E-03 0. -1.
    9900012    2    1    2    0    0  0.20842421193E+02  0.28667017169E+02  0.25048324592E+02  0.47787274667E+02  0.20000016519E+02 0.  0.
         12    1    1    2    0    0 -0.20842421193E+02 -0.28667017169E+02 -0.25048324592E+02  0.43400725333E+02  0.00000000000E+00 0. -1.
         11    1    3    3    0    0  0.38420922645E+01  0.68703680926E+01  0.10419464186E+02  0.13058670104E+02  0.51100000000E-03 0. -1.
        -11    1    3    3    0    0  0.48809626622E+01  0.11824152429E+02  0.14081348860E+02  0.19024162613E+02  0.51100000000E-03 0.  1.
        -12    1    3    3    0    0  0.12119366266E+02  0.99724966472E+01  0.54751154602E+00  0.15704441950E+02  0.00000000000E+00 0.  1.
</event>
<event>
 7    1  0.5417298E-010  0.4778727E+02  0.7816164E-02  0.1312668E+00
        -11   -1    0    0    0    0  0.00000000000E+00  0.00000000000E+00  0.45593999997E+02  0.45594000000E+02  0.51100000000E-03 0.  1.
         11   -1    0    0    0    0 -0.00000000000E+00 -0.00000000000E+00 -0.45593999997E+02  0.45594000000E+02  0.51100000000E-03 0. -1.
    9900012    2    1    2    0    0  0.16728111743E+02  0.31590420211E+02  0.24613798630E+02  0.47787268962E+02  0.19999990507E+02 0.  0.
         12    1    1    2    0    0 -0.16728111743E+02 -0.31590420211E+02 -0.24613798630E+02  0.43400731038E+02  0.00000000000E+00 0. -1.
         11    1    3    3    0    0  0.43320263731E+01  0.74269038931E+01  0.13531451769E+02  0.16032016129E+02  0.51100000000E-03 0.  1.
        -11    1    3    3    0    0  0.46028628338E+01  0.35376191964E+00  0.85284658384E+00  0.46945544325E+01  0.51100000000E-03 0. -1.
         12    1    3    3    0    0  0.77932225356E+01  0.23809754398E+02  0.10229500277E+02  0.27060698401E+02  0.00000000000E+00 0. -1.
</event>
<event>
 7    1  0.5417298E-010  0.4778728E+02  0.7816164E-02  0.1312668E+00
        -11   -1    0    0    0    0  0.00000000000E+00  0.00000000000E+00  0.45593999997E+02  0.45594000000E+02  0.51100000000E-03 0.  1.
         11   -1    0    0    0    0 -0.00000000000E+00 -0.00000000000E+00 -0.45593999997E+02  0.45594000000E+02  0.51100000000E-03 0. -1.
    9900012    2    1    2    0    0 -0.19292429849E+02  0.38739517521E+02  0.32671885024E+01  0.47787278946E+02  0.20000036028E+02 0.  0.
         12    1    1    2    0    0  0.19292429849E+02 -0.38739517521E+02 -0.32671885024E+01  0.43400721054E+02  0.00000000000E+00 0. -1.
         11    1    3    3    0    0 -0.73431143194E+01  0.96126454828E+01  0.11353891691E+01  0.12149625093E+02  0.51100000000E-03 0.  1.
        -11    1    3    3    0    0 -0.43286992009E+01  0.26539203520E+02  0.44654763769E+01  0.27258162810E+02  0.51100000000E-03 0. -1.
         12    1    3    3    0    0 -0.76206163287E+01  0.25876685182E+01 -0.23336770435E+01  0.83794910425E+01  0.00000000000E+00 0. -1.
</event>
<event>
 7    1  0.5417298E-010  0.4778727E+02  0.7816164E-02  0.1312668E+00
        -11   -1    0    0    0    0  0.00000000000E+00  0.00000000000E+00  0.45593999997E+02  0.45594000000E+02  0.51100000000E-03 0.  1.
         11   -1    0    0    0    0 -0.00000000000E+00 -0.00000000000E+00 -0.45593999997E+02  0.45594000000E+02  0.51100000000E-03 0. -1.
    9900012    2    1    2    0    0  0.23092021559E+02  0.62317646840E+01  0.36215281683E+02  0.47787274452E+02  0.20000015536E+02 0.  0.
         12    1    1    2    0    0 -0.23092021559E+02 -0.62317646840E+01 -0.36215281683E+02  0.43400725548E+02  0.00000000000E+00 0. -1.
         11    1    3    3    0    0  0.64951058934E+01 -0.47048585827E+01  0.19043212215E+02  0.20663156259E+02  0.51100000000E-03 0. -1.
        -11    1    3    3    0    0  0.43261428664E+01  0.66254410450E+01  0.76387052806E+01  0.10998263489E+02  0.51100000000E-03 0.  1.
         12    1    3    3    0    0  0.12270772799E+02  0.43111822218E+01  0.95333641872E+01  0.16125854705E+02  0.00000000000E+00 0. -1.
</event>
<event>
 7    1  0.5417298E-010  0.4778727E+02  0.7816164E-02  0.1312668E+00
        -11   -1    0    0    0    0  0.00000000000E+00  0.00000000000E+00  0.45593999997E+02  0.45594000000E+02  0.51100000000E-03 0.  1.
         11   -1    0    0    0    0 -0.00000000000E+00 -0.00000000000E+00 -0.45593999997E+02  0.45594000000E+02  0.51100000000E-03 0. -1.
    9900012    2    1    2    0    0 -0.25822345196E+02 -0.66887574620E+01  0.34235805970E+02  0.47787269612E+02  0.19999993468E+02 0.  0.
         12    1    1    2    0    0  0.25822345196E+02  0.66887574620E+01 -0.34235805970E+02  0.43400730388E+02  0.00000000000E+00 0. -1.
         11    1    3    3    0    0 -0.16324565672E+01 -0.78345557896E+01  0.83499116155E+01  0.11565734007E+02  0.51100000000E-03 0. -1.
        -11    1    3    3    0    0 -0.37649112804E+01  0.14879753108E+01  0.12900735374E+01  0.42488724937E+01  0.51100000000E-03 0.  1.
        -12    1    3    3    0    0 -0.20424977349E+02 -0.34217698313E+00  0.24595820817E+02  0.31972663112E+02  0.00000000000E+00 0.  1.
</event>
<event>
 7    1  0.5417298E-010  0.4778727E+02  0.7816164E-02  0.1312668E+00
        -11   -1    0    0    0    0  0.00000000000E+00  0.00000000000E+00  0.45593999997E+02  0.45594000000E+02  0.51100000000E-03 0.  1.
         11   -1    0    0    0    0 -0.00000000000E+00 -0.00000000000E+00 -0.45593999997E+02  0.45594000000E+02  0.51100000000E-03 0. -1.
    9900012    2    1    2    0    0 -0.76895827887E+01 -0.24285912803E+02  0.35138128089E+02  0.47787270862E+02  0.19999999166E+02 0.  0.
         12    1    1    2    0    0  0.76895827887E+01  0.24285912803E+02 -0.35138128089E+02  0.43400729138E+02  0.00000000000E+00 0. -1.
         11    1    3    3    0    0  0.14382770876E+01 -0.24200023945E+00  0.10955924817E+01  0.18241513763E+01  0.51100000000E-03 0. -1.
        -11    1    3    3    0    0 -0.12704216134E+02 -0.23431593028E+02  0.26461872127E+02  0.37558851635E+02  0.51100000000E-03 0.  1.
        -12    1    3    3    0    0  0.35763562578E+01 -0.61231953572E+00  0.75806634805E+01  0.84042678504E+01  0.00000000000E+00 0.  1.
</event>
<event>
 7    1  0.5417298E-010  0.4778727E+02  0.7816164E-02  0.1312668E+00
        -11   -1    0    0    0    0  0.00000000000E+00  0.00000000000E+00  0.45593999997E+02  0.45594000000E+02  0.51100000000E-03 0. -1.
         11   -1    0    0    0    0 -0.00000000000E+00 -0.00000000000E+00 -0.45593999997E+02  0.45594000000E+02  0.51100000000E-03 0.  1.
    9900012    2    1    2    0    0 -0.29639229470E+01 -0.41261472767E+02  0.13127444177E+02  0.47787265389E+02  0.19999974216E+02 0.  0.
         12    1    1    2    0    0  0.29639229470E+01  0.41261472767E+02 -0.13127444177E+02  0.43400734611E+02  0.00000000000E+00 0. -1.
         11    1    3    3    0    0  0.32299784778E+01 -0.33127973372E+01  0.36002788428E+00  0.46407981537E+01  0.51100000000E-03 0. -1.
        -11    1    3    3    0    0 -0.35234236866E+01 -0.40800471080E+00  0.15832539215E+01  0.38842857207E+01  0.51100000000E-03 0.  1.
         12    1    3    3    0    0 -0.26704777382E+01 -0.37540670719E+02  0.11184162372E+02  0.39262181515E+02  0.00000000000E+00 0. -1.
</event>
<event>
 7    1  0.5417298E-010  0.4778727E+02  0.7816164E-02  0.1312668E+00
        -11   -1    0    0    0    0  0.00000000000E+00  0.00000000000E+00  0.45593999997E+02  0.45594000000E+02  0.51100000000E-03 0. -1.
         11   -1    0    0    0    0 -0.00000000000E+00 -0.00000000000E+00 -0.45593999997E+02  0.45594000000E+02  0.51100000000E-03 0.  1.
    9900012    2    1    2    0    0  0.38940474613E+02  0.97151841929E+01 -0.16519026459E+02  0.47787267263E+02  0.19999982757E+02 0.  0.
         12    1    1    2    0    0 -0.38940474613E+02 -0.97151841929E+01  0.16519026459E+02  0.43400732737E+02  0.00000000000E+00 0. -1.
         11    1    3    3    0    0 -0.42429284711E+00  0.12152276088E+01 -0.27694850712E+01  0.30539892570E+01  0.51100000000E-03 0. -1.
        -11    1    3    3    0    0  0.13450588930E+02  0.54340206337E+01 -0.11554915388E+02  0.18546239315E+02  0.51100000000E-03 0.  1.
        -12    1    3    3    0    0  0.25914178530E+02  0.30659359504E+01 -0.21946259996E+01  0.26187038691E+02  0.00000000000E+00 0.  1.
</event>
<event>
 7    1  0.5417298E-010  0.4778727E+02  0.7816164E-02  0.1312668E+00
        -11   -1    0    0    0    0  0.00000000000E+00  0.00000000000E+00  0.45593999997E+02  0.45594000000E+02  0.51100000000E-03 0. -1.
         11   -1    0    0    0    0 -0.00000000000E+00 -0.00000000000E+00 -0.45593999997E+02  0.45594000000E+02  0.51100000000E-03 0.  1.
    9900012    2    1    2    0    0 -0.19675517405E+02 -0.85692216368E+01 -0.37723543873E+02  0.47787270664E+02  0.19999998264E+02 0.  0.
         12    1    1    2    0    0  0.19675517405E+02  0.85692216368E+01  0.37723543873E+02  0.43400729336E+02  0.00000000000E+00 0. -1.
         11    1    3    3    0    0  0.59380970840E-01 -0.33847970166E+01 -0.12034644717E+02  0.12501721908E+02  0.51100000000E-03 0. -1.
        -11    1    3    3    0    0 -0.62329706648E+01 -0.79823129640E+01 -0.13537728086E+02  0.16906724270E+02  0.51100000000E-03 0.  1.
         12    1    3    3    0    0 -0.13501927711E+02  0.27978883438E+01 -0.12151171070E+02  0.18378824486E+02  0.00000000000E+00 0. -1.
</event>
<event>
 7    1  0.5417298E-010  0.4778727E+02  0.7816164E-02  0.1312668E+00
        -11   -1    0    0    0    0  0.00000000000E+00  0.00000000000E+00  0.45593999997E+02  0.45594000000E+02  0.51100000000E-03 0.  1.
         11   -1    0    0    0    0 -0.00000000000E+00 -0.00000000000E+00 -0.45593999997E+02  0.45594000000E+02  0.51100000000E-03 0. -1.
    9900012    2    1    2    0    0 -0.10721215896E+02 -0.12103261150E+02  0.40276418970E+02  0.47787270446E+02  0.19999997273E+02 0.  0.
         12    1    1    2    0    0  0.10721215896E+02  0.12103261150E+02 -0.40276418970E+02  0.43400729554E+02  0.00000000000E+00 0. -1.
         11    1    3    3    0    0 -0.77512592299E+01 -0.15161943485E+02  0.18896900254E+02  0.25437362076E+02  0.51100000000E-03 0. -1.
        -11    1    3    3    0    0 -0.26043261833E+00  0.29105544478E+01  0.53844383221E+01  0.61262817963E+01  0.51100000000E-03 0.  1.
        -12    1    3    3    0    0 -0.27095240475E+01  0.14812788718E+00  0.15995080394E+02  0.16223626575E+02  0.00000000000E+00 0.  1.
</event>
<event>
 7    1  0.5417298E-010  0.4778727E+02  0.7816164E-02  0.1312668E+00
        -11   -1    0    0    0    0  0.00000000000E+00  0.00000000000E+00  0.45593999997E+02  0.45594000000E+02  0.51100000000E-03 0.  1.
         11   -1    0    0    0    0 -0.00000000000E+00 -0.00000000000E+00 -0.45593999997E+02  0.45594000000E+02  0.51100000000E-03 0. -1.
    9900012    2    1    2    0    0 -0.41265010768E+02 -0.44035436224E+01 -0.12705552900E+02  0.47787269768E+02  0.19999994182E+02 0.  0.
         12    1    1    2    0    0  0.41265010768E+02  0.44035436224E+01  0.12705552900E+02  0.43400730232E+02  0.00000000000E+00 0. -1.
         11    1    3    3    0    0 -0.15176185742E+02  0.15261898014E+01 -0.10590060092E+02  0.18568662903E+02  0.51100000000E-03 0. -1.
        -11    1    3    3    0    0 -0.11852447778E+01  0.18249034308E+01 -0.22571140775E+01  0.31352259783E+01  0.51100000000E-03 0.  1.
        -12    1    3    3    0    0 -0.24903580248E+02 -0.77546368547E+01  0.14162126941E+00  0.26083380888E+02  0.00000000000E+00 0.  1.
</event>
<event>
 7    1  0.5417298E-010  0.4778727E+02  0.7816164E-02  0.1312668E+00
        -11   -1    0    0    0    0  0.00000000000E+00  0.00000000000E+00  0.45593999997E+02  0.45594000000E+02  0.51100000000E-03 0.  1.
         11   -1    0    0    0    0 -0.00000000000E+00 -0.00000000000E+00 -0.45593999997E+02  0.45594000000E+02  0.51100000000E-03 0. -1.
    9900012    2    1    2    0    0  0.69745431329E+01  0.15663968002E+02  0.39870025198E+02  0.47787273569E+02  0.20000011509E+02 0.  0.
         12    1    1    2    0    0 -0.69745431329E+01 -0.15663968002E+02 -0.39870025198E+02  0.43400726431E+02  0.00000000000E+00 0. -1.
         11    1    3    3    0    0  0.25058610607E+01  0.58615127212E+01  0.69903955683E+01  0.94605656014E+01  0.51100000000E-03 0. -1.
        -11    1    3    3    0    0  0.47619887501E+01  0.72985600113E+01  0.34329600137E+02  0.35418455090E+02  0.51100000000E-03 0.  1.
        -12    1    3    3    0    0 -0.29330667786E+00  0.25038952693E+01 -0.14499705077E+01  0.29082528776E+01  0.00000000000E+00 0.  1.
</event>
<event>
 7    1  0.5417298E-010  0.4778727E+02  0.7816164E-02  0.1312668E+00
        -11   -1    0    0    0    0  0.00000000000E+00  0.00000000000E+00  0.45593999997E+02  0.45594000000E+02  0.51100000000E-03 0.  1.
         11   -1    0    0    0    0 -0.00000000000E+00 -0.00000000000E+00 -0.45593999997E+02  0.45594000000E+02  0.51100000000E-03 0. -1.
    9900012    2    1    2    0    0 -0.20788954868E+02 -0.23642719377E+02  0.29874144708E+02  0.47787270212E+02  0.19999996205E+02 0.  0.
         12    1    1    2    0    0  0.20788954868E+02  0.23642719377E+02 -0.29874144708E+02  0.43400729788E+02  0.00000000000E+00 0. -1.
         11    1    3    3    0    0 -0.31565120771E+01 -0.13481425519E+01  0.25425401313E+01  0.42714830462E+01  0.51100000000E-03 0. -1.
        -11    1    3    3    0    0 -0.18311617973E+02 -0.19018433173E+02  0.29453335396E+02  0.39553952007E+02  0.51100000000E-03 0.  1.
         12    1    3    3    0    0  0.67917518144E+00 -0.32761436524E+01 -0.21217308193E+01  0.39618351591E+01  0.00000000000E+00 0. -1.
</event>
<event>
 7    1  0.5417298E-010  0.4778727E+02  0.7816164E-02  0.1312668E+00
        -11   -1    0    0    0    0  0.00000000000E+00  0.00000000000E+00  0.45593999997E+02  0.45594000000E+02  0.51100000000E-03 0. -1.
         11   -1    0    0    0    0 -0.00000000000E+00 -0.00000000000E+00 -0.45593999997E+02  0.45594000000E+02  0.51100000000E-03 0.  1.
    9900012    2    1    2    0    0 -0.18638022408E+02  0.25281847257E+02 -0.29951218500E+02  0.47787272245E+02  0.20000005474E+02 0.  0.
         12    1    1    2    0    0  0.18638022408E+02 -0.25281847257E+02  0.29951218500E+02  0.43400727755E+02  0.00000000000E+00 0. -1.
         11    1    3    3    0    0 -0.24156475914E+01  0.12315559332E+01  0.96223496456E+00  0.28771478396E+01  0.51100000000E-03 0. -1.
        -11    1    3    3    0    0  0.10207648004E+01 -0.34294429263E+00  0.80110671248E+00  0.13421414946E+01  0.51100000000E-03 0.  1.
        -12    1    3    3    0    0 -0.17243139617E+02  0.24393235616E+02 -0.31714560177E+02  0.43567982911E+02  0.00000000000E+00 0.  1.
</event>
<event>
 7    1  0.5417298E-010  0.4778727E+02  0.7816164E-02  0.1312668E+00
        -11   -1    0    0    0    0  0.00000000000E+00  0.00000000000E+00  0.45593999997E+02  0.45594000000E+02  0.51100000000E-03 0.  1.
         11   -1    0    0    0    0 -0.00000000000E+00 -0.00000000000E+00 -0.45593999997E+02  0.45594000000E+02  0.51100000000E-03 0. -1.
    9900012    2    1    2    0    0  0.19498399529E+02 -0.35555548104E+02  0.15467351183E+02  0.47787268004E+02  0.19999986139E+02 0.  0.
         12    1    1    2    0    0 -0.19498399529E+02  0.35555548104E+02 -0.15467351183E+02  0.43400731996E+02  0.00000000000E+00 0. -1.
         11    1    3    3    0    0  0.72932621326E+01 -0.25278639521E+01 -0.23064314353E+01  0.80561402000E+01  0.51100000000E-03 0. -1.
        -11    1    3    3    0    0  0.55523487887E+01 -0.94927527693E+01  0.42998842114E+01  0.11808045423E+02  0.51100000000E-03 0.  1.
         12    1    3    3    0    0  0.66527886074E+01 -0.23534931382E+02  0.13473898407E+02  0.27923082382E+02  0.00000000000E+00 0. -1.
</event>
<event>
 7    1  0.5417298E-010  0.4778727E+02  0.7816164E-02  0.1312668E+00
        -11   -1    0    0    0    0  0.00000000000E+00  0.00000000000E+00  0.45593999997E+02  0.45594000000E+02  0.51100000000E-03 0. -1.
         11   -1    0    0    0    0 -0.00000000000E+00 -0.00000000000E+00 -0.45593999997E+02  0.45594000000E+02  0.51100000000E-03 0.  1.
    9900012    2    1    2    0    0 -0.74308487860E+01  0.36194931513E+02  0.22766931056E+02  0.47787265782E+02  0.19999976007E+02 0.  0.
         12    1    1    2    0    0  0.74308487860E+01 -0.36194931513E+02 -0.22766931056E+02  0.43400734218E+02  0.00000000000E+00 0. -1.
         11    1    3    3    0    0 -0.19756612327E+01  0.78003869237E+01  0.11143884586E+02  0.13745378765E+02  0.51100000000E-03 0. -1.
        -11    1    3    3    0    0  0.48590720513E+00  0.79536879439E+01  0.98669694858E+01  0.12682836623E+02  0.51100000000E-03 0.  1.
        -12    1    3    3    0    0 -0.59410947584E+01  0.20440856646E+02  0.17560769842E+01  0.21359050394E+02  0.00000000000E+00 0.  1.
</event>
<event>
 7    1  0.5417298E-010  0.4778728E+02  0.7816164E-02  0.1312668E+00
        -11   -1    0    0    0    0  0.00000000000E+00  0.00000000000E+00  0.45593999997E+02  0.45594000000E+02  0.51100000000E-03 0.  1.
         11   -1    0    0    0    0 -0.00000000000E+00 -0.00000000000E+00 -0.45593999997E+02  0.45594000000E+02  0.51100000000E-03 0. -1.
    9900012    2    1    2    0    0 -0.31010450723E+02 -0.30358151642E+02  0.59789719490E+00  0.47787275280E+02  0.20000019313E+02 0.  0.
         12    1    1    2    0    0  0.31010450723E+02  0.30358151642E+02 -0.59789719490E+00  0.43400724720E+02  0.00000000000E+00 0. -1.
         11    1    3    3    0    0 -0.10596967136E+02 -0.12776576949E+02 -0.30244216983E+01  0.16872574133E+02  0.51100000000E-03 0. -1.
        -11    1    3    3    0    0 -0.16420948418E+02 -0.19999255598E+02  0.19261350917E+01  0.25948560038E+02  0.51100000000E-03 0.  1.
         12    1    3    3    0    0 -0.39925351686E+01  0.24176809041E+01  0.16961838015E+01  0.49661411090E+01  0.00000000000E+00 0. -1.
</event>
<event>
 7    1  0.5417298E-010  0.4778731E+02  0.7816164E-02  0.1312668E+00
        -11   -1    0    0    0    0  0.00000000000E+00  0.00000000000E+00  0.45593999997E+02  0.45594000000E+02  0.51100000000E-03 0.  1.
         11   -1    0    0    0    0 -0.00000000000E+00 -0.00000000000E+00 -0.45593999997E+02  0.45594000000E+02  0.51100000000E-03 0. -1.
    9900012    2    1    2    0    0 -0.53246150893E+01  0.13149267122E+02  0.41016644509E+02  0.47787310162E+02  0.20000178350E+02 0.  0.
         12    1    1    2    0    0  0.53246150893E+01 -0.13149267122E+02 -0.41016644509E+02  0.43400689838E+02  0.00000000000E+00 0. -1.
         11    1    3    3    0    0 -0.36182970517E+00  0.78778865985E+00  0.13344231442E+01  0.15912941579E+01  0.51100000000E-03 0. -1.
        -11    1    3    3    0    0 -0.64718668217E+01 -0.28132726354E+01  0.20561959098E+02  0.21739220898E+02  0.51100000000E-03 0.  1.
         12    1    3    3    0    0  0.15090814375E+01  0.15174751098E+02  0.19120262267E+02  0.24456795105E+02  0.00000000000E+00 0. -1.
</event>
<event>
 7    1  0.5417298E-010  0.4778727E+02  0.7816164E-02  0.1312668E+00
        -11   -1    0    0    0    0  0.00000000000E+00  0.00000000000E+00  0.45593999997E+02  0.45594000000E+02  0.51100000000E-03 0.  1.
         11   -1    0    0    0    0 -0.00000000000E+00 -0.00000000000E+00 -0.45593999997E+02  0.45594000000E+02  0.51100000000E-03 0. -1.
    9900012    2    1    2    0    0  0.19198221004E+01  0.18139240703E+02  0.39381537678E+02  0.47787270973E+02  0.19999999673E+02 0.  0.
         12    1    1    2    0    0 -0.19198221004E+01 -0.18139240703E+02 -0.39381537678E+02  0.43400729027E+02  0.00000000000E+00 0. -1.
         11    1    3    3    0    0 -0.62032081652E+00 -0.12301450348E+01  0.85941511043E+01  0.87038777672E+01  0.51100000000E-03 0. -1.
        -11    1    3    3    0    0 -0.25170085224E+01 -0.63093250731E+00  0.85822599081E+00  0.27331227274E+01  0.51100000000E-03 0.  1.
        -12    1    3    3    0    0  0.50571514393E+01  0.20000318245E+02  0.29929160583E+02  0.36350270478E+02  0.00000000000E+00 0.  1.
</event>
<event>
 7    1  0.5417298E-010  0.4778727E+02  0.7816164E-02  0.1312668E+00
        -11   -1    0    0    0    0  0.00000000000E+00  0.00000000000E+00  0.45593999997E+02  0.45594000000E+02  0.51100000000E-03 0. -1.
         11   -1    0    0    0    0 -0.00000000000E+00 -0.00000000000E+00 -0.45593999997E+02  0.45594000000E+02  0.51100000000E-03 0.  1.
    9900012    2    1    2    0    0 -0.25634676021E+02 -0.31890896994E+02 -0.14472649359E+02  0.47787268379E+02  0.19999987847E+02 0.  0.
         12    1    1    2    0    0  0.25634676021E+02  0.31890896994E+02  0.14472649359E+02  0.43400731621E+02  0.00000000000E+00 0. -1.
         11    1    3    3    0    0 -0.46614134877E+01 -0.74362630837E+01 -0.86805109681E+01  0.12344150651E+02  0.51100000000E-03 0.  1.
        -11    1    3    3    0    0 -0.20880287426E+02 -0.25751917065E+02 -0.42483450990E+01  0.33424483120E+02  0.51100000000E-03 0. -1.
         12    1    3    3    0    0 -0.92975107076E-01  0.12972831548E+01 -0.15437932916E+01  0.20186346082E+01  0.00000000000E+00 0. -1.
</event>
<event>
 7    1  0.5417298E-010  0.4778727E+02  0.7816164E-02  0.1312668E+00
        -11   -1    0    0    0    0  0.00000000000E+00  0.00000000000E+00  0.45593999997E+02  0.45594000000E+02  0.51100000000E-03 0.  1.
         11   -1    0    0    0    0 -0.00000000000E+00 -0.00000000000E+00 -0.45593999997E+02  0.45594000000E+02  0.51100000000E-03 0. -1.
    9900012    2    1    2    0    0  0.18982241810E+02 -0.36068776164E+02 -0.14911108533E+02  0.47787271022E+02  0.19999999900E+02 0.  0.
         12    1    1    2    0    0 -0.18982241810E+02  0.36068776164E+02  0.14911108533E+02  0.43400728978E+02  0.00000000000E+00 0. -1.
         11    1    3    3    0    0  0.10941309419E+02 -0.10704847632E+02 -0.30914979317E+01  0.15616125459E+02  0.51100000000E-03 0. -1.
        -11    1    3    3    0    0  0.14496320045E+01  0.13993065903E+01 -0.21866568007E+01  0.29733752046E+01  0.51100000000E-03 0.  1.
        -12    1    3    3    0    0  0.65913003862E+01 -0.26763235123E+02 -0.96329538008E+01  0.29197770359E+02  0.00000000000E+00 0.  1.
</event>
<event>
 7    1  0.5417298E-010  0.4778727E+02  0.7816164E-02  0.1312668E+00
        -11   -1    0    0    0    0  0.00000000000E+00  0.00000000000E+00  0.45593999997E+02  0.45594000000E+02  0.51100000000E-03 0.  1.
         11   -1    0    0    0    0 -0.00000000000E+00 -0.00000000000E+00 -0.45593999997E+02  0.45594000000E+02  0.51100000000E-03 0. -1.
    9900012    2    1    2    0    0 -0.63167866332E+01  0.20163985007E+02  0.37909564625E+02  0.47787272185E+02  0.20000005202E+02 0.  0.
         12    1    1    2    0    0  0.63167866332E+01 -0.20163985007E+02 -0.37909564625E+02  0.43400727815E+02  0.00000000000E+00 0. -1.
         11    1    3    3    0    0  0.85797380229E+00 -0.71073512853E+00 -0.64346137987E+00  0.12865870654E+01  0.51100000000E-03 0. -1.
        -11    1    3    3    0    0 -0.84819570603E+01  0.12554121611E+02  0.14326584834E+02  0.20851872776E+02  0.51100000000E-03 0.  1.
         12    1    3    3    0    0  0.13071966248E+01  0.83205985250E+01  0.24226441171E+02  0.25648812344E+02  0.00000000000E+00 0. -1.
</event>
<event>
 7    1  0.5417298E-010  0.4778727E+02  0.7816164E-02  0.1312668E+00
        -11   -1    0    0    0    0  0.00000000000E+00  0.00000000000E+00  0.45593999997E+02  0.45594000000E+02  0.51100000000E-03 0. -1.
         11   -1    0    0    0    0 -0.00000000000E+00 -0.00000000000E+00 -0.45593999997E+02  0.45594000000E+02  0.51100000000E-03 0.  1.
    9900012    2    1    2    0    0 -0.30033847831E+02 -0.25848187203E+02 -0.17704876782E+02  0.47787268911E+02  0.19999990271E+02 0.  0.
         12    1    1    2    0    0  0.30033847831E+02  0.25848187203E+02  0.17704876782E+02  0.43400731089E+02  0.00000000000E+00 0. -1.
         11    1    3    3    0    0 -0.18203418854E+02 -0.14722838241E+02 -0.80133208513E+01  0.24745499291E+02  0.51100000000E-03 0. -1.
        -11    1    3    3    0    0 -0.14245690211E+02 -0.98421173173E+01 -0.10423795404E+02  0.20210454566E+02  0.51100000000E-03 0.  1.
         12    1    3    3    0    0  0.24152612342E+01 -0.12832316454E+01  0.73223947341E+00  0.28313150534E+01  0.00000000000E+00 0. -1.
</event>
<event>
 7    1  0.5417298E-010  0.4778727E+02  0.7816164E-02  0.1312668E+00
        -11   -1    0    0    0    0  0.00000000000E+00  0.00000000000E+00  0.45593999997E+02  0.45594000000E+02  0.51100000000E-03 0. -1.
         11   -1    0    0    0    0 -0.00000000000E+00 -0.00000000000E+00 -0.45593999997E+02  0.45594000000E+02  0.51100000000E-03 0.  1.
    9900012    2    1    2    0    0  0.42524789060E+02  0.47435557021E+01 -0.72639093384E+01  0.47787269774E+02  0.19999994208E+02 0.  0.
         12    1    1    2    0    0 -0.42524789060E+02 -0.47435557021E+01  0.72639093384E+01  0.43400730226E+02  0.00000000000E+00 0. -1.
         11    1    3    3    0    0  0.33231623135E+01 -0.20910956238E+01 -0.50256228874E+01  0.63775366982E+01  0.51100000000E-03 0. -1.
        -11    1    3    3    0    0  0.96406762212E+01 -0.80888168503E+00  0.36014470409E+01  0.10323146256E+02  0.51100000000E-03 0.  1.
        -12    1    3    3    0    0  0.29560950525E+02  0.76435330110E+01 -0.58397334919E+01  0.31086586819E+02  0.00000000000E+00 0.  1.
</event>
<event>
 7    1  0.5417298E-010  0.4778726E+02  0.7816164E-02  0.1312668E+00
        -11   -1    0    0    0    0  0.00000000000E+00  0.00000000000E+00  0.45593999997E+02  0.45594000000E+02  0.51100000000E-03 0. -1.
         11   -1    0    0    0    0 -0.00000000000E+00 -0.00000000000E+00 -0.45593999997E+02  0.45594000000E+02  0.51100000000E-03 0.  1.
    9900012    2    1    2    0    0  0.37916509439E+01 -0.16865142533E+02 -0.39809734241E+02  0.47787255884E+02  0.19999930876E+02 0.  0.
         12    1    1    2    0    0 -0.37916509439E+01  0.16865142533E+02  0.39809734241E+02  0.43400744116E+02  0.00000000000E+00 0. -1.
         11    1    3    3    0    0  0.59833363965E+01 -0.13607731015E+02 -0.17623288230E+02  0.23055388656E+02  0.51100000000E-03 0. -1.
        -11    1    3    3    0    0  0.23748485670E+01  0.99742324776E+00 -0.14973100202E+02  0.15193040801E+02  0.51100000000E-03 0.  1.
         12    1    3    3    0    0 -0.45665340196E+01 -0.42548347657E+01 -0.72133458086E+01  0.95388264263E+01  0.00000000000E+00 0. -1.
</event>
<event>
 7    1  0.5417298E-010  0.4778726E+02  0.7816164E-02  0.1312668E+00
        -11   -1    0    0    0    0  0.00000000000E+00  0.00000000000E+00  0.45593999997E+02  0.45594000000E+02  0.51100000000E-03 0. -1.
         11   -1    0    0    0    0 -0.00000000000E+00 -0.00000000000E+00 -0.45593999997E+02  0.45594000000E+02  0.51100000000E-03 0.  1.
    9900012    2    1    2    0    0  0.28296836904E+02  0.26397869744E+02 -0.19648546123E+02  0.47787264171E+02  0.19999968660E+02 0.  0.
         12    1    1    2    0    0 -0.28296836904E+02 -0.26397869744E+02  0.19648546123E+02  0.43400735829E+02  0.00000000000E+00 0. -1.
         11    1    3    3    0    0  0.11060924967E+02  0.67393177439E+01 -0.78478565856E+01  0.15144349376E+02  0.51100000000E-03 0. -1.
        -11    1    3    3    0    0  0.95653046167E+01  0.69280774488E+01  0.24386495620E+01  0.12059864074E+02  0.51100000000E-03 0.  1.
         12    1    3    3    0    0  0.76706073198E+01  0.12730474552E+02 -0.14239339099E+02  0.20583050720E+02  0.00000000000E+00 0. -1.
</event>
<event>
 7    1  0.5417298E-010  0.4778727E+02  0.7816164E-02  0.1312668E+00
        -11   -1    0    0    0    0  0.00000000000E+00  0.00000000000E+00  0.45593999997E+02  0.45594000000E+02  0.51100000000E-03 0.  1.
         11   -1    0    0    0    0 -0.00000000000E+00 -0.00000000000E+00 -0.45593999997E+02  0.45594000000E+02  0.51100000000E-03 0. -1.
    9900012    2    1    2    0    0  0.24055147605E+01 -0.16747288596E+02  0.39967052516E+02  0.47787268861E+02  0.19999990045E+02 0.  0.
         12    1    1    2    0    0 -0.24055147605E+01  0.16747288596E+02 -0.39967052516E+02  0.43400731139E+02  0.00000000000E+00 0. -1.
         11    1    3    3    0    0 -0.19983980894E+01  0.15076203692E+01 -0.72994849399E+00  0.26075542499E+01  0.51100000000E-03 0. -1.
        -11    1    3    3    0    0  0.18477532515E+01 -0.78053209023E+01  0.11150595261E+02  0.13735829112E+02  0.51100000000E-03 0.  1.
         12    1    3    3    0    0  0.25561595985E+01 -0.10449588062E+02  0.29546405749E+02  0.31443885499E+02  0.00000000000E+00 0. -1.
</event>
<event>
 7    1  0.5417298E-010  0.4778725E+02  0.7816164E-02  0.1312668E+00
        -11   -1    0    0    0    0  0.00000000000E+00  0.00000000000E+00  0.45593999997E+02  0.45594000000E+02  0.51100000000E-03 0. -1.
         11   -1    0    0    0    0 -0.00000000000E+00 -0.00000000000E+00 -0.45593999997E+02  0.45594000000E+02  0.51100000000E-03 0.  1.
    9900012    2    1    2    0    0  0.14194560247E+02  0.32670411218E+02 -0.24794827014E+02  0.47787253965E+02  0.19999922129E+02 0.  0.
         12    1    1    2    0    0 -0.14194560247E+02 -0.32670411218E+02  0.24794827014E+02  0.43400746035E+02  0.00000000000E+00 0. -1.
         11    1    3    3    0    0 -0.31749072321E+01  0.15224546663E+00 -0.46371528874E+01  0.56219571127E+01  0.51100000000E-03 0. -1.
        -11    1    3    3    0    0  0.53463546448E+01  0.70257577192E+01 -0.54162073945E+01  0.10357609875E+02  0.51100000000E-03 0.  1.
         12    1    3    3    0    0  0.12023112834E+02  0.25492408032E+02 -0.14741466732E+02  0.31807686978E+02  0.00000000000E+00 0. -1.
</event>
<event>
 7    1  0.5417298E-010  0.4778728E+02  0.7816164E-02  0.1312668E+00
        -11   -1    0    0    0    0  0.00000000000E+00  0.00000000000E+00  0.45593999997E+02  0.45594000000E+02  0.51100000000E-03 0.  1.
         11   -1    0    0    0    0 -0.00000000000E+00 -0.00000000000E+00 -0.45593999997E+02  0.45594000000E+02  0.51100000000E-03 0. -1.
    9900012    2    1    2    0    0  0.39531759173E+02  0.54571301329E+01  0.17061134281E+02  0.47787279319E+02  0.20000037729E+02 0.  0.
         12    1    1    2    0    0 -0.39531759173E+02 -0.54571301329E+01 -0.17061134281E+02  0.43400720681E+02  0.00000000000E+00 0. -1.
         11    1    3    3    0    0  0.19105191520E+02 -0.38385336918E+00  0.15181040024E+02  0.24405320381E+02  0.51100000000E-03 0.  1.
        -11    1    3    3    0    0  0.12730737342E+02 -0.12230695426E+01  0.19384696751E+01  0.12935425672E+02  0.51100000000E-03 0. -1.
        -12    1    3    3    0    0  0.76958303115E+01  0.70640530447E+01 -0.58375417391E-01  0.10446533267E+02  0.00000000000E+00 0.  1.
</event>
<event>
 7    1  0.5417298E-010  0.4778727E+02  0.7816164E-02  0.1312668E+00
        -11   -1    0    0    0    0  0.00000000000E+00  0.00000000000E+00  0.45593999997E+02  0.45594000000E+02  0.51100000000E-03 0.  1.
         11   -1    0    0    0    0 -0.00000000000E+00 -0.00000000000E+00 -0.45593999997E+02  0.45594000000E+02  0.51100000000E-03 0. -1.
    9900012    2    1    2    0    0 -0.21183355668E+02  0.36930782775E+02  0.84265055605E+01  0.47787271093E+02  0.20000000221E+02 0.  0.
         12    1    1    2    0    0  0.21183355668E+02 -0.36930782775E+02 -0.84265055605E+01  0.43400728907E+02  0.00000000000E+00 0. -1.
         11    1    3    3    0    0 -0.56074261879E+01  0.20886581633E+02  0.11143846910E+02  0.24328539722E+02  0.51100000000E-03 0. -1.
        -11    1    3    3    0    0 -0.33144671318E+01  0.79004317183E+01 -0.13889807572E+01  0.86793883142E+01  0.51100000000E-03 0.  1.
         12    1    3    3    0    0 -0.12261462348E+02  0.81437694232E+01 -0.13283605924E+01  0.14779343057E+02  0.00000000000E+00 0. -1.
</event>
<event>
 7    1  0.5417298E-010  0.4778727E+02  0.7816164E-02  0.1312668E+00
        -11   -1    0    0    0    0  0.00000000000E+00  0.00000000000E+00  0.45593999997E+02  0.45594000000E+02  0.51100000000E-03 0.  1.
         11   -1    0    0    0    0 -0.00000000000E+00 -0.00000000000E+00 -0.45593999997E+02  0.45594000000E+02  0.51100000000E-03 0. -1.
    9900012    2    1    2    0    0 -0.40200106912E+01  0.30105161758E+02  0.31002292872E+02  0.47787269433E+02  0.19999992654E+02 0.  0.
         12    1    1    2    0    0  0.40200106912E+01 -0.30105161758E+02 -0.31002292872E+02  0.43400730567E+02  0.00000000000E+00 0. -1.
         11    1    3    3    0    0  0.12794888319E+01  0.11085727653E+01  0.49977626769E+01  0.52767089442E+01  0.51100000000E-03 0. -1.
        -11    1    3    3    0    0  0.52352110269E+01  0.56573934065E+01  0.86016014386E+01  0.11549938624E+02  0.51100000000E-03 0.  1.
         12    1    3    3    0    0 -0.10534710550E+02  0.23339195586E+02  0.17402928756E+02  0.30960621865E+02  0.00000000000E+00 0. -1.
</event>
<event>
 7    1  0.5417298E-010  0.4778727E+02  0.7816164E-02  0.1312668E+00
        -11   -1    0    0    0    0  0.00000000000E+00  0.00000000000E+00  0.45593999997E+02  0.45594000000E+02  0.51100000000E-03 0. -1.
         11   -1    0    0    0    0 -0.00000000000E+00 -0.00000000000E+00 -0.45593999997E+02  0.45594000000E+02  0.51100000000E-03 0.  1.
    9900012    2    1    2    0    0 -0.39841026728E+02  0.10346029555E+02 -0.13757739417E+02  0.47787272677E+02  0.20000007443E+02 0.  0.
         12    1    1    2    0    0  0.39841026728E+02 -0.10346029555E+02  0.13757739417E+02  0.43400727323E+02  0.00000000000E+00 0. -1.
         11    1    3    3    0    0 -0.14046604037E+02  0.46523580186E+01 -0.47901150010E+00  0.14804761815E+02  0.51100000000E-03 0. -1.
        -11    1    3    3    0    0 -0.26011654606E+02  0.55156884128E+01 -0.81002978268E+01  0.27796471343E+02  0.51100000000E-03 0.  1.
        -12    1    3    3    0    0  0.21723191455E+00  0.17798312328E+00 -0.51784300899E+01  0.51860395190E+01  0.00000000000E+00 0.  1.
</event>
<event>
 7    1  0.5417298E-010  0.4778726E+02  0.7816164E-02  0.1312668E+00
        -11   -1    0    0    0    0  0.00000000000E+00  0.00000000000E+00  0.45593999997E+02  0.45594000000E+02  0.51100000000E-03 0.  1.
         11   -1    0    0    0    0 -0.00000000000E+00 -0.00000000000E+00 -0.45593999997E+02  0.45594000000E+02  0.51100000000E-03 0. -1.
    9900012    2    1    2    0    0 -0.37652820767E+02 -0.18975513950E+02 -0.10286835840E+02  0.47787262299E+02  0.19999960124E+02 0.  0.
         12    1    1    2    0    0  0.37652820767E+02  0.18975513950E+02  0.10286835840E+02  0.43400737701E+02  0.00000000000E+00 0. -1.
         11    1    3    3    0    0 -0.25639980977E+00 -0.42813618248E+00 -0.13627729439E+01  0.14512724799E+01  0.51100000000E-03 0. -1.
        -11    1    3    3    0    0 -0.10410415177E+02 -0.70958239234E+01  0.54014025772E+01  0.13707757343E+02  0.51100000000E-03 0.  1.
        -12    1    3    3    0    0 -0.26986005781E+02 -0.11451553845E+02 -0.14325465474E+02  0.32628232476E+02  0.00000000000E+00 0.  1.
</event>
<event>
 7    1  0.5417298E-010  0.4778727E+02  0.7816164E-02  0.1312668E+00
        -11   -1    0    0    0    0  0.00000000000E+00  0.00000000000E+00  0.45593999997E+02  0.45594000000E+02  0.51100000000E-03 0. -1.
         11   -1    0    0    0    0 -0.00000000000E+00 -0.00000000000E+00 -0.45593999997E+02  0.45594000000E+02  0.51100000000E-03 0.  1.
    9900012    2    1    2    0    0  0.45411163516E+01 -0.39085736540E+01 -0.42985170166E+02  0.47787267980E+02  0.19999986027E+02 0.  0.
         12    1    1    2    0    0 -0.45411163516E+01  0.39085736540E+01  0.42985170166E+02  0.43400732020E+02  0.00000000000E+00 0. -1.
         11    1    3    3    0    0 -0.49963342894E+01  0.16625875684E+01 -0.29891171983E+02  0.30351436812E+02  0.51100000000E-03 0. -1.
        -11    1    3    3    0    0  0.17466154586E+01 -0.22264778676E+01 -0.19649375661E+01  0.34451196141E+01  0.51100000000E-03 0.  1.
         12    1    3    3    0    0  0.77908351823E+01 -0.33446833548E+01 -0.11129060616E+02  0.13990711554E+02  0.00000000000E+00 0. -1.
</event>
<event>
 7    1  0.5417298E-010  0.4778727E+02  0.7816164E-02  0.1312668E+00
        -11   -1    0    0    0    0  0.00000000000E+00  0.00000000000E+00  0.45593999997E+02  0.45594000000E+02  0.51100000000E-03 0.  1.
         11   -1    0    0    0    0 -0.00000000000E+00 -0.00000000000E+00 -0.45593999997E+02  0.45594000000E+02  0.51100000000E-03 0. -1.
    9900012    2    1    2    0    0  0.28156745804E+02  0.12075011208E+01  0.33005492886E+02  0.47787274731E+02  0.20000016807E+02 0.  0.
         12    1    1    2    0    0 -0.28156745804E+02 -0.12075011208E+01 -0.33005492886E+02  0.43400725269E+02  0.00000000000E+00 0. -1.
         11    1    3    3    0    0  0.10951668102E+02  0.58624484780E+01  0.89326763406E+01  0.15300328207E+02  0.51100000000E-03 0. -1.
        -11    1    3    3    0    0  0.16370567727E+02  0.59153566325E+00  0.19584626298E+02  0.25532390989E+02  0.51100000000E-03 0.  1.
         12    1    3    3    0    0  0.83450997566E+00 -0.52464830205E+01  0.44881902477E+01  0.69545555346E+01  0.00000000000E+00 0. -1.
</event>
<event>
 7    1  0.5417298E-010  0.4778728E+02  0.7816164E-02  0.1312668E+00
        -11   -1    0    0    0    0  0.00000000000E+00  0.00000000000E+00  0.45593999997E+02  0.45594000000E+02  0.51100000000E-03 0. -1.
         11   -1    0    0    0    0 -0.00000000000E+00 -0.00000000000E+00 -0.45593999997E+02  0.45594000000E+02  0.51100000000E-03 0.  1.
    9900012    2    1    2    0    0  0.37197972449E+01  0.41957070720E+02 -0.10458969164E+02  0.47787277530E+02  0.20000029570E+02 0.  0.
         12    1    1    2    0    0 -0.37197972449E+01 -0.41957070720E+02  0.10458969164E+02  0.43400722470E+02  0.00000000000E+00 0. -1.
         11    1    3    3    0    0 -0.29358037711E+01  0.33601660148E+01  0.12037065625E+00  0.44636474755E+01  0.51100000000E-03 0. -1.
        -11    1    3    3    0    0 -0.33315343179E+00  0.23115630121E+01  0.31343210414E+01  0.39087444812E+01  0.51100000000E-03 0.  1.
        -12    1    3    3    0    0  0.69887544478E+01  0.36285341693E+02 -0.13713660862E+02  0.39414885573E+02  0.00000000000E+00 0.  1.
</event>
<event>
 7    1  0.5417298E-010  0.4778727E+02  0.7816164E-02  0.1312668E+00
        -11   -1    0    0    0    0  0.00000000000E+00  0.00000000000E+00  0.45593999997E+02  0.45594000000E+02  0.51100000000E-03 0. -1.
         11   -1    0    0    0    0 -0.00000000000E+00 -0.00000000000E+00 -0.45593999997E+02  0.45594000000E+02  0.51100000000E-03 0.  1.
    9900012    2    1    2    0    0 -0.16279078465E+02 -0.39759283305E+02 -0.61493480575E+01  0.47787268599E+02  0.19999988850E+02 0.  0.
         12    1    1    2    0    0  0.16279078465E+02  0.39759283305E+02  0.61493480575E+01  0.43400731401E+02  0.00000000000E+00 0. -1.
         11    1    3    3    0    0 -0.52072677223E+01 -0.53267627982E+01 -0.70361080032E+01  0.10246797311E+02  0.51100000000E-03 0. -1.
        -11    1    3    3    0    0 -0.70897303554E+01 -0.84392182534E+01  0.20813229058E+01  0.11216799300E+02  0.51100000000E-03 0.  1.
         12    1    3    3    0    0 -0.39820803873E+01 -0.25993302254E+02 -0.11945629601E+01  0.26323671988E+02  0.00000000000E+00 0. -1.
</event>
<event>
 7    1  0.5417298E-010  0.4778727E+02  0.7816164E-02  0.1312668E+00
        -11   -1    0    0    0    0  0.00000000000E+00  0.00000000000E+00  0.45593999997E+02  0.45594000000E+02  0.51100000000E-03 0. -1.
         11   -1    0    0    0    0 -0.00000000000E+00 -0.00000000000E+00 -0.45593999997E+02  0.45594000000E+02  0.51100000000E-03 0.  1.
    9900012    2    1    2    0    0  0.54541214304E+01  0.38159463947E+02 -0.19943194832E+02  0.47787272478E+02  0.20000006536E+02 0.  0.
         12    1    1    2    0    0 -0.54541214304E+01 -0.38159463947E+02  0.19943194832E+02  0.43400727522E+02  0.00000000000E+00 0. -1.
         11    1    3    3    0    0  0.66392212645E+01  0.74746597420E+01 -0.61229734625E+01  0.11723506367E+02  0.51100000000E-03 0. -1.
        -11    1    3    3    0    0  0.14754730102E+01  0.25402522564E+02 -0.15649812767E+02  0.29872760386E+02  0.51100000000E-03 0.  1.
         12    1    3    3    0    0 -0.26605728442E+01  0.52822816417E+01  0.18295913972E+01  0.61910057246E+01  0.00000000000E+00 0. -1.
</event>
<event>
 7    1  0.5417298E-010  0.4778727E+02  0.7816164E-02  0.1312668E+00
        -11   -1    0    0    0    0  0.00000000000E+00  0.00000000000E+00  0.45593999997E+02  0.45594000000E+02  0.51100000000E-03 0.  1.
         11   -1    0    0    0    0 -0.00000000000E+00 -0.00000000000E+00 -0.45593999997E+02  0.45594000000E+02  0.51100000000E-03 0. -1.
    9900012    2    1    2    0    0  0.34405797895E+02 -0.26449933955E+02 -0.51518320116E+00  0.47787270182E+02  0.19999996068E+02 0.  0.
         12    1    1    2    0    0 -0.34405797895E+02  0.26449933955E+02  0.51518320116E+00  0.43400729818E+02  0.00000000000E+00 0. -1.
         11    1    3    3    0    0  0.97792259127E+00  0.46496480139E+00  0.22270980666E+01  0.24763866662E+01  0.51100000000E-03 0. -1.
        -11    1    3    3    0    0  0.17385643323E+02 -0.18319876696E+02  0.46256847581E+01  0.25676359470E+02  0.51100000000E-03 0.  1.
         12    1    3    3    0    0  0.16042231981E+02 -0.85950220605E+01 -0.73679660259E+01  0.19634524046E+02  0.00000000000E+00 0. -1.
</event>
<event>
 7    1  0.5417298E-010  0.4778727E+02  0.7816164E-02  0.1312668E+00
        -11   -1    0    0    0    0  0.00000000000E+00  0.00000000000E+00  0.45593999997E+02  0.45594000000E+02  0.51100000000E-03 0.  1.
         11   -1    0    0    0    0 -0.00000000000E+00 -0.00000000000E+00 -0.45593999997E+02  0.45594000000E+02  0.51100000000E-03 0. -1.
    9900012    2    1    2    0    0  0.23053814798E+01  0.32836932936E+02  0.28285056586E+02  0.47787269885E+02  0.19999994715E+02 0.  0.
         12    1    1    2    0    0 -0.23053814798E+01 -0.32836932936E+02 -0.28285056586E+02  0.43400730115E+02  0.00000000000E+00 0. -1.
         11    1    3    3    0    0 -0.44948965084E+00  0.17589985524E+02  0.10682941976E+02  0.20584821622E+02  0.51100000000E-03 0. -1.
        -11    1    3    3    0    0 -0.36647559337E+01  0.37269009058E+01  0.23708672190E-01  0.52269291919E+01  0.51100000000E-03 0.  1.
        -12    1    3    3    0    0  0.64196270644E+01  0.11520046507E+02  0.17578405937E+02  0.21975519072E+02  0.00000000000E+00 0.  1.
</event>
<event>
 7    1  0.5417298E-010  0.4778727E+02  0.7816164E-02  0.1312668E+00
        -11   -1    0    0    0    0  0.00000000000E+00  0.00000000000E+00  0.45593999997E+02  0.45594000000E+02  0.51100000000E-03 0.  1.
         11   -1    0    0    0    0 -0.00000000000E+00 -0.00000000000E+00 -0.45593999997E+02  0.45594000000E+02  0.51100000000E-03 0. -1.
    9900012    2    1    2    0    0  0.14064137460E+02 -0.94132497708E+01  0.39965156181E+02  0.47787274864E+02  0.20000017416E+02 0.  0.
         12    1    1    2    0    0 -0.14064137460E+02  0.94132497708E+01 -0.39965156181E+02  0.43400725136E+02  0.00000000000E+00 0. -1.
         11    1    3    3    0    0 -0.26506525954E+01 -0.32080202178E+01  0.21005531928E+02  0.21413774182E+02  0.51100000000E-03 0. -1.
        -11    1    3    3    0    0  0.19946494720E+01 -0.64068161847E+00  0.57301326417E+00  0.21719677517E+01  0.51100000000E-03 0.  1.
        -12    1    3    3    0    0  0.14720140584E+02 -0.55645479346E+01  0.18386610989E+02  0.24201532930E+02  0.00000000000E+00 0.  1.
</event>
<event>
 7    1  0.5417298E-010  0.4778727E+02  0.7816164E-02  0.1312668E+00
        -11   -1    0    0    0    0  0.00000000000E+00  0.00000000000E+00  0.45593999997E+02  0.45594000000E+02  0.51100000000E-03 0. -1.
         11   -1    0    0    0    0 -0.00000000000E+00 -0.00000000000E+00 -0.45593999997E+02  0.45594000000E+02  0.51100000000E-03 0.  1.
    9900012    2    1    2    0    0 -0.32599753666E+02 -0.19717720115E+02 -0.20786795452E+02  0.47787270850E+02  0.19999999114E+02 0.  0.
         12    1    1    2    0    0  0.32599753666E+02  0.19717720115E+02  0.20786795452E+02  0.43400729150E+02  0.00000000000E+00 0. -1.
         11    1    3    3    0    0 -0.15569297809E+02 -0.84741185298E+01 -0.94107477722E+01  0.20069277342E+02  0.51100000000E-03 0. -1.
        -11    1    3    3    0    0 -0.15647602073E+02 -0.14578073754E+02 -0.81818011612E+01  0.22897806784E+02  0.51100000000E-03 0.  1.
         12    1    3    3    0    0 -0.13828537837E+01  0.33344721696E+01 -0.31942465182E+01  0.48201867242E+01  0.00000000000E+00 0. -1.
</event>
<event>
 7    1  0.5417298E-010  0.4778727E+02  0.7816164E-02  0.1312668E+00
        -11   -1    0    0    0    0  0.00000000000E+00  0.00000000000E+00  0.45593999997E+02  0.45594000000E+02  0.51100000000E-03 0. -1.
         11   -1    0    0    0    0 -0.00000000000E+00 -0.00000000000E+00 -0.45593999997E+02  0.45594000000E+02  0.51100000000E-03 0.  1.
    9900012    2    1    2    0    0 -0.19864040001E+02  0.38586691885E+02  0.33203729360E+00  0.47787272765E+02  0.20000007845E+02 0.  0.
         12    1    1    2    0    0  0.19864040001E+02 -0.38586691885E+02 -0.33203729360E+00  0.43400727235E+02  0.00000000000E+00 0. -1.
         11    1    3    3    0    0 -0.33860355456E+01  0.28581498753E+01  0.41887739172E+01  0.60975474263E+01  0.51100000000E-03 0. -1.
        -11    1    3    3    0    0 -0.15682444681E+01  0.17467316091E+02  0.12002509392E+01  0.17578598485E+02  0.51100000000E-03 0.  1.
        -12    1    3    3    0    0 -0.14909759988E+02  0.18261225918E+02 -0.50569875628E+01  0.24111126853E+02  0.00000000000E+00 0.  1.
</event>
<event>
 7    1  0.5417298E-010  0.4778727E+02  0.7816164E-02  0.1312668E+00
        -11   -1    0    0    0    0  0.00000000000E+00  0.00000000000E+00  0.45593999997E+02  0.45594000000E+02  0.51100000000E-03 0.  1.
         11   -1    0    0    0    0 -0.00000000000E+00 -0.00000000000E+00 -0.45593999997E+02  0.45594000000E+02  0.51100000000E-03 0. -1.
    9900012    2    1    2    0    0  0.16405072555E+02 -0.32615625034E+02  0.23467382825E+02  0.47787268917E+02  0.19999990299E+02 0.  0.
         12    1    1    2    0    0 -0.16405072555E+02  0.32615625034E+02 -0.23467382825E+02  0.43400731083E+02  0.00000000000E+00 0. -1.
         11    1    3    3    0    0  0.14359776472E+01 -0.12791775532E+02  0.75487962109E+01  0.14922328155E+02  0.51100000000E-03 0. -1.
        -11    1    3    3    0    0  0.15855469697E+02 -0.21427525262E+02  0.13646225118E+02  0.29945854779E+02  0.51100000000E-03 0.  1.
        -12    1    3    3    0    0 -0.88637478963E+00  0.16036757599E+01  0.22723614961E+01  0.29190859836E+01  0.00000000000E+00 0.  1.
</event>
<event>
 7    1  0.5417298E-010  0.4778727E+02  0.7816164E-02  0.1312668E+00
        -11   -1    0    0    0    0  0.00000000000E+00  0.00000000000E+00  0.45593999997E+02  0.45594000000E+02  0.51100000000E-03 0.  1.
         11   -1    0    0    0    0 -0.00000000000E+00 -0.00000000000E+00 -0.45593999997E+02  0.45594000000E+02  0.51100000000E-03 0. -1.
    9900012    2    1    2    0    0 -0.80743015510E+00  0.17358453500E+02  0.39770031961E+02  0.47787270818E+02  0.19999998969E+02 0.  0.
         12    1    1    2    0    0  0.80743015510E+00 -0.17358453500E+02 -0.39770031961E+02  0.43400729182E+02  0.00000000000E+00 0. -1.
         11    1    3    3    0    0 -0.27904688515E+01  0.11184391196E+02  0.87644464804E+01  0.14480775021E+02  0.51100000000E-03 0. -1.
        -11    1    3    3    0    0 -0.84358792589E+00  0.43547631247E+01  0.36478906834E+01  0.57430574749E+01  0.51100000000E-03 0.  1.
        -12    1    3    3    0    0  0.28266266223E+01  0.18192991787E+01  0.27357694797E+02  0.27563438323E+02  0.00000000000E+00 0.  1.
</event>
<event>
 7    1  0.5417298E-010  0.4778727E+02  0.7816164E-02  0.1312668E+00
        -11   -1    0    0    0    0  0.00000000000E+00  0.00000000000E+00  0.45593999997E+02  0.45594000000E+02  0.51100000000E-03 0.  1.
         11   -1    0    0    0    0 -0.00000000000E+00 -0.00000000000E+00 -0.45593999997E+02  0.45594000000E+02  0.51100000000E-03 0. -1.
    9900012    2    1    2    0    0  0.21444271559E+02  0.36452156053E+02 -0.97471406266E+01  0.47787271735E+02  0.20000003147E+02 0.  0.
         12    1    1    2    0    0 -0.21444271559E+02 -0.36452156053E+02  0.97471406266E+01  0.43400728265E+02  0.00000000000E+00 0. -1.
         11    1    3    3    0    0  0.56528868830E+01  0.10104843332E+01 -0.77033316712E-01  0.57430081919E+01  0.51100000000E-03 0. -1.
        -11    1    3    3    0    0  0.35845721759E+01  0.12588841929E+02  0.26511755315E+01  0.13355030167E+02  0.51100000000E-03 0.  1.
         12    1    3    3    0    0  0.12206812500E+02  0.22852829790E+02 -0.12321282841E+02  0.28689233375E+02  0.00000000000E+00 0. -1.
</event>
<event>
 7    1  0.5417298E-010  0.4778727E+02  0.7816164E-02  0.1312668E+00
        -11   -1    0    0    0    0  0.00000000000E+00  0.00000000000E+00  0.45593999997E+02  0.45594000000E+02  0.51100000000E-03 0.  1.
         11   -1    0    0    0    0 -0.00000000000E+00 -0.00000000000E+00 -0.45593999997E+02  0.45594000000E+02  0.51100000000E-03 0. -1.
    9900012    2    1    2    0    0 -0.34666436410E+02  0.23029412890E+02  0.12308842727E+02  0.47787270966E+02  0.19999999642E+02 0.  0.
         12    1    1    2    0    0  0.34666436410E+02 -0.23029412890E+02 -0.12308842727E+02  0.43400729034E+02  0.00000000000E+00 0. -1.
         11    1    3    3    0    0  0.11274041946E+00  0.76973890796E+00  0.49664543494E-02  0.77796742567E+00  0.51100000000E-03 0. -1.
        -11    1    3    3    0    0 -0.36398539098E+02  0.20999461748E+02  0.87765137038E+01  0.42928524727E+02  0.51100000000E-03 0.  1.
        -12    1    3    3    0    0  0.16193622686E+01  0.12602122340E+01  0.35273625687E+01  0.40807788133E+01  0.00000000000E+00 0.  1.
</event>
<event>
 7    1  0.5417298E-010  0.4778727E+02  0.7816164E-02  0.1312668E+00
        -11   -1    0    0    0    0  0.00000000000E+00  0.00000000000E+00  0.45593999997E+02  0.45594000000E+02  0.51100000000E-03 0. -1.
         11   -1    0    0    0    0 -0.00000000000E+00 -0.00000000000E+00 -0.45593999997E+02  0.45594000000E+02  0.51100000000E-03 0.  1.
    9900012    2    1    2    0    0  0.10588972313E+02 -0.37773282405E+02 -0.18565455042E+02  0.47787270523E+02  0.19999997621E+02 0.  0.
         12    1    1    2    0    0 -0.10588972313E+02  0.37773282405E+02  0.18565455042E+02  0.43400729477E+02  0.00000000000E+00 0. -1.
         11    1    3    3    0    0  0.45103968411E+01 -0.54756850586E+01 -0.31034919913E+01  0.77432854349E+01  0.51100000000E-03 0. -1.
        -11    1    3    3    0    0 -0.27457778915E+01 -0.11632422137E+01  0.16807807143E+01  0.34230765033E+01  0.51100000000E-03 0.  1.
        -12    1    3    3    0    0  0.88243533630E+01 -0.31134355132E+02 -0.17142743765E+02  0.36620908584E+02  0.00000000000E+00 0.  1.
</event>
<event>
 7    1  0.5417298E-010  0.4778727E+02  0.7816164E-02  0.1312668E+00
        -11   -1    0    0    0    0  0.00000000000E+00  0.00000000000E+00  0.45593999997E+02  0.45594000000E+02  0.51100000000E-03 0.  1.
         11   -1    0    0    0    0 -0.00000000000E+00 -0.00000000000E+00 -0.45593999997E+02  0.45594000000E+02  0.51100000000E-03 0. -1.
    9900012    2    1    2    0    0  0.41002444802E+01  0.23964998819E+02  0.35951218774E+02  0.47787270691E+02  0.19999998387E+02 0.  0.
         12    1    1    2    0    0 -0.41002444802E+01 -0.23964998819E+02 -0.35951218774E+02  0.43400729309E+02  0.00000000000E+00 0. -1.
         11    1    3    3    0    0  0.14692731644E-01  0.38380432204E+00 -0.57943122241E+00  0.69517079671E+00  0.51100000000E-03 0. -1.
        -11    1    3    3    0    0  0.10674365332E+01  0.25499017167E+02  0.28242498495E+02  0.38065443892E+02  0.51100000000E-03 0.  1.
        -12    1    3    3    0    0  0.30181152153E+01 -0.19178226698E+01  0.82881515023E+01  0.90266560016E+01  0.00000000000E+00 0.  1.
</event>
<event>
 7    1  0.5417298E-010  0.4778726E+02  0.7816164E-02  0.1312668E+00
        -11   -1    0    0    0    0  0.00000000000E+00  0.00000000000E+00  0.45593999997E+02  0.45594000000E+02  0.51100000000E-03 0. -1.
         11   -1    0    0    0    0 -0.00000000000E+00 -0.00000000000E+00 -0.45593999997E+02  0.45594000000E+02  0.51100000000E-03 0.  1.
    9900012    2    1    2    0    0  0.16938970647E+02  0.31943726131E+02 -0.24006125458E+02  0.47787257781E+02  0.19999939525E+02 0.  0.
         12    1    1    2    0    0 -0.16938970647E+02 -0.31943726131E+02  0.24006125458E+02  0.43400742219E+02  0.00000000000E+00 0. -1.
         11    1    3    3    0    0 -0.36581805995E+00  0.19317115809E+01 -0.71122179706E+00  0.20907341272E+01  0.51100000000E-03 0. -1.
        -11    1    3    3    0    0 -0.40383587018E+01  0.51533534488E+01 -0.40470350328E+01  0.76970049754E+01  0.51100000000E-03 0.  1.
         12    1    3    3    0    0  0.21343147409E+02  0.24858661101E+02 -0.19247868628E+02  0.37999518678E+02  0.00000000000E+00 0. -1.
</event>
<event>
 7    1  0.5417298E-010  0.4778727E+02  0.7816164E-02  0.1312668E+00
        -11   -1    0    0    0    0  0.00000000000E+00  0.00000000000E+00  0.45593999997E+02  0.45594000000E+02  0.51100000000E-03 0.  1.
         11   -1    0    0    0    0 -0.00000000000E+00 -0.00000000000E+00 -0.45593999997E+02  0.45594000000E+02  0.51100000000E-03 0. -1.
    9900012    2    1    2    0    0  0.40250017060E+02  0.15524163601E+02 -0.47497192995E+01  0.47787270027E+02  0.19999995359E+02 0.  0.
         12    1    1    2    0    0 -0.40250017060E+02 -0.15524163601E+02  0.47497192995E+01  0.43400729973E+02  0.00000000000E+00 0. -1.
         11    1    3    3    0    0  0.16529355114E+02 -0.28680330443E+01  0.11108884093E+01  0.16813068350E+02  0.51100000000E-03 0.  1.
        -11    1    3    3    0    0  0.19088363578E+01  0.12339360404E+01 -0.18570633640E+01  0.29351216315E+01  0.51100000000E-03 0. -1.
        -12    1    3    3    0    0  0.21811825588E+02  0.17158260604E+02 -0.40035443448E+01  0.28039080045E+02  0.00000000000E+00 0.  1.
</event>
<event>
 7    1  0.5417298E-010  0.4778727E+02  0.7816164E-02  0.1312668E+00
        -11   -1    0    0    0    0  0.00000000000E+00  0.00000000000E+00  0.45593999997E+02  0.45594000000E+02  0.51100000000E-03 0.  1.
         11   -1    0    0    0    0 -0.00000000000E+00 -0.00000000000E+00 -0.45593999997E+02  0.45594000000E+02  0.51100000000E-03 0. -1.
    9900012    2    1    2    0    0  0.20634294253E+02 -0.38159708215E+02 -0.12983036068E+01  0.47787273939E+02  0.20000013196E+02 0.  0.
         12    1    1    2    0    0 -0.20634294253E+02  0.38159708215E+02  0.12983036068E+01  0.43400726061E+02  0.00000000000E+00 0. -1.
         11    1    3    3    0    0  0.75631998838E+00 -0.10655746055E+02 -0.28673804212E+01  0.11060687802E+02  0.51100000000E-03 0. -1.
        -11    1    3    3    0    0  0.15579912518E+02 -0.21789301218E+02 -0.47257689991E+01  0.27200003944E+02  0.51100000000E-03 0.  1.
         12    1    3    3    0    0  0.42980617466E+01 -0.57146609419E+01  0.62948458135E+01  0.95265821927E+01  0.00000000000E+00 0. -1.
</event>
<event>
 7    1  0.5417298E-010  0.4778727E+02  0.7816164E-02  0.1312668E+00
        -11   -1    0    0    0    0  0.00000000000E+00  0.00000000000E+00  0.45593999997E+02  0.45594000000E+02  0.51100000000E-03 0. -1.
         11   -1    0    0    0    0 -0.00000000000E+00 -0.00000000000E+00 -0.45593999997E+02  0.45594000000E+02  0.51100000000E-03 0.  1.
    9900012    2    1    2    0    0 -0.11393366549E+00  0.31770873744E+02 -0.29567242091E+02  0.47787271847E+02  0.20000003659E+02 0.  0.
         12    1    1    2    0    0  0.11393366549E+00 -0.31770873744E+02  0.29567242091E+02  0.43400728153E+02  0.00000000000E+00 0. -1.
         11    1    3    3    0    0  0.21715219966E+01 -0.22562762551E+01 -0.26080559415E+01  0.40753216286E+01  0.51100000000E-03 0. -1.
        -11    1    3    3    0    0 -0.30253908959E+01  0.12236431916E+02 -0.98014338993E+01  0.15967196462E+02  0.51100000000E-03 0.  1.
         12    1    3    3    0    0  0.73993523375E+00  0.21790718083E+02 -0.17157752251E+02  0.27744753756E+02  0.00000000000E+00 0. -1.
</event>
<event>
 7    1  0.5417298E-010  0.4778727E+02  0.7816164E-02  0.1312668E+00
        -11   -1    0    0    0    0  0.00000000000E+00  0.00000000000E+00  0.45593999997E+02  0.45594000000E+02  0.51100000000E-03 0.  1.
         11   -1    0    0    0    0 -0.00000000000E+00 -0.00000000000E+00 -0.45593999997E+02  0.45594000000E+02  0.51100000000E-03 0. -1.
    9900012    2    1    2    0    0 -0.27960074614E+02 -0.27171377955E+02  0.19067605211E+02  0.47787272807E+02  0.20000008036E+02 0.  0.
         12    1    1    2    0    0  0.27960074614E+02  0.27171377955E+02 -0.19067605211E+02  0.43400727193E+02  0.00000000000E+00 0. -1.
         11    1    3    3    0    0 -0.14014282934E+02 -0.79377705129E+01  0.11629983703E+02  0.19866173463E+02  0.51100000000E-03 0.  1.
        -11    1    3    3    0    0 -0.67294877998E+00  0.32489175374E+00  0.39598193396E+01  0.40297126667E+01  0.51100000000E-03 0. -1.
        -12    1    3    3    0    0 -0.13272842900E+02 -0.19558499196E+02  0.34778021683E+01  0.23891386678E+02  0.00000000000E+00 0.  1.
</event>
<event>
 7    1  0.5417298E-010  0.4778727E+02  0.7816164E-02  0.1312668E+00
        -11   -1    0    0    0    0  0.00000000000E+00  0.00000000000E+00  0.45593999997E+02  0.45594000000E+02  0.51100000000E-03 0. -1.
         11   -1    0    0    0    0 -0.00000000000E+00 -0.00000000000E+00 -0.45593999997E+02  0.45594000000E+02  0.51100000000E-03 0.  1.
    9900012    2    1    2    0    0 -0.35721152374E+02 -0.20223064469E+02  0.14094331786E+02  0.47787271297E+02  0.20000001151E+02 0.  0.
         12    1    1    2    0    0  0.35721152374E+02  0.20223064469E+02 -0.14094331786E+02  0.43400728703E+02  0.00000000000E+00 0. -1.
         11    1    3    3    0    0 -0.86578163967E+01 -0.63976463248E+01  0.69553097130E+01  0.12816551670E+02  0.51100000000E-03 0. -1.
        -11    1    3    3    0    0 -0.11025727406E+02 -0.13766220633E+02  0.68776769157E+01  0.18930872546E+02  0.51100000000E-03 0.  1.
        -12    1    3    3    0    0 -0.16037608572E+02 -0.59197510656E-01  0.26134515744E+00  0.16039847080E+02  0.00000000000E+00 0.  1.
</event>
<event>
 7    1  0.5417298E-010  0.4778728E+02  0.7816164E-02  0.1312668E+00
        -11   -1    0    0    0    0  0.00000000000E+00  0.00000000000E+00  0.45593999997E+02  0.45594000000E+02  0.51100000000E-03 0.  1.
         11   -1    0    0    0    0 -0.00000000000E+00 -0.00000000000E+00 -0.45593999997E+02  0.45594000000E+02  0.51100000000E-03 0. -1.
    9900012    2    1    2    0    0 -0.15145192468E+02  0.23207459119E+02  0.33401494751E+02  0.47787275752E+02  0.20000021462E+02 0.  0.
         12    1    1    2    0    0  0.15145192468E+02 -0.23207459119E+02 -0.33401494751E+02  0.43400724248E+02  0.00000000000E+00 0. -1.
         11    1    3    3    0    0  0.18371820425E+00  0.18425764735E+01  0.10495210322E+02  0.10657311125E+02  0.51100000000E-03 0. -1.
        -11    1    3    3    0    0 -0.20877549384E+01 -0.19105176509E+00 -0.10005711467E+01  0.23230076066E+01  0.51100000000E-03 0.  1.
        -12    1    3    3    0    0 -0.13241155734E+02  0.21555934411E+02  0.23906855576E+02  0.34806957020E+02  0.00000000000E+00 0.  1.
</event>
<event>
 7    1  0.5417298E-010  0.4778727E+02  0.7816164E-02  0.1312668E+00
        -11   -1    0    0    0    0  0.00000000000E+00  0.00000000000E+00  0.45593999997E+02  0.45594000000E+02  0.51100000000E-03 0.  1.
         11   -1    0    0    0    0 -0.00000000000E+00 -0.00000000000E+00 -0.45593999997E+02  0.45594000000E+02  0.51100000000E-03 0. -1.
    9900012    2    1    2    0    0  0.36657780259E+02 -0.14578857096E+02  0.18091081025E+02  0.47787272582E+02  0.20000007012E+02 0.  0.
         12    1    1    2    0    0 -0.36657780259E+02  0.14578857096E+02 -0.18091081025E+02  0.43400727418E+02  0.00000000000E+00 0. -1.
         11    1    3    3    0    0  0.43570679694E+01  0.24531449294E+01  0.43294509236E+01  0.66140839801E+01  0.51100000000E-03 0. -1.
        -11    1    3    3    0    0  0.16754404374E+02 -0.14559264086E+02  0.37324567503E+01  0.22508075669E+02  0.51100000000E-03 0.  1.
         12    1    3    3    0    0  0.15546307916E+02 -0.24727379392E+01  0.10029173351E+02  0.18665112934E+02  0.00000000000E+00 0. -1.
</event>
<event>
 7    1  0.5417298E-010  0.4778727E+02  0.7816164E-02  0.1312668E+00
        -11   -1    0    0    0    0  0.00000000000E+00  0.00000000000E+00  0.45593999997E+02  0.45594000000E+02  0.51100000000E-03 0.  1.
         11   -1    0    0    0    0 -0.00000000000E+00 -0.00000000000E+00 -0.45593999997E+02  0.45594000000E+02  0.51100000000E-03 0. -1.
    9900012    2    1    2    0    0 -0.10820904581E+02 -0.40917807672E+02  0.96054262289E+01  0.47787272199E+02  0.20000005265E+02 0.  0.
         12    1    1    2    0    0  0.10820904581E+02  0.40917807672E+02 -0.96054262289E+01  0.43400727801E+02  0.00000000000E+00 0. -1.
         11    1    3    3    0    0  0.28591267438E+01 -0.12307701187E+02  0.15876777675E+01  0.12734788385E+02  0.51100000000E-03 0. -1.
        -11    1    3    3    0    0 -0.33971318068E+01 -0.20467700151E+02  0.27970927595E+01  0.20935400215E+02  0.51100000000E-03 0.  1.
        -12    1    3    3    0    0 -0.10282899518E+02 -0.81424063334E+01  0.52206557019E+01  0.14117083600E+02  0.00000000000E+00 0.  1.
</event>
<event>
 7    1  0.5417298E-010  0.4778728E+02  0.7816164E-02  0.1312668E+00
        -11   -1    0    0    0    0  0.00000000000E+00  0.00000000000E+00  0.45593999997E+02  0.45594000000E+02  0.51100000000E-03 0. -1.
         11   -1    0    0    0    0 -0.00000000000E+00 -0.00000000000E+00 -0.45593999997E+02  0.45594000000E+02  0.51100000000E-03 0.  1.
    9900012    2    1    2    0    0  0.84567192012E+01  0.13984331257E+02 -0.40206282381E+02  0.47787276927E+02  0.20000026821E+02 0.  0.
         12    1    1    2    0    0 -0.84567192012E+01 -0.13984331257E+02  0.40206282381E+02  0.43400723073E+02  0.00000000000E+00 0. -1.
         11    1    3    3    0    0  0.35558277451E+01 -0.13868226936E+01 -0.86190406154E+01  0.94262956418E+01  0.51100000000E-03 0. -1.
        -11    1    3    3    0    0 -0.14375796964E+01 -0.12607853805E+01  0.20746941331E+00  0.19233457770E+01  0.51100000000E-03 0.  1.
        -12    1    3    3    0    0  0.63384711525E+01  0.16631939331E+02 -0.31794711179E+02  0.36437635508E+02  0.00000000000E+00 0.  1.
</event>
<event>
 7    1  0.5417298E-010  0.4778727E+02  0.7816164E-02  0.1312668E+00
        -11   -1    0    0    0    0  0.00000000000E+00  0.00000000000E+00  0.45593999997E+02  0.45594000000E+02  0.51100000000E-03 0. -1.
         11   -1    0    0    0    0 -0.00000000000E+00 -0.00000000000E+00 -0.45593999997E+02  0.45594000000E+02  0.51100000000E-03 0.  1.
    9900012    2    1    2    0    0  0.15351542688E+02 -0.86404415509E+01 -0.39664798934E+02  0.47787269965E+02  0.19999995078E+02 0.  0.
         12    1    1    2    0    0 -0.15351542688E+02  0.86404415509E+01  0.39664798934E+02  0.43400730035E+02  0.00000000000E+00 0. -1.
         11    1    3    3    0    0  0.45046294444E+01 -0.14734115771E+01 -0.13586211486E+01  0.49303630489E+01  0.51100000000E-03 0. -1.
        -11    1    3    3    0    0  0.11527389702E+02  0.47029456657E+00 -0.23806211067E+02  0.26454443406E+02  0.51100000000E-03 0.  1.
         12    1    3    3    0    0 -0.68047645845E+00 -0.76373245404E+01 -0.14499966719E+02  0.16402463510E+02  0.00000000000E+00 0. -1.
</event>
<event>
 7    1  0.5417298E-010  0.4778727E+02  0.7816164E-02  0.1312668E+00
        -11   -1    0    0    0    0  0.00000000000E+00  0.00000000000E+00  0.45593999997E+02  0.45594000000E+02  0.51100000000E-03 0. -1.
         11   -1    0    0    0    0 -0.00000000000E+00 -0.00000000000E+00 -0.45593999997E+02  0.45594000000E+02  0.51100000000E-03 0.  1.
    9900012    2    1    2    0    0  0.13664413304E+01 -0.33256374156E+02 -0.27852644257E+02  0.47787269867E+02  0.19999994633E+02 0.  0.
         12    1    1    2    0    0 -0.13664413304E+01  0.33256374156E+02  0.27852644257E+02  0.43400730133E+02  0.00000000000E+00 0. -1.
         11    1    3    3    0    0 -0.50596360776E+01 -0.19045957502E+02 -0.23870739978E+02  0.30954170022E+02  0.51100000000E-03 0.  1.
        -11    1    3    3    0    0  0.79069786479E+00 -0.58251669915E+01 -0.32169048473E+01  0.67012126253E+01  0.51100000000E-03 0. -1.
         12    1    3    3    0    0  0.56353795432E+01 -0.83852496631E+01 -0.76499943194E+00  0.10131887220E+02  0.00000000000E+00 0. -1.
</event>
<event>
 7    1  0.5417298E-010  0.4778724E+02  0.7816164E-02  0.1312668E+00
        -11   -1    0    0    0    0  0.00000000000E+00  0.00000000000E+00  0.45593999997E+02  0.45594000000E+02  0.51100000000E-03 0.  1.
         11   -1    0    0    0    0 -0.00000000000E+00 -0.00000000000E+00 -0.45593999997E+02  0.45594000000E+02  0.51100000000E-03 0. -1.
    9900012    2    1    2    0    0  0.36369054199E+01 -0.37078695469E+02  0.22261377597E+02  0.47787243426E+02  0.19999874075E+02 0.  0.
         12    1    1    2    0    0 -0.36369054199E+01  0.37078695469E+02 -0.22261377597E+02  0.43400756574E+02  0.00000000000E+00 0. -1.
         11    1    3    3    0    0 -0.37278531111E+01 -0.80457954151E+00  0.76576009514E+00  0.38898105148E+01  0.51100000000E-03 0. -1.
        -11    1    3    3    0    0 -0.25954119849E+00 -0.22439287493E+02  0.11662456154E+02  0.25290351295E+02  0.51100000000E-03 0.  1.
         12    1    3    3    0    0  0.76242997295E+01 -0.13834828435E+02  0.98331613483E+01  0.18607081617E+02  0.00000000000E+00 0. -1.
</event>
<event>
 7    1  0.5417298E-010  0.4778727E+02  0.7816164E-02  0.1312668E+00
        -11   -1    0    0    0    0  0.00000000000E+00  0.00000000000E+00  0.45593999997E+02  0.45594000000E+02  0.51100000000E-03 0.  1.
         11   -1    0    0    0    0 -0.00000000000E+00 -0.00000000000E+00 -0.45593999997E+02  0.45594000000E+02  0.51100000000E-03 0. -1.
    9900012    2    1    2    0    0  0.11374066795E+01 -0.42462438423E+02  0.89034358398E+01  0.47787267973E+02  0.19999985994E+02 0.  0.
         12    1    1    2    0    0 -0.11374066795E+01  0.42462438423E+02 -0.89034358398E+01  0.43400732027E+02  0.00000000000E+00 0. -1.
         11    1    3    3    0    0  0.23887349391E+01 -0.30712461950E+02  0.93782159380E+01  0.32201122777E+02  0.51100000000E-03 0.  1.
        -11    1    3    3    0    0  0.33050128177E+01 -0.97878499764E+01 -0.17160617443E+01  0.10472343819E+02  0.51100000000E-03 0. -1.
         12    1    3    3    0    0 -0.45563410773E+01 -0.19621264966E+01  0.12412816461E+01  0.51138013773E+01  0.00000000000E+00 0. -1.
</event>
<event>
 7    1  0.5417298E-010  0.4778726E+02  0.7816164E-02  0.1312668E+00
        -11   -1    0    0    0    0  0.00000000000E+00  0.00000000000E+00  0.45593999997E+02  0.45594000000E+02  0.51100000000E-03 0.  1.
         11   -1    0    0    0    0 -0.00000000000E+00 -0.00000000000E+00 -0.45593999997E+02  0.45594000000E+02  0.51100000000E-03 0. -1.
    9900012    2    1    2    0    0 -0.29256890436E+02  0.75265336522E+01  0.31161024967E+02  0.47787264709E+02  0.19999971114E+02 0.  0.
         12    1    1    2    0    0  0.29256890436E+02 -0.75265336522E+01 -0.31161024967E+02  0.43400735291E+02  0.00000000000E+00 0. -1.
         11    1    3    3    0    0  0.10890947556E+01 -0.27682387349E+01  0.33415952532E+01  0.44738721682E+01  0.51100000000E-03 0. -1.
        -11    1    3    3    0    0 -0.21508179644E+01  0.17791814032E+01 -0.11366201177E-01  0.27913498228E+01  0.51100000000E-03 0.  1.
        -12    1    3    3    0    0 -0.28195167227E+02  0.85155909839E+01  0.27830795915E+02  0.40522042718E+02  0.00000000000E+00 0.  1.
</event>
<event>
 7    1  0.5417298E-010  0.4778728E+02  0.7816164E-02  0.1312668E+00
        -11   -1    0    0    0    0  0.00000000000E+00  0.00000000000E+00  0.45593999997E+02  0.45594000000E+02  0.51100000000E-03 0.  1.
         11   -1    0    0    0    0 -0.00000000000E+00 -0.00000000000E+00 -0.45593999997E+02  0.45594000000E+02  0.51100000000E-03 0. -1.
    9900012    2    1    2    0    0 -0.67395709913E+01 -0.22659604510E+02  0.36397022122E+02  0.47787277506E+02  0.20000029460E+02 0.  0.
         12    1    1    2    0    0  0.67395709913E+01  0.22659604510E+02 -0.36397022122E+02  0.43400722494E+02  0.00000000000E+00 0. -1.
         11    1    3    3    0    0 -0.31219239368E+01 -0.41155885756E+01  0.35440246631E+01  0.62645502205E+01  0.51100000000E-03 0. -1.
        -11    1    3    3    0    0 -0.27118507929E+01 -0.16879818067E+02  0.12741094037E+02  0.21321769866E+02  0.51100000000E-03 0.  1.
         12    1    3    3    0    0 -0.90579626154E+00 -0.16641978669E+01  0.20111903422E+02  0.20200957419E+02  0.00000000000E+00 0. -1.
</event>
<event>
 7    1  0.5417298E-010  0.4778727E+02  0.7816164E-02  0.1312668E+00
        -11   -1    0    0    0    0  0.00000000000E+00  0.00000000000E+00  0.45593999997E+02  0.45594000000E+02  0.51100000000E-03 0. -1.
         11   -1    0    0    0    0 -0.00000000000E+00 -0.00000000000E+00 -0.45593999997E+02  0.45594000000E+02  0.51100000000E-03 0.  1.
    9900012    2    1    2    0    0 -0.10235600264E+02 -0.38246111501E+02  0.17778941008E+02  0.47787270731E+02  0.19999998571E+02 0.  0.
         12    1    1    2    0    0  0.10235600264E+02  0.38246111501E+02 -0.17778941008E+02  0.43400729269E+02  0.00000000000E+00 0. -1.
         11    1    3    3    0    0 -0.21905131808E+01 -0.77241208963E+01  0.10009385344E+02  0.12831530962E+02  0.51100000000E-03 0. -1.
        -11    1    3    3    0    0  0.29629840948E+01 -0.61488619136E+01  0.40977813612E+01  0.79611299402E+01  0.51100000000E-03 0.  1.
         12    1    3    3    0    0 -0.11008071178E+02 -0.24373128691E+02  0.36717743031E+01  0.26994609828E+02  0.00000000000E+00 0. -1.
</event>
<event>
 7    1  0.5417298E-010  0.4778727E+02  0.7816164E-02  0.1312668E+00
        -11   -1    0    0    0    0  0.00000000000E+00  0.00000000000E+00  0.45593999997E+02  0.45594000000E+02  0.51100000000E-03 0. -1.
         11   -1    0    0    0    0 -0.00000000000E+00 -0.00000000000E+00 -0.45593999997E+02  0.45594000000E+02  0.51100000000E-03 0.  1.
    9900012    2    1    2    0    0  0.30571013489E+01  0.43109555045E+02 -0.39804664647E+01  0.47787265926E+02  0.19999976664E+02 0.  0.
         12    1    1    2    0    0 -0.30571013489E+01 -0.43109555045E+02  0.39804664647E+01  0.43400734074E+02  0.00000000000E+00 0. -1.
         11    1    3    3    0    0  0.30120571912E+01  0.81238286028E+01 -0.50727397737E+01  0.10040008405E+02  0.51100000000E-03 0. -1.
        -11    1    3    3    0    0  0.20052548928E+01  0.13096461646E+01 -0.29197887740E+01  0.37764251624E+01  0.51100000000E-03 0.  1.
        -12    1    3    3    0    0 -0.19602107351E+01  0.33676080278E+02  0.40120620830E+01  0.33970832359E+02  0.00000000000E+00 0.  1.
</event>
<event>
 7    1  0.5417298E-010  0.4778727E+02  0.7816164E-02  0.1312668E+00
        -11   -1    0    0    0    0  0.00000000000E+00  0.00000000000E+00  0.45593999997E+02  0.45594000000E+02  0.51100000000E-03 0. -1.
         11   -1    0    0    0    0 -0.00000000000E+00 -0.00000000000E+00 -0.45593999997E+02  0.45594000000E+02  0.51100000000E-03 0.  1.
    9900012    2    1    2    0    0  0.25527859887E+02 -0.17664097691E+02 -0.30330364417E+02  0.47787274392E+02  0.20000015263E+02 0.  0.
         12    1    1    2    0    0 -0.25527859887E+02  0.17664097691E+02  0.30330364417E+02  0.43400725608E+02  0.00000000000E+00 0. -1.
         11    1    3    3    0    0  0.80049806951E+01 -0.62409495635E+01  0.61223881465E+00  0.10168775935E+02  0.51100000000E-03 0. -1.
        -11    1    3    3    0    0  0.11637773536E+02 -0.52449818732E+01 -0.16769544344E+02  0.21075227769E+02  0.51100000000E-03 0.  1.
        -12    1    3    3    0    0  0.58851056552E+01 -0.61781662541E+01 -0.14173058887E+02  0.16543270688E+02  0.00000000000E+00 0.  1.
</event>
<event>
 7    1  0.5417298E-010  0.4778727E+02  0.7816164E-02  0.1312668E+00
        -11   -1    0    0    0    0  0.00000000000E+00  0.00000000000E+00  0.45593999997E+02  0.45594000000E+02  0.51100000000E-03 0.  1.
         11   -1    0    0    0    0 -0.00000000000E+00 -0.00000000000E+00 -0.45593999997E+02  0.45594000000E+02  0.51100000000E-03 0. -1.
    9900012    2    1    2    0    0 -0.28017853813E+02  0.10365881843E+02  0.31482878470E+02  0.47787271026E+02  0.19999999918E+02 0.  0.
         12    1    1    2    0    0  0.28017853813E+02 -0.10365881843E+02 -0.31482878470E+02  0.43400728974E+02  0.00000000000E+00 0. -1.
         11    1    3    3    0    0 -0.13686809358E+02 -0.13878399378E+01  0.20866459249E+02  0.24993278535E+02  0.51100000000E-03 0. -1.
        -11    1    3    3    0    0 -0.83495062144E+00  0.26924894750E+01  0.47279506646E+01  0.55045580987E+01  0.51100000000E-03 0.  1.
         12    1    3    3    0    0 -0.13496093834E+02  0.90612323059E+01  0.58884685566E+01  0.17289434393E+02  0.00000000000E+00 0. -1.
</event>
<event>
 7    1  0.5417298E-010  0.4778727E+02  0.7816164E-02  0.1312668E+00
        -11   -1    0    0    0    0  0.00000000000E+00  0.00000000000E+00  0.45593999997E+02  0.45594000000E+02  0.51100000000E-03 0. -1.
         11   -1    0    0    0    0 -0.00000000000E+00 -0.00000000000E+00 -0.45593999997E+02  0.45594000000E+02  0.51100000000E-03 0.  1.
    9900012    2    1    2    0    0  0.26268917301E+02 -0.28768592855E+02 -0.19129434807E+02  0.47787271584E+02  0.20000002459E+02 0.  0.
         12    1    1    2    0    0 -0.26268917301E+02  0.28768592855E+02  0.19129434807E+02  0.43400728416E+02  0.00000000000E+00 0. -1.
         11    1    3    3    0    0 -0.13590951222E+01 -0.34728205389E+01 -0.12127004365E+01  0.39215130570E+01  0.51100000000E-03 0. -1.
        -11    1    3    3    0    0  0.53278370325E+01 -0.18686175515E+00 -0.64767010421E+01  0.83885887616E+01  0.51100000000E-03 0.  1.
        -12    1    3    3    0    0  0.22300175391E+02 -0.25108910561E+02 -0.11440033329E+02  0.35477169765E+02  0.00000000000E+00 0.  1.
</event>
<event>
 7    1  0.5417298E-010  0.4778726E+02  0.7816164E-02  0.1312668E+00
        -11   -1    0    0    0    0  0.00000000000E+00  0.00000000000E+00  0.45593999997E+02  0.45594000000E+02  0.51100000000E-03 0. -1.
         11   -1    0    0    0    0 -0.00000000000E+00 -0.00000000000E+00 -0.45593999997E+02  0.45594000000E+02  0.51100000000E-03 0.  1.
    9900012    2    1    2    0    0 -0.28006312864E+02 -0.31660318529E+02  0.98435305032E+01  0.47787257813E+02  0.19999939673E+02 0.  0.
         12    1    1    2    0    0  0.28006312864E+02  0.31660318529E+02 -0.98435305032E+01  0.43400742187E+02  0.00000000000E+00 0. -1.
         11    1    3    3    0    0  0.51381180574E+00 -0.56942040372E+01 -0.88237459852E+00  0.57850278636E+01  0.51100000000E-03 0. -1.
        -11    1    3    3    0    0 -0.84368328391E+01 -0.12110482099E+02 -0.12691922640E+01  0.14814006018E+02  0.51100000000E-03 0.  1.
         12    1    3    3    0    0 -0.20083291831E+02 -0.13855632392E+02  0.11995097366E+02  0.27188223932E+02  0.00000000000E+00 0. -1.
</event>
<event>
 7    1  0.5417298E-010  0.4778728E+02  0.7816164E-02  0.1312668E+00
        -11   -1    0    0    0    0  0.00000000000E+00  0.00000000000E+00  0.45593999997E+02  0.45594000000E+02  0.51100000000E-03 0.  1.
         11   -1    0    0    0    0 -0.00000000000E+00 -0.00000000000E+00 -0.45593999997E+02  0.45594000000E+02  0.51100000000E-03 0. -1.
    9900012    2    1    2    0    0 -0.25709076279E+02 -0.28353894922E+02  0.20462711873E+02  0.47787279527E+02  0.20000038676E+02 0.  0.
         12    1    1    2    0    0  0.25709076279E+02  0.28353894922E+02 -0.20462711873E+02  0.43400720473E+02  0.00000000000E+00 0. -1.
         11    1    3    3    0    0 -0.14816432869E+02 -0.13521794448E+02  0.90613392466E+01  0.22010758216E+02  0.51100000000E-03 0. -1.
        -11    1    3    3    0    0 -0.71593107130E+01 -0.14337992245E+02  0.13935399216E+02  0.21237445775E+02  0.51100000000E-03 0.  1.
         12    1    3    3    0    0 -0.37333326962E+01 -0.49410822962E+00 -0.25340265889E+01  0.45390755354E+01  0.00000000000E+00 0. -1.
</event>
<event>
 7    1  0.5417298E-010  0.4778728E+02  0.7816164E-02  0.1312668E+00
        -11   -1    0    0    0    0  0.00000000000E+00  0.00000000000E+00  0.45593999997E+02  0.45594000000E+02  0.51100000000E-03 0.  1.
         11   -1    0    0    0    0 -0.00000000000E+00 -0.00000000000E+00 -0.45593999997E+02  0.45594000000E+02  0.51100000000E-03 0. -1.
    9900012    2    1    2    0    0 -0.18126171782E+02 -0.64683422776E+01  0.38900196967E+02  0.47787275590E+02  0.20000020724E+02 0.  0.
         12    1    1    2    0    0  0.18126171782E+02  0.64683422776E+01 -0.38900196967E+02  0.43400724410E+02  0.00000000000E+00 0. -1.
         11    1    3    3    0    0 -0.11527872821E+00 -0.66935386664E+01  0.13614517589E+02  0.15171415178E+02  0.51100000000E-03 0. -1.
        -11    1    3    3    0    0 -0.10736795476E+02 -0.20686338157E+01  0.21455331369E+02  0.24080890087E+02  0.51100000000E-03 0.  1.
         12    1    3    3    0    0 -0.72740975781E+01  0.22938302045E+01  0.38303480084E+01  0.85349703250E+01  0.00000000000E+00 0. -1.
</event>
<event>
 7    1  0.5417298E-010  0.4778727E+02  0.7816164E-02  0.1312668E+00
        -11   -1    0    0    0    0  0.00000000000E+00  0.00000000000E+00  0.45593999997E+02  0.45594000000E+02  0.51100000000E-03 0. -1.
         11   -1    0    0    0    0 -0.00000000000E+00 -0.00000000000E+00 -0.45593999997E+02  0.45594000000E+02  0.51100000000E-03 0.  1.
    9900012    2    1    2    0    0  0.15107891476E+01 -0.26864596888E+02 -0.34053402014E+02  0.47787271452E+02  0.20000001858E+02 0.  0.
         12    1    1    2    0    0 -0.15107891476E+01  0.26864596888E+02  0.34053402014E+02  0.43400728548E+02  0.00000000000E+00 0. -1.
         11    1    3    3    0    0  0.78771659610E+00  0.16153123089E+01 -0.29327420524E+01  0.34395795525E+01  0.51100000000E-03 0. -1.
        -11    1    3    3    0    0 -0.55727674871E+01 -0.58520247449E+01 -0.87683782614E+01  0.11924193418E+02  0.51100000000E-03 0.  1.
         12    1    3    3    0    0  0.62958400387E+01 -0.22627884452E+02 -0.22352281700E+02  0.32423498481E+02  0.00000000000E+00 0. -1.
</event>
<event>
 7    1  0.5417298E-010  0.4778729E+02  0.7816164E-02  0.1312668E+00
        -11   -1    0    0    0    0  0.00000000000E+00  0.00000000000E+00  0.45593999997E+02  0.45594000000E+02  0.51100000000E-03 0.  1.
         11   -1    0    0    0    0 -0.00000000000E+00 -0.00000000000E+00 -0.45593999997E+02  0.45594000000E+02  0.51100000000E-03 0. -1.
    9900012    2    1    2    0    0  0.37645915863E+02 -0.96796245827E+01  0.19305736746E+02  0.47787290506E+02  0.20000088735E+02 0.  0.
         12    1    1    2    0    0 -0.37645915863E+02  0.96796245827E+01 -0.19305736746E+02  0.43400709494E+02  0.00000000000E+00 0. -1.
         11    1    3    3    0    0  0.15160050285E+02 -0.96160162834E+01  0.16504759191E+02  0.24386512051E+02  0.51100000000E-03 0. -1.
        -11    1    3    3    0    0  0.16248363350E+02 -0.64005183958E+00  0.45713912802E+01  0.16891317190E+02  0.51100000000E-03 0.  1.
         12    1    3    3    0    0  0.62375022286E+01  0.57644354028E+00 -0.17704137256E+01  0.65094612655E+01  0.00000000000E+00 0. -1.
</event>
<event>
 7    1  0.5417298E-010  0.4778727E+02  0.7816164E-02  0.1312668E+00
        -11   -1    0    0    0    0  0.00000000000E+00  0.00000000000E+00  0.45593999997E+02  0.45594000000E+02  0.51100000000E-03 0.  1.
         11   -1    0    0    0    0 -0.00000000000E+00 -0.00000000000E+00 -0.45593999997E+02  0.45594000000E+02  0.51100000000E-03 0. -1.
    9900012    2    1    2    0    0 -0.37947701532E+01 -0.45430700394E+01  0.42995154156E+02  0.47787273660E+02  0.20000011927E+02 0.  0.
         12    1    1    2    0    0  0.37947701532E+01  0.45430700394E+01 -0.42995154156E+02  0.43400726340E+02  0.00000000000E+00 0. -1.
         11    1    3    3    0    0 -0.35227363466E+01 -0.46149891598E+01  0.85842856141E+01  0.10363288864E+02  0.51100000000E-03 0. -1.
        -11    1    3    3    0    0 -0.11184190914E+00  0.24401074676E+01 -0.44883685275E+00  0.24835635380E+01  0.51100000000E-03 0.  1.
        -12    1    3    3    0    0 -0.16019189745E+00 -0.23681883472E+01  0.34859705395E+02  0.34940421258E+02  0.00000000000E+00 0.  1.
</event>
<event>
 7    1  0.5417298E-010  0.4778727E+02  0.7816164E-02  0.1312668E+00
        -11   -1    0    0    0    0  0.00000000000E+00  0.00000000000E+00  0.45593999997E+02  0.45594000000E+02  0.51100000000E-03 0. -1.
         11   -1    0    0    0    0 -0.00000000000E+00 -0.00000000000E+00 -0.45593999997E+02  0.45594000000E+02  0.51100000000E-03 0.  1.
    9900012    2    1    2    0    0 -0.17014000276E+02  0.16784275175E+02 -0.36227548915E+02  0.47787269604E+02  0.19999993431E+02 0.  0.
         12    1    1    2    0    0  0.17014000276E+02 -0.16784275175E+02  0.36227548915E+02  0.43400730396E+02  0.00000000000E+00 0. -1.
         11    1    3    3    0    0 -0.47554573691E+01  0.59307027801E+01 -0.11600305735E+02  0.13869199821E+02  0.51100000000E-03 0.  1.
        -11    1    3    3    0    0 -0.10109894383E+02 -0.10211101989E+01 -0.62394168758E+01  0.11924049382E+02  0.51100000000E-03 0. -1.
         12    1    3    3    0    0 -0.21486485245E+01  0.11874682594E+02 -0.18387826304E+02  0.21994020400E+02  0.00000000000E+00 0. -1.
</event>
<event>
 7    1  0.5417298E-010  0.4778727E+02  0.7816164E-02  0.1312668E+00
        -11   -1    0    0    0    0  0.00000000000E+00  0.00000000000E+00  0.45593999997E+02  0.45594000000E+02  0.51100000000E-03 0.  1.
         11   -1    0    0    0    0 -0.00000000000E+00 -0.00000000000E+00 -0.45593999997E+02  0.45594000000E+02  0.51100000000E-03 0. -1.
    9900012    2    1    2    0    0 -0.39064540492E+02 -0.13101478161E+02  0.13635846402E+02  0.47787270041E+02  0.19999995427E+02 0.  0.
         12    1    1    2    0    0  0.39064540492E+02  0.13101478161E+02 -0.13635846402E+02  0.43400729959E+02  0.00000000000E+00 0. -1.
         11    1    3    3    0    0 -0.31077288208E+01 -0.54537255422E+01  0.36694362475E+00  0.62877459075E+01  0.51100000000E-03 0. -1.
        -11    1    3    3    0    0 -0.32928167711E+01  0.24564698723E+01 -0.13357560885E+01  0.43198531353E+01  0.51100000000E-03 0.  1.
        -12    1    3    3    0    0 -0.32663994900E+02 -0.10104222491E+02  0.14604658866E+02  0.37179670999E+02  0.00000000000E+00 0.  1.
</event>
<event>
 7    1  0.5417298E-010  0.4778727E+02  0.7816164E-02  0.1312668E+00
        -11   -1    0    0    0    0  0.00000000000E+00  0.00000000000E+00  0.45593999997E+02  0.45594000000E+02  0.51100000000E-03 0. -1.
         11   -1    0    0    0    0 -0.00000000000E+00 -0.00000000000E+00 -0.45593999997E+02  0.45594000000E+02  0.51100000000E-03 0.  1.
    9900012    2    1    2    0    0 -0.74708134138E+00  0.12083661576E+02 -0.41677933894E+02  0.47787272111E+02  0.20000004862E+02 0.  0.
         12    1    1    2    0    0  0.74708134138E+00 -0.12083661576E+02  0.41677933894E+02  0.43400727889E+02  0.00000000000E+00 0. -1.
         11    1    3    3    0    0 -0.19530698661E+01  0.91184233590E+00 -0.32316327166E+01  0.38845062264E+01  0.51100000000E-03 0. -1.
        -11    1    3    3    0    0  0.57559714986E+00  0.46715250592E+00 -0.30615896372E+02  0.30624869869E+02  0.51100000000E-03 0.  1.
         12    1    3    3    0    0  0.63039137483E+00  0.10704666734E+02 -0.78304048053E+01  0.13277896015E+02  0.00000000000E+00 0. -1.
</event>
<event>
 7    1  0.5417298E-010  0.4778729E+02  0.7816164E-02  0.1312668E+00
        -11   -1    0    0    0    0  0.00000000000E+00  0.00000000000E+00  0.45593999997E+02  0.45594000000E+02  0.51100000000E-03 0.  1.
         11   -1    0    0    0    0 -0.00000000000E+00 -0.00000000000E+00 -0.45593999997E+02  0.45594000000E+02  0.51100000000E-03 0. -1.
    9900012    2    1    2    0    0  0.38268633664E+02 -0.15247631552E+01  0.20415895018E+02  0.47787285783E+02  0.20000067199E+02 0.  0.
         12    1    1    2    0    0 -0.38268633664E+02  0.15247631552E+01 -0.20415895018E+02  0.43400714217E+02  0.00000000000E+00 0. -1.
         11    1    3    3    0    0  0.11662394073E+00  0.29782176740E+00 -0.17376897395E+01  0.17668799735E+01  0.51100000000E-03 0. -1.
        -11    1    3    3    0    0  0.15313860243E+02 -0.39274048132E+01  0.28956235202E+01  0.16072444118E+02  0.51100000000E-03 0.  1.
        -12    1    3    3    0    0  0.22838149480E+02  0.21048198906E+01  0.19257961237E+02  0.29947961691E+02  0.00000000000E+00 0.  1.
</event>
<event>
 7    1  0.5417298E-010  0.4778727E+02  0.7816164E-02  0.1312668E+00
        -11   -1    0    0    0    0  0.00000000000E+00  0.00000000000E+00  0.45593999997E+02  0.45594000000E+02  0.51100000000E-03 0.  1.
         11   -1    0    0    0    0 -0.00000000000E+00 -0.00000000000E+00 -0.45593999997E+02  0.45594000000E+02  0.51100000000E-03 0. -1.
    9900012    2    1    2    0    0  0.32414289694E+02 -0.25701353794E+02  0.13129259513E+02  0.47787271682E+02  0.20000002907E+02 0.  0.
         12    1    1    2    0    0 -0.32414289694E+02  0.25701353794E+02 -0.13129259513E+02  0.43400728318E+02  0.00000000000E+00 0. -1.
         11    1    3    3    0    0  0.13092156115E+02 -0.83162992078E+01  0.59309154042E+01  0.16605455189E+02  0.51100000000E-03 0. -1.
        -11    1    3    3    0    0  0.20197101498E+02 -0.13835170203E+02  0.10131088207E+02  0.26494788016E+02  0.51100000000E-03 0.  1.
         12    1    3    3    0    0 -0.87496792001E+00 -0.35498843828E+01 -0.29327440984E+01  0.46870284764E+01  0.00000000000E+00 0. -1.
</event>
<event>
 7    1  0.5417298E-010  0.4778727E+02  0.7816164E-02  0.1312668E+00
        -11   -1    0    0    0    0  0.00000000000E+00  0.00000000000E+00  0.45593999997E+02  0.45594000000E+02  0.51100000000E-03 0. -1.
         11   -1    0    0    0    0 -0.00000000000E+00 -0.00000000000E+00 -0.45593999997E+02  0.45594000000E+02  0.51100000000E-03 0.  1.
    9900012    2    1    2    0    0 -0.12589744806E+02  0.30119800519E+02 -0.28599288869E+02  0.47787269806E+02  0.19999994352E+02 0.  0.
         12    1    1    2    0    0  0.12589744806E+02 -0.30119800519E+02  0.28599288869E+02  0.43400730194E+02  0.00000000000E+00 0. -1.
         11    1    3    3    0    0 -0.89424934379E+00 -0.17774402124E+01 -0.33669885091E+01  0.39109573610E+01  0.51100000000E-03 0. -1.
        -11    1    3    3    0    0 -0.56036872199E+01  0.30081517464E+01 -0.48862408131E+01  0.80203264854E+01  0.51100000000E-03 0.  1.
         12    1    3    3    0    0 -0.60918082423E+01  0.28889088985E+02 -0.20346059547E+02  0.35855985959E+02  0.00000000000E+00 0. -1.
</event>
<event>
 7    1  0.5417298E-010  0.4778727E+02  0.7816164E-02  0.1312668E+00
        -11   -1    0    0    0    0  0.00000000000E+00  0.00000000000E+00  0.45593999997E+02  0.45594000000E+02  0.51100000000E-03 0.  1.
         11   -1    0    0    0    0 -0.00000000000E+00 -0.00000000000E+00 -0.45593999997E+02  0.45594000000E+02  0.51100000000E-03 0. -1.
    9900012    2    1    2    0    0 -0.30275877768E+02  0.12200167556E+02  0.28603329256E+02  0.47787270656E+02  0.19999998230E+02 0.  0.
         12    1    1    2    0    0  0.30275877768E+02 -0.12200167556E+02 -0.28603329256E+02  0.43400729344E+02  0.00000000000E+00 0. -1.
         11    1    3    3    0    0 -0.69929226976E+01  0.73234500851E+01  0.15594769369E+02  0.18593835563E+02  0.51100000000E-03 0. -1.
        -11    1    3    3    0    0 -0.13997890634E+02  0.12288750864E+01  0.13108854110E+02  0.19217001132E+02  0.51100000000E-03 0.  1.
         12    1    3    3    0    0 -0.92850644371E+01  0.36478423847E+01 -0.10029422215E+00  0.99764339619E+01  0.00000000000E+00 0. -1.
</event>
<event>
 7    1  0.5417298E-010  0.4778727E+02  0.7816164E-02  0.1312668E+00
        -11   -1    0    0    0    0  0.00000000000E+00  0.00000000000E+00  0.45593999997E+02  0.45594000000E+02  0.51100000000E-03 0.  1.
         11   -1    0    0    0    0 -0.00000000000E+00 -0.00000000000E+00 -0.45593999997E+02  0.45594000000E+02  0.51100000000E-03 0. -1.
    9900012    2    1    2    0    0 -0.51316135862E+01 -0.10828863571E+01  0.43082676737E+02  0.47787272637E+02  0.20000007259E+02 0.  0.
         12    1    1    2    0    0  0.51316135862E+01  0.10828863571E+01 -0.43082676737E+02  0.43400727363E+02  0.00000000000E+00 0. -1.
         11    1    3    3    0    0  0.16971266627E+01 -0.68666669168E+00  0.22307891504E+02  0.22382890200E+02  0.51100000000E-03 0. -1.
        -11    1    3    3    0    0  0.26540547713E+01 -0.50511821130E+00  0.12592331418E+02  0.12878895991E+02  0.51100000000E-03 0.  1.
         12    1    3    3    0    0 -0.94827950202E+01  0.10889854590E+00  0.81824538143E+01  0.12525486446E+02  0.00000000000E+00 0. -1.
</event>
<event>
 7    1  0.5417298E-010  0.4778727E+02  0.7816164E-02  0.1312668E+00
        -11   -1    0    0    0    0  0.00000000000E+00  0.00000000000E+00  0.45593999997E+02  0.45594000000E+02  0.51100000000E-03 0.  1.
         11   -1    0    0    0    0 -0.00000000000E+00 -0.00000000000E+00 -0.45593999997E+02  0.45594000000E+02  0.51100000000E-03 0. -1.
    9900012    2    1    2    0    0 -0.34966554761E+02  0.19170955129E+02  0.17130018968E+02  0.47787273943E+02  0.20000013218E+02 0.  0.
         12    1    1    2    0    0  0.34966554761E+02 -0.19170955129E+02 -0.17130018968E+02  0.43400726057E+02  0.00000000000E+00 0. -1.
         11    1    3    3    0    0 -0.25677686331E+01 -0.97112980940E+00  0.42899108683E+01  0.50931193172E+01  0.51100000000E-03 0. -1.
        -11    1    3    3    0    0 -0.12070183238E+02  0.56257319615E+01  0.11638165124E+02  0.17685730723E+02  0.51100000000E-03 0.  1.
         12    1    3    3    0    0 -0.20328602889E+02  0.14516352977E+02  0.12019429755E+01  0.25008423903E+02  0.00000000000E+00 0. -1.
</event>
<event>
 7    1  0.5417298E-010  0.4778727E+02  0.7816164E-02  0.1312668E+00
        -11   -1    0    0    0    0  0.00000000000E+00  0.00000000000E+00  0.45593999997E+02  0.45594000000E+02  0.51100000000E-03 0. -1.
         11   -1    0    0    0    0 -0.00000000000E+00 -0.00000000000E+00 -0.45593999997E+02  0.45594000000E+02  0.51100000000E-03 0.  1.
    9900012    2    1    2    0    0  0.17415726001E+02  0.39720065292E+02 -0.16224589073E+01  0.47787268763E+02  0.19999989600E+02 0.  0.
         12    1    1    2    0    0 -0.17415726001E+02 -0.39720065292E+02  0.16224589073E+01  0.43400731237E+02  0.00000000000E+00 0. -1.
         11    1    3    3    0    0  0.27862085809E+01  0.42151058151E+01 -0.67019248579E+01  0.83932039383E+01  0.51100000000E-03 0. -1.
        -11    1    3    3    0    0  0.77544362847E+01  0.10314495468E+02  0.75256955268E+00  0.12926192790E+02  0.51100000000E-03 0.  1.
        -12    1    3    3    0    0  0.68750811350E+01  0.25190464010E+02  0.43268963979E+01  0.26467872035E+02  0.00000000000E+00 0.  1.
</event>
<event>
 7    1  0.5417298E-010  0.4778726E+02  0.7816164E-02  0.1312668E+00
        -11   -1    0    0    0    0  0.00000000000E+00  0.00000000000E+00  0.45593999997E+02  0.45594000000E+02  0.51100000000E-03 0.  1.
         11   -1    0    0    0    0 -0.00000000000E+00 -0.00000000000E+00 -0.45593999997E+02  0.45594000000E+02  0.51100000000E-03 0. -1.
    9900012    2    1    2    0    0  0.52368528828E+01  0.20603574945E+01  0.43034340392E+02  0.47787260904E+02  0.19999953766E+02 0.  0.
         12    1    1    2    0    0 -0.52368528828E+01 -0.20603574945E+01 -0.43034340392E+02  0.43400739096E+02  0.00000000000E+00 0. -1.
         11    1    3    3    0    0 -0.25888934399E+01 -0.98047712286E+00  0.53067511484E+01  0.59854250178E+01  0.51100000000E-03 0. -1.
        -11    1    3    3    0    0  0.99185141526E+01  0.75355394077E+00  0.10747576771E+02  0.14644288076E+02  0.51100000000E-03 0.  1.
        -12    1    3    3    0    0 -0.20927678299E+01  0.22872806766E+01  0.26980012472E+02  0.27157547810E+02  0.00000000000E+00 0.  1.
</event>
<event>
 7    1  0.5417298E-010  0.4778733E+02  0.7816164E-02  0.1312667E+00
        -11   -1    0    0    0    0  0.00000000000E+00  0.00000000000E+00  0.45593999997E+02  0.45594000000E+02  0.51100000000E-03 0. -1.
         11   -1    0    0    0    0 -0.00000000000E+00 -0.00000000000E+00 -0.45593999997E+02  0.45594000000E+02  0.51100000000E-03 0.  1.
    9900012    2    1    2    0    0  0.11691139843E+00  0.13206630322E+01 -0.43380412409E+02  0.47787331804E+02  0.20000277025E+02 0.  0.
         12    1    1    2    0    0 -0.11691139843E+00 -0.13206630322E+01  0.43380412409E+02  0.43400668196E+02  0.00000000000E+00 0. -1.
         11    1    3    3    0    0 -0.23424085984E+01  0.21505813357E+01 -0.45504610054E+01  0.55514478964E+01  0.51100000000E-03 0. -1.
        -11    1    3    3    0    0  0.88266513328E+01  0.10781158861E+01 -0.14457414831E+02  0.16973183304E+02  0.51100000000E-03 0.  1.
        -12    1    3    3    0    0 -0.63673313359E+01 -0.19080341897E+01 -0.24372536572E+02  0.25262700604E+02  0.00000000000E+00 0.  1.
</event>
<event>
 7    1  0.5417298E-010  0.4778731E+02  0.7816164E-02  0.1312668E+00
        -11   -1    0    0    0    0  0.00000000000E+00  0.00000000000E+00  0.45593999997E+02  0.45594000000E+02  0.51100000000E-03 0. -1.
         11   -1    0    0    0    0 -0.00000000000E+00 -0.00000000000E+00 -0.45593999997E+02  0.45594000000E+02  0.51100000000E-03 0.  1.
    9900012    2    1    2    0    0 -0.68804322309E+01 -0.36978748740E+02 -0.21652983495E+02  0.47787309910E+02  0.20000177202E+02 0.  0.
         12    1    1    2    0    0  0.68804322309E+01  0.36978748740E+02  0.21652983495E+02  0.43400690090E+02  0.00000000000E+00 0. -1.
         11    1    3    3    0    0 -0.66755900044E+01 -0.16182701067E+02 -0.84970492134E+01  0.19458755390E+02  0.51100000000E-03 0. -1.
        -11    1    3    3    0    0  0.14384398033E+01 -0.17396295839E+02 -0.32877558430E+01  0.17762588683E+02  0.51100000000E-03 0.  1.
         12    1    3    3    0    0 -0.16432820298E+01 -0.33997518340E+01 -0.98681784390E+01  0.10565965837E+02  0.00000000000E+00 0. -1.
</event>
<event>
 7    1  0.5417298E-010  0.4778727E+02  0.7816164E-02  0.1312668E+00
        -11   -1    0    0    0    0  0.00000000000E+00  0.00000000000E+00  0.45593999997E+02  0.45594000000E+02  0.51100000000E-03 0. -1.
         11   -1    0    0    0    0 -0.00000000000E+00 -0.00000000000E+00 -0.45593999997E+02  0.45594000000E+02  0.51100000000E-03 0.  1.
    9900012    2    1    2    0    0 -0.16120481128E+02 -0.75243696132E-02 -0.40295825868E+02  0.47787267854E+02  0.19999985453E+02 0.  0.
         12    1    1    2    0    0  0.16120481128E+02  0.75243696132E-02  0.40295825868E+02  0.43400732146E+02  0.00000000000E+00 0. -1.
         11    1    3    3    0    0 -0.74686722747E+01 -0.79855138823E+00 -0.12203906612E+02  0.14330180973E+02  0.51100000000E-03 0. -1.
        -11    1    3    3    0    0 -0.59389922302E+01  0.44903827881E+01 -0.27888361762E+02  0.28865132744E+02  0.51100000000E-03 0.  1.
         12    1    3    3    0    0 -0.27128166230E+01 -0.36993557695E+01 -0.20355749416E+00  0.45919541366E+01  0.00000000000E+00 0. -1.
</event>
<event>
 7    1  0.5417298E-010  0.4778727E+02  0.7816164E-02  0.1312668E+00
        -11   -1    0    0    0    0  0.00000000000E+00  0.00000000000E+00  0.45593999997E+02  0.45594000000E+02  0.51100000000E-03 0.  1.
         11   -1    0    0    0    0 -0.00000000000E+00 -0.00000000000E+00 -0.45593999997E+02  0.45594000000E+02  0.51100000000E-03 0. -1.
    9900012    2    1    2    0    0 -0.27671168004E+02 -0.71345222252E+01  0.32665397055E+02  0.47787272923E+02  0.20000008563E+02 0.  0.
         12    1    1    2    0    0  0.27671168004E+02  0.71345222252E+01 -0.32665397055E+02  0.43400727077E+02  0.00000000000E+00 0. -1.
         11    1    3    3    0    0 -0.10408126840E+02  0.69412110423E+01  0.12786279994E+02  0.17888501094E+02  0.51100000000E-03 0. -1.
        -11    1    3    3    0    0 -0.60108305077E+01 -0.59129981764E+01  0.75105644204E+01  0.11291687606E+02  0.51100000000E-03 0.  1.
         12    1    3    3    0    0 -0.11252210656E+02 -0.81627350910E+01  0.12368552641E+02  0.18607084222E+02  0.00000000000E+00 0. -1.
</event>
<event>
 7    1  0.5417298E-010  0.4778727E+02  0.7816164E-02  0.1312668E+00
        -11   -1    0    0    0    0  0.00000000000E+00  0.00000000000E+00  0.45593999997E+02  0.45594000000E+02  0.51100000000E-03 0. -1.
         11   -1    0    0    0    0 -0.00000000000E+00 -0.00000000000E+00 -0.45593999997E+02  0.45594000000E+02  0.51100000000E-03 0.  1.
    9900012    2    1    2    0    0 -0.27027272517E+02  0.24981707372E+02 -0.23001389243E+02  0.47787273393E+02  0.20000010707E+02 0.  0.
         12    1    1    2    0    0  0.27027272517E+02 -0.24981707372E+02  0.23001389243E+02  0.43400726607E+02  0.00000000000E+00 0. -1.
         11    1    3    3    0    0 -0.12529003663E+02  0.90460371275E+01 -0.27626973789E+01  0.15698382642E+02  0.51100000000E-03 0. -1.
        -11    1    3    3    0    0 -0.14949677220E+02  0.11887005013E+02 -0.11118204666E+02  0.22099959557E+02  0.51100000000E-03 0.  1.
         12    1    3    3    0    0  0.45140836620E+00  0.40486652323E+01 -0.91204871979E+01  0.99889311943E+01  0.00000000000E+00 0. -1.
</event>
<event>
 7    1  0.5417298E-010  0.4778727E+02  0.7816164E-02  0.1312668E+00
        -11   -1    0    0    0    0  0.00000000000E+00  0.00000000000E+00  0.45593999997E+02  0.45594000000E+02  0.51100000000E-03 0.  1.
         11   -1    0    0    0    0 -0.00000000000E+00 -0.00000000000E+00 -0.45593999997E+02  0.45594000000E+02  0.51100000000E-03 0. -1.
    9900012    2    1    2    0    0  0.36245541848E+02 -0.28781500870E+01  0.23698107447E+02  0.47787270186E+02  0.19999996088E+02 0.  0.
         12    1    1    2    0    0 -0.36245541848E+02  0.28781500870E+01 -0.23698107447E+02  0.43400729814E+02  0.00000000000E+00 0. -1.
         11    1    3    3    0    0 -0.83313907204E+00 -0.95681065810E+00  0.36223610895E+01  0.38381124883E+01  0.51100000000E-03 0. -1.
        -11    1    3    3    0    0  0.17239060675E+02 -0.50546822858E+01  0.14548605804E+02  0.23117027427E+02  0.51100000000E-03 0.  1.
         12    1    3    3    0    0  0.19839620245E+02  0.31333428569E+01  0.55271405538E+01  0.20832130271E+02  0.00000000000E+00 0. -1.
</event>
<event>
 7    1  0.5417298E-010  0.4778727E+02  0.7816164E-02  0.1312668E+00
        -11   -1    0    0    0    0  0.00000000000E+00  0.00000000000E+00  0.45593999997E+02  0.45594000000E+02  0.51100000000E-03 0.  1.
         11   -1    0    0    0    0 -0.00000000000E+00 -0.00000000000E+00 -0.45593999997E+02  0.45594000000E+02  0.51100000000E-03 0. -1.
    9900012    2    1    2    0    0 -0.63533665423E+01  0.87746030806E+01  0.42026949548E+02  0.47787269430E+02  0.19999992641E+02 0.  0.
         12    1    1    2    0    0  0.63533665423E+01 -0.87746030806E+01 -0.42026949548E+02  0.43400730570E+02  0.00000000000E+00 0. -1.
         11    1    3    3    0    0 -0.27715892362E+01  0.11525074777E+02  0.21292187014E+02  0.24369371835E+02  0.51100000000E-03 0. -1.
        -11    1    3    3    0    0 -0.38698604381E+01  0.14068837291E+01  0.17924909834E+02  0.18391778991E+02  0.51100000000E-03 0.  1.
         12    1    3    3    0    0  0.28808313203E+00 -0.41573554259E+01  0.28098527000E+01  0.50261186043E+01  0.00000000000E+00 0. -1.
</event>
<event>
 7    1  0.5417298E-010  0.4778727E+02  0.7816164E-02  0.1312668E+00
        -11   -1    0    0    0    0  0.00000000000E+00  0.00000000000E+00  0.45593999997E+02  0.45594000000E+02  0.51100000000E-03 0.  1.
         11   -1    0    0    0    0 -0.00000000000E+00 -0.00000000000E+00 -0.45593999997E+02  0.45594000000E+02  0.51100000000E-03 0. -1.
    9900012    2    1    2    0    0  0.24651753604E+02  0.27612894272E+02  0.22659267522E+02  0.47787270853E+02  0.19999999129E+02 0.  0.
         12    1    1    2    0    0 -0.24651753604E+02 -0.27612894272E+02 -0.22659267522E+02  0.43400729147E+02  0.00000000000E+00 0. -1.
         11    1    3    3    0    0  0.33909172486E+01 -0.11146444072E+01  0.42649521875E+01  0.55615258126E+01  0.51100000000E-03 0. -1.
        -11    1    3    3    0    0  0.45649781837E+00  0.91136996839E+01  0.67631329455E+01  0.11358163570E+02  0.51100000000E-03 0.  1.
        -12    1    3    3    0    0  0.20804338537E+02  0.19613838995E+02  0.11631182389E+02  0.30867581471E+02  0.00000000000E+00 0.  1.
</event>
<event>
 7    1  0.5417298E-010  0.4778727E+02  0.7816164E-02  0.1312668E+00
        -11   -1    0    0    0    0  0.00000000000E+00  0.00000000000E+00  0.45593999997E+02  0.45594000000E+02  0.51100000000E-03 0.  1.
         11   -1    0    0    0    0 -0.00000000000E+00 -0.00000000000E+00 -0.45593999997E+02  0.45594000000E+02  0.51100000000E-03 0. -1.
    9900012    2    1    2    0    0  0.39348117591E+02 -0.18277430570E+02  0.11333850053E+01  0.47787269733E+02  0.19999994018E+02 0.  0.
         12    1    1    2    0    0 -0.39348117591E+02  0.18277430570E+02 -0.11333850053E+01  0.43400730267E+02  0.00000000000E+00 0. -1.
         11    1    3    3    0    0  0.67159722218E+01 -0.37218341761E+01  0.28190025527E+01  0.81794320201E+01  0.51100000000E-03 0.  1.
        -11    1    3    3    0    0  0.21561426749E+02 -0.30764907311E+01  0.49490892257E+01  0.22335026374E+02  0.51100000000E-03 0. -1.
         12    1    3    3    0    0  0.11070718619E+02 -0.11479105663E+02 -0.66347067731E+01  0.17272811339E+02  0.00000000000E+00 0. -1.
</event>
<event>
 7    1  0.5417298E-010  0.4778727E+02  0.7816164E-02  0.1312668E+00
        -11   -1    0    0    0    0  0.00000000000E+00  0.00000000000E+00  0.45593999997E+02  0.45594000000E+02  0.51100000000E-03 0. -1.
         11   -1    0    0    0    0 -0.00000000000E+00 -0.00000000000E+00 -0.45593999997E+02  0.45594000000E+02  0.51100000000E-03 0.  1.
    9900012    2    1    2    0    0 -0.23724601176E+02  0.36334405833E+02 -0.75984876403E+00  0.47787272836E+02  0.20000008170E+02 0.  0.
         12    1    1    2    0    0  0.23724601176E+02 -0.36334405833E+02  0.75984876403E+00  0.43400727164E+02  0.00000000000E+00 0. -1.
         11    1    3    3    0    0 -0.16735672977E+01  0.90937428674E+01  0.35842099709E+01  0.99168315613E+01  0.51100000000E-03 0. -1.
        -11    1    3    3    0    0 -0.11230187569E+02  0.19270421919E+02  0.30820339507E+01  0.22515887886E+02  0.51100000000E-03 0.  1.
        -12    1    3    3    0    0 -0.10820846310E+02  0.79702410459E+01 -0.74260926857E+01  0.15354553389E+02  0.00000000000E+00 0.  1.
</event>
<event>
 7    1  0.5417298E-010  0.4778727E+02  0.7816164E-02  0.1312668E+00
        -11   -1    0    0    0    0  0.00000000000E+00  0.00000000000E+00  0.45593999997E+02  0.45594000000E+02  0.51100000000E-03 0.  1.
         11   -1    0    0    0    0 -0.00000000000E+00 -0.00000000000E+00 -0.45593999997E+02  0.45594000000E+02  0.51100000000E-03 0. -1.
    9900012    2    1    2    0    0  0.26560025771E+02  0.21346528523E+02  0.26879620024E+02  0.47787271647E+02  0.20000002746E+02 0.  0.
         12    1    1    2    0    0 -0.26560025771E+02 -0.21346528523E+02 -0.26879620024E+02  0.43400728353E+02  0.00000000000E+00 0. -1.
         11    1    3    3    0    0  0.58915599966E+00  0.97381698822E+01  0.34826697280E+01  0.10358959704E+02  0.51100000000E-03 0. -1.
        -11    1    3    3    0    0  0.86746023164E+01  0.70612087926E+01  0.10840863804E+02  0.15576704505E+02  0.51100000000E-03 0.  1.
        -12    1    3    3    0    0  0.17296267455E+02  0.45471498486E+01  0.12556086492E+02  0.21851607438E+02  0.00000000000E+00 0.  1.
</event>
<event>
 7    1  0.5417298E-010  0.4778727E+02  0.7816164E-02  0.1312668E+00
        -11   -1    0    0    0    0  0.00000000000E+00  0.00000000000E+00  0.45593999997E+02  0.45594000000E+02  0.51100000000E-03 0. -1.
         11   -1    0    0    0    0 -0.00000000000E+00 -0.00000000000E+00 -0.45593999997E+02  0.45594000000E+02  0.51100000000E-03 0.  1.
    9900012    2    1    2    0    0  0.11733562635E+02 -0.39460683864E+02 -0.13740503064E+02  0.47787268583E+02  0.19999988777E+02 0.  0.
         12    1    1    2    0    0 -0.11733562635E+02  0.39460683864E+02  0.13740503064E+02  0.43400731417E+02  0.00000000000E+00 0. -1.
         11    1    3    3    0    0  0.11620179340E+02 -0.31508960291E+02 -0.16613148741E+02  0.37467850991E+02  0.51100000000E-03 0.  1.
        -11    1    3    3    0    0 -0.24811377650E+00 -0.51455045876E+01 -0.12671997663E+01  0.53050516884E+01  0.51100000000E-03 0. -1.
         12    1    3    3    0    0  0.36149707101E+00 -0.28062189844E+01  0.41398454429E+01  0.50143659032E+01  0.00000000000E+00 0. -1.
</event>
<event>
 7    1  0.5417298E-010  0.4778727E+02  0.7816164E-02  0.1312668E+00
        -11   -1    0    0    0    0  0.00000000000E+00  0.00000000000E+00  0.45593999997E+02  0.45594000000E+02  0.51100000000E-03 0.  1.
         11   -1    0    0    0    0 -0.00000000000E+00 -0.00000000000E+00 -0.45593999997E+02  0.45594000000E+02  0.51100000000E-03 0. -1.
    9900012    2    1    2    0    0 -0.17546178972E+02  0.13862354414E+01  0.39671568960E+02  0.47787269257E+02  0.19999991853E+02 0.  0.
         12    1    1    2    0    0  0.17546178972E+02 -0.13862354414E+01 -0.39671568960E+02  0.43400730743E+02  0.00000000000E+00 0. -1.
         11    1    3    3    0    0 -0.65350393102E+00 -0.48965537617E+00 -0.59426747952E+00  0.10099425101E+01  0.51100000000E-03 0. -1.
        -11    1    3    3    0    0 -0.12184541206E+02  0.89486204958E+01  0.22831028996E+02  0.27382416593E+02  0.51100000000E-03 0.  1.
        -12    1    3    3    0    0 -0.47081338350E+01 -0.70727296782E+01  0.17434807443E+02  0.19394910154E+02  0.00000000000E+00 0.  1.
</event>
<event>
 7    1  0.5417298E-010  0.4778727E+02  0.7816164E-02  0.1312668E+00
        -11   -1    0    0    0    0  0.00000000000E+00  0.00000000000E+00  0.45593999997E+02  0.45594000000E+02  0.51100000000E-03 0. -1.
         11   -1    0    0    0    0 -0.00000000000E+00 -0.00000000000E+00 -0.45593999997E+02  0.45594000000E+02  0.51100000000E-03 0.  1.
    9900012    2    1    2    0    0 -0.36436807747E+02  0.55062196637E+01 -0.22927354793E+02  0.47787274067E+02  0.20000013779E+02 0.  0.
         12    1    1    2    0    0  0.36436807747E+02 -0.55062196637E+01  0.22927354793E+02  0.43400725933E+02  0.00000000000E+00 0. -1.
         11    1    3    3    0    0 -0.14716244567E+02  0.67004480586E+01 -0.60711868179E+01  0.17272034274E+02  0.51100000000E-03 0. -1.
        -11    1    3    3    0    0 -0.74995495451E+01  0.48514430517E+01 -0.10555235908E+02  0.13827246595E+02  0.51100000000E-03 0.  1.
         12    1    3    3    0    0 -0.14221013635E+02 -0.60456714467E+01 -0.63009320672E+01  0.16687993198E+02  0.00000000000E+00 0. -1.
</event>
<event>
 7    1  0.5417298E-010  0.4778725E+02  0.7816164E-02  0.1312668E+00
        -11   -1    0    0    0    0  0.00000000000E+00  0.00000000000E+00  0.45593999997E+02  0.45594000000E+02  0.51100000000E-03 0.  1.
         11   -1    0    0    0    0 -0.00000000000E+00 -0.00000000000E+00 -0.45593999997E+02  0.45594000000E+02  0.51100000000E-03 0. -1.
    9900012    2    1    2    0    0  0.16412176026E+02  0.12140073444E+02  0.38299928927E+02  0.47787245848E+02  0.19999885119E+02 0.  0.
         12    1    1    2    0    0 -0.16412176026E+02 -0.12140073444E+02 -0.38299928927E+02  0.43400754152E+02  0.00000000000E+00 0. -1.
         11    1    3    3    0    0 -0.56035653017E+00 -0.22427992267E+01  0.33594878121E+01  0.40780272722E+01  0.51100000000E-03 0. -1.
        -11    1    3    3    0    0  0.35233781963E+00  0.85021015284E+01  0.94572625351E+01  0.12722015849E+02  0.51100000000E-03 0.  1.
         12    1    3    3    0    0  0.16620194736E+02  0.58807711422E+01  0.25483178580E+02  0.30987202727E+02  0.00000000000E+00 0. -1.
</event>
<event>
 7    1  0.5417298E-010  0.4778727E+02  0.7816164E-02  0.1312668E+00
        -11   -1    0    0    0    0  0.00000000000E+00  0.00000000000E+00  0.45593999997E+02  0.45594000000E+02  0.51100000000E-03 0.  1.
         11   -1    0    0    0    0 -0.00000000000E+00 -0.00000000000E+00 -0.45593999997E+02  0.45594000000E+02  0.51100000000E-03 0. -1.
    9900012    2    1    2    0    0  0.58680425902E+01 -0.27070055742E+02  0.33412595349E+02  0.47787269941E+02  0.19999994969E+02 0.  0.
         12    1    1    2    0    0 -0.58680425902E+01  0.27070055742E+02 -0.33412595349E+02  0.43400730059E+02  0.00000000000E+00 0. -1.
         11    1    3    3    0    0 -0.10416623365E+01  0.37185612049E+00  0.48364971140E+00  0.12071680505E+01  0.51100000000E-03 0. -1.
        -11    1    3    3    0    0  0.20315044818E+01 -0.27617461946E+01  0.15744650700E+02  0.16113605383E+02  0.51100000000E-03 0.  1.
        -12    1    3    3    0    0  0.48782004449E+01 -0.24680165667E+02  0.17184294937E+02  0.30466496507E+02  0.00000000000E+00 0.  1.
</event>
<event>
 7    1  0.5417298E-010  0.4778727E+02  0.7816164E-02  0.1312668E+00
        -11   -1    0    0    0    0  0.00000000000E+00  0.00000000000E+00  0.45593999997E+02  0.45594000000E+02  0.51100000000E-03 0. -1.
         11   -1    0    0    0    0 -0.00000000000E+00 -0.00000000000E+00 -0.45593999997E+02  0.45594000000E+02  0.51100000000E-03 0.  1.
    9900012    2    1    2    0    0  0.14438886224E+02  0.20061725336E+02 -0.35674486353E+02  0.47787271488E+02  0.20000002022E+02 0.  0.
         12    1    1    2    0    0 -0.14438886224E+02 -0.20061725336E+02  0.35674486353E+02  0.43400728512E+02  0.00000000000E+00 0. -1.
         11    1    3    3    0    0 -0.29429371334E+01  0.12915015474E+01 -0.69263150835E+01  0.76356202181E+01  0.51100000000E-03 0. -1.
        -11    1    3    3    0    0  0.86121900552E+01  0.73552387925E+01 -0.20862616995E+02  0.23738537095E+02  0.51100000000E-03 0.  1.
        -12    1    3    3    0    0  0.87696333018E+01  0.11414984997E+02 -0.78855542738E+01  0.16413114175E+02  0.00000000000E+00 0.  1.
</event>
<event>
 7    1  0.5417298E-010  0.4778728E+02  0.7816164E-02  0.1312668E+00
        -11   -1    0    0    0    0  0.00000000000E+00  0.00000000000E+00  0.45593999997E+02  0.45594000000E+02  0.51100000000E-03 0.  1.
         11   -1    0    0    0    0 -0.00000000000E+00 -0.00000000000E+00 -0.45593999997E+02  0.45594000000E+02  0.51100000000E-03 0. -1.
    9900012    2    1    2    0    0  0.33119390866E+01  0.34174443354E+02  0.26547339419E+02  0.47787277088E+02  0.20000027554E+02 0.  0.
         12    1    1    2    0    0 -0.33119390866E+01 -0.34174443354E+02 -0.26547339419E+02  0.43400722912E+02  0.00000000000E+00 0. -1.
         11    1    3    3    0    0  0.19642558192E+01 -0.58613788073E+00 -0.24160645921E+00  0.20640330619E+01  0.51100000000E-03 0. -1.
        -11    1    3    3    0    0  0.11968755258E+01  0.19563326763E+01 -0.12113731253E+01  0.25936795628E+01  0.51100000000E-03 0.  1.
        -12    1    3    3    0    0  0.15080774159E+00  0.32804248559E+02  0.28000319003E+02  0.43129564463E+02  0.00000000000E+00 0.  1.
</event>
<event>
 7    1  0.5417298E-010  0.4778728E+02  0.7816164E-02  0.1312668E+00
        -11   -1    0    0    0    0  0.00000000000E+00  0.00000000000E+00  0.45593999997E+02  0.45594000000E+02  0.51100000000E-03 0.  1.
         11   -1    0    0    0    0 -0.00000000000E+00 -0.00000000000E+00 -0.45593999997E+02  0.45594000000E+02  0.51100000000E-03 0. -1.
    9900012    2    1    2    0    0  0.17529227984E+02  0.80733737604E+01  0.38873765026E+02  0.47787276447E+02  0.20000024633E+02 0.  0.
         12    1    1    2    0    0 -0.17529227984E+02 -0.80733737604E+01 -0.38873765026E+02  0.43400723553E+02  0.00000000000E+00 0. -1.
         11    1    3    3    0    0  0.39925702115E+01  0.24638213705E+01  0.14115584718E+01  0.48993397738E+01  0.51100000000E-03 0. -1.
        -11    1    3    3    0    0  0.59669665959E+01 -0.19968779185E+01  0.33517140639E+01  0.71292495542E+01  0.51100000000E-03 0.  1.
        -12    1    3    3    0    0  0.75696911766E+01  0.76064303085E+01  0.34110492490E+02  0.35758687119E+02  0.00000000000E+00 0.  1.
</event>
<event>
 7    1  0.5417298E-010  0.4778727E+02  0.7816164E-02  0.1312668E+00
        -11   -1    0    0    0    0  0.00000000000E+00  0.00000000000E+00  0.45593999997E+02  0.45594000000E+02  0.51100000000E-03 0.  1.
         11   -1    0    0    0    0 -0.00000000000E+00 -0.00000000000E+00 -0.45593999997E+02  0.45594000000E+02  0.51100000000E-03 0. -1.
    9900012    2    1    2    0    0  0.20564806674E+02  0.19346880564E+01  0.38170268738E+02  0.47787266055E+02  0.19999977253E+02 0.  0.
         12    1    1    2    0    0 -0.20564806674E+02 -0.19346880564E+01 -0.38170268738E+02  0.43400733945E+02  0.00000000000E+00 0. -1.
         11    1    3    3    0    0  0.10645117771E+02  0.75341352551E+00  0.12550108377E+02  0.16473960812E+02  0.51100000000E-03 0. -1.
        -11    1    3    3    0    0  0.66276317149E+01 -0.48829021815E+01  0.51472998509E+01  0.97089099223E+01  0.51100000000E-03 0.  1.
         12    1    3    3    0    0  0.32920571875E+01  0.60641767124E+01  0.20472860510E+02  0.21604395321E+02  0.00000000000E+00 0. -1.
</event>
<event>
 7    1  0.5417298E-010  0.4778726E+02  0.7816164E-02  0.1312668E+00
        -11   -1    0    0    0    0  0.00000000000E+00  0.00000000000E+00  0.45593999997E+02  0.45594000000E+02  0.51100000000E-03 0.  1.
         11   -1    0    0    0    0 -0.00000000000E+00 -0.00000000000E+00 -0.45593999997E+02  0.45594000000E+02  0.51100000000E-03 0. -1.
    9900012    2    1    2    0    0  0.23877918066E+02 -0.23951705486E+02  0.27198986267E+02  0.47787262440E+02  0.19999960767E+02 0.  0.
         12    1    1    2    0    0 -0.23877918066E+02  0.23951705486E+02 -0.27198986267E+02  0.43400737560E+02  0.00000000000E+00 0. -1.
         11    1    3    3    0    0  0.68241762226E+01 -0.88489106566E+01  0.49952845239E+01  0.12240321428E+02  0.51100000000E-03 0. -1.
        -11    1    3    3    0    0  0.93789856873E+01 -0.17383515937E+02  0.15693555219E+02  0.25227756034E+02  0.51100000000E-03 0.  1.
         12    1    3    3    0    0  0.76747561564E+01  0.22807211082E+01  0.65101465240E+01  0.10319184977E+02  0.00000000000E+00 0. -1.
</event>
<event>
 7    1  0.5417298E-010  0.4778727E+02  0.7816164E-02  0.1312668E+00
        -11   -1    0    0    0    0  0.00000000000E+00  0.00000000000E+00  0.45593999997E+02  0.45594000000E+02  0.51100000000E-03 0.  1.
         11   -1    0    0    0    0 -0.00000000000E+00 -0.00000000000E+00 -0.45593999997E+02  0.45594000000E+02  0.51100000000E-03 0. -1.
    9900012    2    1    2    0    0 -0.14184452478E+02 -0.22817874964E+02  0.34084733231E+02  0.47787272478E+02  0.20000006537E+02 0.  0.
         12    1    1    2    0    0  0.14184452478E+02  0.22817874964E+02 -0.34084733231E+02  0.43400727522E+02  0.00000000000E+00 0. -1.
         11    1    3    3    0    0 -0.72239041665E+01 -0.11621704473E+02  0.48942279092E+01  0.14532799915E+02  0.51100000000E-03 0. -1.
        -11    1    3    3    0    0  0.71283148185E+00  0.80550503787E+00  0.42789958028E+00  0.11576119382E+01  0.51100000000E-03 0.  1.
        -12    1    3    3    0    0 -0.76733797932E+01 -0.12001675528E+02  0.28762605742E+02  0.32096860625E+02  0.00000000000E+00 0.  1.
</event>
<event>
 7    1  0.5417298E-010  0.4778727E+02  0.7816164E-02  0.1312668E+00
        -11   -1    0    0    0    0  0.00000000000E+00  0.00000000000E+00  0.45593999997E+02  0.45594000000E+02  0.51100000000E-03 0. -1.
         11   -1    0    0    0    0 -0.00000000000E+00 -0.00000000000E+00 -0.45593999997E+02  0.45594000000E+02  0.51100000000E-03 0.  1.
    9900012    2    1    2    0    0  0.22182778629E+02 -0.37303405642E+02  0.61229926985E-01  0.47787268563E+02  0.19999988686E+02 0.  0.
         12    1    1    2    0    0 -0.22182778629E+02  0.37303405642E+02 -0.61229926985E-01  0.43400731437E+02  0.00000000000E+00 0. -1.
         11    1    3    3    0    0  0.65349095407E+01 -0.15157357031E+01 -0.87317908639E-01  0.67089583473E+01  0.51100000000E-03 0. -1.
        -11    1    3    3    0    0  0.91138026680E+01 -0.12854443462E+02  0.54072904308E+01  0.16659438942E+02  0.51100000000E-03 0.  1.
         12    1    3    3    0    0  0.65340664203E+01 -0.22933226476E+02 -0.52587425952E+01  0.24418871273E+02  0.00000000000E+00 0. -1.
</event>
<event>
 7    1  0.5417298E-010  0.4778727E+02  0.7816164E-02  0.1312668E+00
        -11   -1    0    0    0    0  0.00000000000E+00  0.00000000000E+00  0.45593999997E+02  0.45594000000E+02  0.51100000000E-03 0.  1.
         11   -1    0    0    0    0 -0.00000000000E+00 -0.00000000000E+00 -0.45593999997E+02  0.45594000000E+02  0.51100000000E-03 0. -1.
    9900012    2    1    2    0    0  0.16976705871E+00 -0.12518328875E+02  0.41555821772E+02  0.47787266114E+02  0.19999977521E+02 0.  0.
         12    1    1    2    0    0 -0.16976705871E+00  0.12518328875E+02 -0.41555821772E+02  0.43400733886E+02  0.00000000000E+00 0. -1.
         11    1    3    3    0    0  0.23889393177E+01  0.37552702634E+01  0.11006210105E+02  0.11872057402E+02  0.51100000000E-03 0. -1.
        -11    1    3    3    0    0 -0.33343216755E+00 -0.54569301197E+01  0.19831722800E+02  0.20571497097E+02  0.51100000000E-03 0.  1.
         12    1    3    3    0    0 -0.18857400914E+01 -0.10816669019E+02  0.10717888867E+02  0.15343711615E+02  0.00000000000E+00 0. -1.
</event>
<event>
 7    1  0.5417298E-010  0.4778727E+02  0.7816164E-02  0.1312668E+00
        -11   -1    0    0    0    0  0.00000000000E+00  0.00000000000E+00  0.45593999997E+02  0.45594000000E+02  0.51100000000E-03 0. -1.
         11   -1    0    0    0    0 -0.00000000000E+00 -0.00000000000E+00 -0.45593999997E+02  0.45594000000E+02  0.51100000000E-03 0.  1.
    9900012    2    1    2    0    0 -0.35143238205E+02  0.47994567316E+01 -0.25010823620E+02  0.47787271036E+02  0.19999999961E+02 0.  0.
         12    1    1    2    0    0  0.35143238205E+02 -0.47994567316E+01  0.25010823620E+02  0.43400728964E+02  0.00000000000E+00 0. -1.
         11    1    3    3    0    0 -0.39308930327E+00 -0.15906996301E+01 -0.30987089149E+01  0.35052591508E+01  0.51100000000E-03 0. -1.
        -11    1    3    3    0    0 -0.21384372164E+01  0.45401530567E+01 -0.12807438028E+00  0.50201899182E+01  0.51100000000E-03 0.  1.
        -12    1    3    3    0    0 -0.32611711686E+02  0.18500033050E+01 -0.21784040325E+02  0.39261821967E+02  0.00000000000E+00 0.  1.
</event>
<event>
 7    1  0.5417298E-010  0.4778728E+02  0.7816164E-02  0.1312668E+00
        -11   -1    0    0    0    0  0.00000000000E+00  0.00000000000E+00  0.45593999997E+02  0.45594000000E+02  0.51100000000E-03 0.  1.
         11   -1    0    0    0    0 -0.00000000000E+00 -0.00000000000E+00 -0.45593999997E+02  0.45594000000E+02  0.51100000000E-03 0. -1.
    9900012    2    1    2    0    0 -0.15707958975E+02  0.18380290994E+02  0.36042302482E+02  0.47787278343E+02  0.20000033275E+02 0.  0.
         12    1    1    2    0    0  0.15707958975E+02 -0.18380290994E+02 -0.36042302482E+02  0.43400721657E+02  0.00000000000E+00 0. -1.
         11    1    3    3    0    0 -0.45243906566E+01  0.34229010853E+00  0.52339770239E+01  0.69268888456E+01  0.51100000000E-03 0. -1.
        -11    1    3    3    0    0 -0.12356377026E+02  0.19994672354E+02  0.23634206747E+02  0.33332307219E+02  0.51100000000E-03 0.  1.
        -12    1    3    3    0    0  0.11728087074E+01 -0.19566714685E+01  0.71741187112E+01  0.75280822778E+01  0.00000000000E+00 0.  1.
</event>
<event>
 7    1  0.5417298E-010  0.4778727E+02  0.7816164E-02  0.1312668E+00
        -11   -1    0    0    0    0  0.00000000000E+00  0.00000000000E+00  0.45593999997E+02  0.45594000000E+02  0.51100000000E-03 0.  1.
         11   -1    0    0    0    0 -0.00000000000E+00 -0.00000000000E+00 -0.45593999997E+02  0.45594000000E+02  0.51100000000E-03 0. -1.
    9900012    2    1    2    0    0  0.11205624473E+02 -0.31912385050E+02  0.27196634099E+02  0.47787271369E+02  0.20000001480E+02 0.  0.
         12    1    1    2    0    0 -0.11205624473E+02  0.31912385050E+02 -0.27196634099E+02  0.43400728631E+02  0.00000000000E+00 0. -1.
         11    1    3    3    0    0 -0.55554842765E+01 -0.10637543807E+02  0.79371540149E+01  0.14388160338E+02  0.51100000000E-03 0. -1.
        -11    1    3    3    0    0  0.96117693611E+01 -0.13406620963E+02  0.99265087249E+01  0.19252510788E+02  0.51100000000E-03 0.  1.
         12    1    3    3    0    0  0.71493393881E+01 -0.78682202798E+01  0.93329713592E+01  0.14146600244E+02  0.00000000000E+00 0. -1.
</event>
<event>
 7    1  0.5417298E-010  0.4778727E+02  0.7816164E-02  0.1312668E+00
        -11   -1    0    0    0    0  0.00000000000E+00  0.00000000000E+00  0.45593999997E+02  0.45594000000E+02  0.51100000000E-03 0.  1.
         11   -1    0    0    0    0 -0.00000000000E+00 -0.00000000000E+00 -0.45593999997E+02  0.45594000000E+02  0.51100000000E-03 0. -1.
    9900012    2    1    2    0    0 -0.12049334463E+02  0.30528616460E+02  0.28397888813E+02  0.47787274511E+02  0.20000015803E+02 0.  0.
         12    1    1    2    0    0  0.12049334463E+02 -0.30528616460E+02 -0.28397888813E+02  0.43400725489E+02  0.00000000000E+00 0. -1.
         11    1    3    3    0    0  0.91161186360E+00 -0.69600786975E+00  0.26774546081E+01  0.29127695728E+01  0.51100000000E-03 0. -1.
        -11    1    3    3    0    0 -0.80932852614E+00  0.19106099621E+02  0.99021516871E+01  0.21534870877E+02  0.51100000000E-03 0.  1.
        -12    1    3    3    0    0 -0.12151617801E+02  0.12118524710E+02  0.15818282518E+02  0.23339634061E+02  0.00000000000E+00 0.  1.
</event>
<event>
 7    1  0.5417298E-010  0.4778727E+02  0.7816164E-02  0.1312668E+00
        -11   -1    0    0    0    0  0.00000000000E+00  0.00000000000E+00  0.45593999997E+02  0.45594000000E+02  0.51100000000E-03 0.  1.
         11   -1    0    0    0    0 -0.00000000000E+00 -0.00000000000E+00 -0.45593999997E+02  0.45594000000E+02  0.51100000000E-03 0. -1.
    9900012    2    1    2    0    0  0.25969949957E+02 -0.35092993226E+01  0.34595812646E+02  0.47787265730E+02  0.19999975772E+02 0.  0.
         12    1    1    2    0    0 -0.25969949957E+02  0.35092993226E+01 -0.34595812646E+02  0.43400734270E+02  0.00000000000E+00 0. -1.
         11    1    3    3    0    0 -0.85803988395E+00 -0.16178674531E+01  0.78166686054E+00  0.19911631978E+01  0.51100000000E-03 0. -1.
        -11    1    3    3    0    0  0.16164406202E+02 -0.77976149084E+01  0.24904003253E+02  0.30696908711E+02  0.51100000000E-03 0.  1.
         12    1    3    3    0    0  0.10663583639E+02  0.59061830390E+01  0.89101425318E+01  0.15099193821E+02  0.00000000000E+00 0. -1.
</event>
<event>
 7    1  0.5417298E-010  0.4778727E+02  0.7816164E-02  0.1312668E+00
        -11   -1    0    0    0    0  0.00000000000E+00  0.00000000000E+00  0.45593999997E+02  0.45594000000E+02  0.51100000000E-03 0.  1.
         11   -1    0    0    0    0 -0.00000000000E+00 -0.00000000000E+00 -0.45593999997E+02  0.45594000000E+02  0.51100000000E-03 0. -1.
    9900012    2    1    2    0    0 -0.32565928234E+02 -0.20624517811E+02  0.19942745180E+02  0.47787268416E+02  0.19999988017E+02 0.  0.
         12    1    1    2    0    0  0.32565928234E+02  0.20624517811E+02 -0.19942745180E+02  0.43400731584E+02  0.00000000000E+00 0. -1.
         11    1    3    3    0    0 -0.32683352102E+01  0.26040025661E+01  0.62735514092E+01  0.75379235838E+01  0.51100000000E-03 0. -1.
        -11    1    3    3    0    0 -0.97561338797E+01 -0.45411825576E+01  0.48996995472E+01  0.11824193132E+02  0.51100000000E-03 0.  1.
        -12    1    3    3    0    0 -0.19541459144E+02 -0.18687337820E+02  0.87694942234E+01  0.28425151701E+02  0.00000000000E+00 0.  1.
</event>
<event>
 7    1  0.5417298E-010  0.4778727E+02  0.7816164E-02  0.1312668E+00
        -11   -1    0    0    0    0  0.00000000000E+00  0.00000000000E+00  0.45593999997E+02  0.45594000000E+02  0.51100000000E-03 0. -1.
         11   -1    0    0    0    0 -0.00000000000E+00 -0.00000000000E+00 -0.45593999997E+02  0.45594000000E+02  0.51100000000E-03 0.  1.
    9900012    2    1    2    0    0 -0.89118490852E+01  0.40984457118E+02 -0.11156908766E+02  0.47787269676E+02  0.19999993763E+02 0.  0.
         12    1    1    2    0    0  0.89118490852E+01 -0.40984457118E+02  0.11156908766E+02  0.43400730324E+02  0.00000000000E+00 0. -1.
         11    1    3    3    0    0 -0.88943983040E+00  0.11386508710E+02  0.35741813742E+01  0.11967391386E+02  0.51100000000E-03 0. -1.
        -11    1    3    3    0    0  0.77730843153E+00  0.16277402301E+02 -0.46799859097E+01  0.16954654300E+02  0.51100000000E-03 0.  1.
        -12    1    3    3    0    0 -0.87997176863E+01  0.13320546107E+02 -0.10051104231E+02  0.18865223990E+02  0.00000000000E+00 0.  1.
</event>
<event>
 7    1  0.5417298E-010  0.4778727E+02  0.7816164E-02  0.1312668E+00
        -11   -1    0    0    0    0  0.00000000000E+00  0.00000000000E+00  0.45593999997E+02  0.45594000000E+02  0.51100000000E-03 0.  1.
         11   -1    0    0    0    0 -0.00000000000E+00 -0.00000000000E+00 -0.45593999997E+02  0.45594000000E+02  0.51100000000E-03 0. -1.
    9900012    2    1    2    0    0 -0.61658438056E+01 -0.26348204994E+02  0.33931957704E+02  0.47787270861E+02  0.19999999163E+02 0.  0.
         12    1    1    2    0    0  0.61658438056E+01  0.26348204994E+02 -0.33931957704E+02  0.43400729139E+02  0.00000000000E+00 0. -1.
         11    1    3    3    0    0  0.62084431175E+01 -0.31043653338E+01  0.56859917074E+01  0.89728675476E+01  0.51100000000E-03 0. -1.
        -11    1    3    3    0    0 -0.17362967444E+00 -0.28326428595E+01  0.28016932130E+01  0.39879190005E+01  0.51100000000E-03 0.  1.
         12    1    3    3    0    0 -0.12200657249E+02 -0.20411196800E+02  0.25444272783E+02  0.34826484313E+02  0.00000000000E+00 0. -1.
</event>
<event>
 7    1  0.5417298E-010  0.4778727E+02  0.7816164E-02  0.1312668E+00
        -11   -1    0    0    0    0  0.00000000000E+00  0.00000000000E+00  0.45593999997E+02  0.45594000000E+02  0.51100000000E-03 0.  1.
         11   -1    0    0    0    0 -0.00000000000E+00 -0.00000000000E+00 -0.45593999997E+02  0.45594000000E+02  0.51100000000E-03 0. -1.
    9900012    2    1    2    0    0 -0.23907462540E+02 -0.86904055587E+01  0.35164372907E+02  0.47787273787E+02  0.20000012503E+02 0.  0.
         12    1    1    2    0    0  0.23907462540E+02  0.86904055587E+01 -0.35164372907E+02  0.43400726213E+02  0.00000000000E+00 0. -1.
         11    1    3    3    0    0 -0.11386664329E+02 -0.11612721647E+01  0.13630859400E+02  0.17799016990E+02  0.51100000000E-03 0. -1.
        -11    1    3    3    0    0 -0.12515212890E+02 -0.11709787088E+01  0.19704248329E+02  0.23372187473E+02  0.51100000000E-03 0.  1.
         12    1    3    3    0    0 -0.55853209708E-02 -0.63581546851E+01  0.18292651787E+01  0.66160693232E+01  0.00000000000E+00 0. -1.
</event>
<event>
 7    1  0.5417298E-010  0.4778727E+02  0.7816164E-02  0.1312668E+00
        -11   -1    0    0    0    0  0.00000000000E+00  0.00000000000E+00  0.45593999997E+02  0.45594000000E+02  0.51100000000E-03 0.  1.
         11   -1    0    0    0    0 -0.00000000000E+00 -0.00000000000E+00 -0.45593999997E+02  0.45594000000E+02  0.51100000000E-03 0. -1.
    9900012    2    1    2    0    0  0.48264753957E+01 -0.12813895348E+02  0.41184128817E+02  0.47787271376E+02  0.20000001511E+02 0.  0.
         12    1    1    2    0    0 -0.48264753957E+01  0.12813895348E+02 -0.41184128817E+02  0.43400728624E+02  0.00000000000E+00 0. -1.
         11    1    3    3    0    0 -0.62009218307E+01 -0.84144977376E+01  0.24150007022E+02  0.26314977544E+02  0.51100000000E-03 0. -1.
        -11    1    3    3    0    0  0.10022438130E+01  0.16627105067E-01 -0.22763141791E+00  0.10279034220E+01  0.51100000000E-03 0.  1.
        -12    1    3    3    0    0  0.10025153413E+02 -0.44160247155E+01  0.17261753213E+02  0.20444390410E+02  0.00000000000E+00 0.  1.
</event>
<event>
 7    1  0.5417298E-010  0.4778727E+02  0.7816164E-02  0.1312668E+00
        -11   -1    0    0    0    0  0.00000000000E+00  0.00000000000E+00  0.45593999997E+02  0.45594000000E+02  0.51100000000E-03 0.  1.
         11   -1    0    0    0    0 -0.00000000000E+00 -0.00000000000E+00 -0.45593999997E+02  0.45594000000E+02  0.51100000000E-03 0. -1.
    9900012    2    1    2    0    0  0.19669906485E+01  0.38362211061E+02  0.20201367505E+02  0.47787267993E+02  0.19999986086E+02 0.  0.
         12    1    1    2    0    0 -0.19669906485E+01 -0.38362211061E+02 -0.20201367505E+02  0.43400732007E+02  0.00000000000E+00 0. -1.
         11    1    3    3    0    0 -0.32536665565E+01  0.65209653205E+01  0.42633068396E+01  0.84430515954E+01  0.51100000000E-03 0. -1.
        -11    1    3    3    0    0  0.36824021737E+01  0.32214849739E+02  0.11129047866E+02  0.34281370103E+02  0.51100000000E-03 0.  1.
        -12    1    3    3    0    0  0.15382550313E+01 -0.37360399908E+00  0.48090127997E+01  0.50628462940E+01  0.00000000000E+00 0.  1.
</event>
<event>
 7    1  0.5417298E-010  0.4778726E+02  0.7816164E-02  0.1312668E+00
        -11   -1    0    0    0    0  0.00000000000E+00  0.00000000000E+00  0.45593999997E+02  0.45594000000E+02  0.51100000000E-03 0. -1.
         11   -1    0    0    0    0 -0.00000000000E+00 -0.00000000000E+00 -0.45593999997E+02  0.45594000000E+02  0.51100000000E-03 0.  1.
    9900012    2    1    2    0    0  0.26842912038E+02 -0.18230298130E+02 -0.28822538621E+02  0.47787257736E+02  0.19999939319E+02 0.  0.
         12    1    1    2    0    0 -0.26842912038E+02  0.18230298130E+02  0.28822538621E+02  0.43400742264E+02  0.00000000000E+00 0. -1.
         11    1    3    3    0    0  0.69370043516E+01 -0.68962586035E+01 -0.39176588171E+01  0.10537004459E+02  0.51100000000E-03 0. -1.
        -11    1    3    3    0    0  0.11869466938E+02 -0.12686161813E+02 -0.23099190792E+02  0.28903210244E+02  0.51100000000E-03 0.  1.
         12    1    3    3    0    0  0.80364407480E+01  0.13521222860E+01 -0.18056890115E+01  0.83470430321E+01  0.00000000000E+00 0. -1.
</event>
<event>
 7    1  0.5417298E-010  0.4778727E+02  0.7816164E-02  0.1312668E+00
        -11   -1    0    0    0    0  0.00000000000E+00  0.00000000000E+00  0.45593999997E+02  0.45594000000E+02  0.51100000000E-03 0.  1.
         11   -1    0    0    0    0 -0.00000000000E+00 -0.00000000000E+00 -0.45593999997E+02  0.45594000000E+02  0.51100000000E-03 0. -1.
    9900012    2    1    2    0    0 -0.15722026236E+02  0.19747879136E+02  0.35305276400E+02  0.47787269810E+02  0.19999994370E+02 0.  0.
         12    1    1    2    0    0  0.15722026236E+02 -0.19747879136E+02 -0.35305276400E+02  0.43400730190E+02  0.00000000000E+00 0. -1.
         11    1    3    3    0    0 -0.10186889272E+02  0.71966116705E+01  0.14617572230E+02  0.19215549712E+02  0.51100000000E-03 0. -1.
        -11    1    3    3    0    0 -0.10845794289E+01  0.34207663159E+01  0.17590151828E+02  0.17952476050E+02  0.51100000000E-03 0.  1.
         12    1    3    3    0    0 -0.44505575350E+01  0.91305011502E+01  0.30975523421E+01  0.10619244047E+02  0.00000000000E+00 0. -1.
</event>
<event>
 7    1  0.5417298E-010  0.4778727E+02  0.7816164E-02  0.1312668E+00
        -11   -1    0    0    0    0  0.00000000000E+00  0.00000000000E+00  0.45593999997E+02  0.45594000000E+02  0.51100000000E-03 0.  1.
         11   -1    0    0    0    0 -0.00000000000E+00 -0.00000000000E+00 -0.45593999997E+02  0.45594000000E+02  0.51100000000E-03 0. -1.
    9900012    2    1    2    0    0  0.20447787453E+02  0.24486052701E+02  0.29426932427E+02  0.47787272579E+02  0.20000006997E+02 0.  0.
         12    1    1    2    0    0 -0.20447787453E+02 -0.24486052701E+02 -0.29426932427E+02  0.43400727421E+02  0.00000000000E+00 0. -1.
         11    1    3    3    0    0  0.92384445280E-01  0.74755829986E+00 -0.10428110708E+01  0.12864033147E+01  0.51100000000E-03 0. -1.
        -11    1    3    3    0    0  0.46427554779E+01  0.10024218925E+02  0.20278392596E+01  0.11231753016E+02  0.51100000000E-03 0.  1.
        -12    1    3    3    0    0  0.15712647529E+02  0.13714275476E+02  0.28441904239E+02  0.35269116248E+02  0.00000000000E+00 0.  1.
</event>
<event>
 7    1  0.5417298E-010  0.4778727E+02  0.7816164E-02  0.1312668E+00
        -11   -1    0    0    0    0  0.00000000000E+00  0.00000000000E+00  0.45593999997E+02  0.45594000000E+02  0.51100000000E-03 0.  1.
         11   -1    0    0    0    0 -0.00000000000E+00 -0.00000000000E+00 -0.45593999997E+02  0.45594000000E+02  0.51100000000E-03 0. -1.
    9900012    2    1    2    0    0  0.27945302961E+01 -0.15409655542E+02  0.40476612708E+02  0.47787273510E+02  0.20000011244E+02 0.  0.
         12    1    1    2    0    0 -0.27945302961E+01  0.15409655542E+02 -0.40476612708E+02  0.43400726490E+02  0.00000000000E+00 0. -1.
         11    1    3    3    0    0 -0.26136160151E+01 -0.58503299646E+01  0.64436116683E+01  0.90872152479E+01  0.51100000000E-03 0. -1.
        -11    1    3    3    0    0  0.59461512080E+00 -0.12403901485E+02  0.19387708144E+02  0.23023760912E+02  0.51100000000E-03 0.  1.
        -12    1    3    3    0    0  0.48135311905E+01  0.28445759078E+01  0.14645292896E+02  0.15676297351E+02  0.00000000000E+00 0.  1.
</event>
<event>
 7    1  0.5417298E-010  0.4778727E+02  0.7816164E-02  0.1312668E+00
        -11   -1    0    0    0    0  0.00000000000E+00  0.00000000000E+00  0.45593999997E+02  0.45594000000E+02  0.51100000000E-03 0. -1.
         11   -1    0    0    0    0 -0.00000000000E+00 -0.00000000000E+00 -0.45593999997E+02  0.45594000000E+02  0.51100000000E-03 0.  1.
    9900012    2    1    2    0    0  0.36424074310E+02  0.21720842607E+02 -0.92257964038E+01  0.47787268299E+02  0.19999987482E+02 0.  0.
         12    1    1    2    0    0 -0.36424074310E+02 -0.21720842607E+02  0.92257964038E+01  0.43400731701E+02  0.00000000000E+00 0. -1.
         11    1    3    3    0    0  0.15102108980E+01  0.19926612301E+01  0.29266037485E+00  0.25173569652E+01  0.51100000000E-03 0. -1.
        -11    1    3    3    0    0  0.24786488660E+01  0.85742205089E+01  0.18893850548E+01  0.91230879466E+01  0.51100000000E-03 0.  1.
         12    1    3    3    0    0  0.32435214546E+02  0.11153960868E+02 -0.11407841833E+02  0.36146823387E+02  0.00000000000E+00 0. -1.
</event>
<event>
 7    1  0.5417298E-010  0.4778727E+02  0.7816164E-02  0.1312668E+00
        -11   -1    0    0    0    0  0.00000000000E+00  0.00000000000E+00  0.45593999997E+02  0.45594000000E+02  0.51100000000E-03 0. -1.
         11   -1    0    0    0    0 -0.00000000000E+00 -0.00000000000E+00 -0.45593999997E+02  0.45594000000E+02  0.51100000000E-03 0.  1.
    9900012    2    1    2    0    0  0.41527866481E+02  0.10039849583E+02 -0.76328827828E+01  0.47787272199E+02  0.20000005264E+02 0.  0.
         12    1    1    2    0    0 -0.41527866481E+02 -0.10039849583E+02  0.76328827828E+01  0.43400727801E+02  0.00000000000E+00 0. -1.
         11    1    3    3    0    0  0.94164243013E+01  0.69114758880E+01 -0.33332501245E+01  0.12146937977E+02  0.51100000000E-03 0. -1.
        -11    1    3    3    0    0  0.14916811335E+02  0.86049463133E+01 -0.35256836704E+01  0.17578020568E+02  0.51100000000E-03 0.  1.
         12    1    3    3    0    0  0.17194630844E+02 -0.54765726181E+01 -0.77394898780E+00  0.18062313654E+02  0.00000000000E+00 0. -1.
</event>
<event>
 7    1  0.5417298E-010  0.4778727E+02  0.7816164E-02  0.1312668E+00
        -11   -1    0    0    0    0  0.00000000000E+00  0.00000000000E+00  0.45593999997E+02  0.45594000000E+02  0.51100000000E-03 0.  1.
         11   -1    0    0    0    0 -0.00000000000E+00 -0.00000000000E+00 -0.45593999997E+02  0.45594000000E+02  0.51100000000E-03 0. -1.
    9900012    2    1    2    0    0  0.40405223578E+02 -0.15229372881E+02 -0.43712247996E+01  0.47787268474E+02  0.19999988282E+02 0.  0.
         12    1    1    2    0    0 -0.40405223578E+02  0.15229372881E+02  0.43712247996E+01  0.43400731526E+02  0.00000000000E+00 0. -1.
         11    1    3    3    0    0  0.21180074933E+02  0.16042069727E+01 -0.18783413288E+00  0.21241570942E+02  0.51100000000E-03 0. -1.
        -11    1    3    3    0    0  0.85905507037E+01 -0.45592419510E+01  0.18765187819E+00  0.97272535718E+01  0.51100000000E-03 0.  1.
        -12    1    3    3    0    0  0.10634597941E+02 -0.12274337903E+02 -0.43710425449E+01  0.16818443960E+02  0.00000000000E+00 0.  1.
</event>
<event>
 7    1  0.5417298E-010  0.4778725E+02  0.7816164E-02  0.1312668E+00
        -11   -1    0    0    0    0  0.00000000000E+00  0.00000000000E+00  0.45593999997E+02  0.45594000000E+02  0.51100000000E-03 0.  1.
         11   -1    0    0    0    0 -0.00000000000E+00 -0.00000000000E+00 -0.45593999997E+02  0.45594000000E+02  0.51100000000E-03 0. -1.
    9900012    2    1    2    0    0 -0.28180484493E+02 -0.32641802803E+02  0.48987744523E+01  0.47787251301E+02  0.19999909982E+02 0.  0.
         12    1    1    2    0    0  0.28180484493E+02  0.32641802803E+02 -0.48987744523E+01  0.43400748699E+02  0.00000000000E+00 0. -1.
         11    1    3    3    0    0 -0.52539099542E+01 -0.87278294328E+01 -0.66185503773E+00  0.10208654601E+02  0.51100000000E-03 0. -1.
        -11    1    3    3    0    0  0.25423445004E+01 -0.40588503097E+01  0.15648120300E+01  0.50384936584E+01  0.51100000000E-03 0.  1.
        -12    1    3    3    0    0 -0.25468919039E+02 -0.19855123060E+02  0.39958174600E+01  0.32540103041E+02  0.00000000000E+00 0.  1.
</event>
<event>
 7    1  0.5417298E-010  0.4778727E+02  0.7816164E-02  0.1312668E+00
        -11   -1    0    0    0    0  0.00000000000E+00  0.00000000000E+00  0.45593999997E+02  0.45594000000E+02  0.51100000000E-03 0.  1.
         11   -1    0    0    0    0 -0.00000000000E+00 -0.00000000000E+00 -0.45593999997E+02  0.45594000000E+02  0.51100000000E-03 0. -1.
    9900012    2    1    2    0    0 -0.17390403894E+02  0.92304323858E+01  0.38678114382E+02  0.47787267728E+02  0.19999984879E+02 0.  0.
         12    1    1    2    0    0  0.17390403894E+02 -0.92304323858E+01 -0.38678114382E+02  0.43400732272E+02  0.00000000000E+00 0. -1.
         11    1    3    3    0    0 -0.67484194446E+01  0.52902855046E+01  0.80974366490E+01  0.11793929212E+02  0.51100000000E-03 0. -1.
        -11    1    3    3    0    0 -0.88166009914E+01  0.95796775545E+01  0.19967383044E+02  0.23836926417E+02  0.51100000000E-03 0.  1.
        -12    1    3    3    0    0 -0.18253834581E+01 -0.56395306733E+01  0.10613294688E+02  0.12156412099E+02  0.00000000000E+00 0.  1.
</event>
<event>
 7    1  0.5417298E-010  0.4778727E+02  0.7816164E-02  0.1312668E+00
        -11   -1    0    0    0    0  0.00000000000E+00  0.00000000000E+00  0.45593999997E+02  0.45594000000E+02  0.51100000000E-03 0. -1.
         11   -1    0    0    0    0 -0.00000000000E+00 -0.00000000000E+00 -0.45593999997E+02  0.45594000000E+02  0.51100000000E-03 0.  1.
    9900012    2    1    2    0    0 -0.37091886061E+02 -0.21502892083E+02  0.67409931074E+01  0.47787269965E+02  0.19999995078E+02 0.  0.
         12    1    1    2    0    0  0.37091886061E+02  0.21502892083E+02 -0.67409931074E+01  0.43400730035E+02  0.00000000000E+00 0. -1.
         11    1    3    3    0    0 -0.18311152773E+02 -0.11116509411E+02  0.94369532191E+01  0.23407929931E+02  0.51100000000E-03 0. -1.
        -11    1    3    3    0    0 -0.15506356673E+02 -0.90824306302E+01  0.24556505805E+01  0.18137471253E+02  0.51100000000E-03 0.  1.
         12    1    3    3    0    0 -0.32743766152E+01 -0.13039520419E+01 -0.51516106922E+01  0.62418687803E+01  0.00000000000E+00 0. -1.
</event>
<event>
 7    1  0.5417298E-010  0.4778727E+02  0.7816164E-02  0.1312668E+00
        -11   -1    0    0    0    0  0.00000000000E+00  0.00000000000E+00  0.45593999997E+02  0.45594000000E+02  0.51100000000E-03 0.  1.
         11   -1    0    0    0    0 -0.00000000000E+00 -0.00000000000E+00 -0.45593999997E+02  0.45594000000E+02  0.51100000000E-03 0. -1.
    9900012    2    1    2    0    0 -0.32717699988E+02 -0.57810463178E+01  0.27924094545E+02  0.47787269071E+02  0.19999991002E+02 0.  0.
         12    1    1    2    0    0  0.32717699988E+02  0.57810463178E+01 -0.27924094545E+02  0.43400730929E+02  0.00000000000E+00 0. -1.
         11    1    3    3    0    0 -0.12371962978E+01 -0.22377543738E+01 -0.17235628673E+01  0.30836453323E+01  0.51100000000E-03 0. -1.
        -11    1    3    3    0    0 -0.10889923080E+02 -0.36504896759E+01  0.48394401875E+01  0.12463413704E+02  0.51100000000E-03 0.  1.
         12    1    3    3    0    0 -0.20590580610E+02  0.10719773190E+00  0.24808217225E+02  0.32240210035E+02  0.00000000000E+00 0. -1.
</event>
<event>
 7    1  0.5417298E-010  0.4778727E+02  0.7816164E-02  0.1312668E+00
        -11   -1    0    0    0    0  0.00000000000E+00  0.00000000000E+00  0.45593999997E+02  0.45594000000E+02  0.51100000000E-03 0.  1.
         11   -1    0    0    0    0 -0.00000000000E+00 -0.00000000000E+00 -0.45593999997E+02  0.45594000000E+02  0.51100000000E-03 0. -1.
    9900012    2    1    2    0    0  0.30303165684E+02 -0.15153423969E+02  0.27124072752E+02  0.47787269233E+02  0.19999991739E+02 0.  0.
         12    1    1    2    0    0 -0.30303165684E+02  0.15153423969E+02 -0.27124072752E+02  0.43400730767E+02  0.00000000000E+00 0. -1.
         11    1    3    3    0    0  0.70665111860E+01 -0.31008541661E+01  0.29845866271E+01  0.82739733198E+01  0.51100000000E-03 0. -1.
        -11    1    3    3    0    0  0.55195030023E+01 -0.22996374551E+01  0.17073537777E+02  0.18090299564E+02  0.51100000000E-03 0.  1.
        -12    1    3    3    0    0  0.17717151496E+02 -0.97529323476E+01  0.70659483478E+01  0.21422996349E+02  0.00000000000E+00 0.  1.
</event>
<event>
 7    1  0.5417298E-010  0.4778726E+02  0.7816164E-02  0.1312668E+00
        -11   -1    0    0    0    0  0.00000000000E+00  0.00000000000E+00  0.45593999997E+02  0.45594000000E+02  0.51100000000E-03 0.  1.
         11   -1    0    0    0    0 -0.00000000000E+00 -0.00000000000E+00 -0.45593999997E+02  0.45594000000E+02  0.51100000000E-03 0. -1.
    9900012    2    1    2    0    0  0.67844867211E+01 -0.28269830566E+02  0.32224400596E+02  0.47787256065E+02  0.19999931703E+02 0.  0.
         12    1    1    2    0    0 -0.67844867211E+01  0.28269830566E+02 -0.32224400596E+02  0.43400743935E+02  0.00000000000E+00 0. -1.
         11    1    3    3    0    0 -0.28378317637E+01 -0.10914481018E+02  0.18608136129E+02  0.21758720447E+02  0.51100000000E-03 0. -1.
        -11    1    3    3    0    0 -0.13802367037E+01 -0.45363729899E+00 -0.35358073588E+00  0.14952791563E+01  0.51100000000E-03 0.  1.
        -12    1    3    3    0    0  0.11002555189E+02 -0.16901712250E+02  0.13969845203E+02  0.24533256462E+02  0.00000000000E+00 0.  1.
</event>
<event>
 7    1  0.5417298E-010  0.4778726E+02  0.7816164E-02  0.1312668E+00
        -11   -1    0    0    0    0  0.00000000000E+00  0.00000000000E+00  0.45593999997E+02  0.45594000000E+02  0.51100000000E-03 0. -1.
         11   -1    0    0    0    0 -0.00000000000E+00 -0.00000000000E+00 -0.45593999997E+02  0.45594000000E+02  0.51100000000E-03 0.  1.
    9900012    2    1    2    0    0  0.41448698251E+01 -0.13662995920E+02 -0.40984954788E+02  0.47787263573E+02  0.19999965937E+02 0.  0.
         12    1    1    2    0    0 -0.41448698251E+01  0.13662995920E+02  0.40984954788E+02  0.43400736427E+02  0.00000000000E+00 0. -1.
         11    1    3    3    0    0 -0.49347635357E+01 -0.67665293118E+00 -0.97810436633E+01  0.10976272853E+02  0.51100000000E-03 0. -1.
        -11    1    3    3    0    0 -0.82208518059E+00 -0.73386748471E+01 -0.17444223422E+02  0.18942885303E+02  0.51100000000E-03 0.  1.
        -12    1    3    3    0    0  0.99017185413E+01 -0.56476681422E+01 -0.13759687703E+02  0.17868105417E+02  0.00000000000E+00 0.  1.
</event>
<event>
 7    1  0.5417298E-010  0.4778727E+02  0.7816164E-02  0.1312668E+00
        -11   -1    0    0    0    0  0.00000000000E+00  0.00000000000E+00  0.45593999997E+02  0.45594000000E+02  0.51100000000E-03 0.  1.
         11   -1    0    0    0    0 -0.00000000000E+00 -0.00000000000E+00 -0.45593999997E+02  0.45594000000E+02  0.51100000000E-03 0. -1.
    9900012    2    1    2    0    0 -0.42689570513E+02  0.51237628333E+01  0.59136174349E+01  0.47787271351E+02  0.20000001396E+02 0.  0.
         12    1    1    2    0    0  0.42689570513E+02 -0.51237628333E+01 -0.59136174349E+01  0.43400728649E+02  0.00000000000E+00 0. -1.
         11    1    3    3    0    0 -0.51914703525E+01 -0.33490134992E+01  0.17758610091E+01  0.64281364658E+01  0.51100000000E-03 0. -1.
        -11    1    3    3    0    0 -0.19883181396E+02 -0.10056277171E+01  0.71022787219E+01  0.21137515294E+02  0.51100000000E-03 0.  1.
         12    1    3    3    0    0 -0.17614918765E+02  0.94784040496E+01 -0.29645222962E+01  0.20221619590E+02  0.00000000000E+00 0. -1.
</event>
<event>
 7    1  0.5417298E-010  0.4778727E+02  0.7816164E-02  0.1312668E+00
        -11   -1    0    0    0    0  0.00000000000E+00  0.00000000000E+00  0.45593999997E+02  0.45594000000E+02  0.51100000000E-03 0.  1.
         11   -1    0    0    0    0 -0.00000000000E+00 -0.00000000000E+00 -0.45593999997E+02  0.45594000000E+02  0.51100000000E-03 0. -1.
    9900012    2    1    2    0    0 -0.12831391898E+02 -0.20469983769E+02  0.36054942959E+02  0.47787265383E+02  0.19999974186E+02 0.  0.
         12    1    1    2    0    0  0.12831391898E+02  0.20469983769E+02 -0.36054942959E+02  0.43400734617E+02  0.00000000000E+00 0. -1.
         11    1    3    3    0    0  0.12210232779E+01  0.47770562141E+00  0.28511564660E+01  0.31381832261E+01  0.51100000000E-03 0. -1.
        -11    1    3    3    0    0 -0.14179998745E+01 -0.15011859312E+02  0.22376887744E+02  0.26983175295E+02  0.51100000000E-03 0.  1.
         12    1    3    3    0    0 -0.12634415301E+02 -0.59358300784E+01  0.10826898749E+02  0.17665906861E+02  0.00000000000E+00 0. -1.
</event>
<event>
 7    1  0.5417298E-010  0.4778727E+02  0.7816164E-02  0.1312668E+00
        -11   -1    0    0    0    0  0.00000000000E+00  0.00000000000E+00  0.45593999997E+02  0.45594000000E+02  0.51100000000E-03 0.  1.
         11   -1    0    0    0    0 -0.00000000000E+00 -0.00000000000E+00 -0.45593999997E+02  0.45594000000E+02  0.51100000000E-03 0. -1.
    9900012    2    1    2    0    0  0.31359063831E+02 -0.28129635323E+02  0.10438199758E+02  0.47787270951E+02  0.19999999575E+02 0.  0.
         12    1    1    2    0    0 -0.31359063831E+02  0.28129635323E+02 -0.10438199758E+02  0.43400729049E+02  0.00000000000E+00 0. -1.
         11    1    3    3    0    0  0.47399441312E+01  0.10126770312E+01 -0.10977454895E+01  0.49696710714E+01  0.51100000000E-03 0. -1.
        -11    1    3    3    0    0  0.31238684001E+00 -0.59923969994E+01  0.26144225342E+00  0.60062267397E+01  0.51100000000E-03 0.  1.
        -12    1    3    3    0    0  0.26306732860E+02 -0.23149915355E+02  0.11274502994E+02  0.36811373140E+02  0.00000000000E+00 0.  1.
</event>
<event>
 7    1  0.5417298E-010  0.4778728E+02  0.7816164E-02  0.1312668E+00
        -11   -1    0    0    0    0  0.00000000000E+00  0.00000000000E+00  0.45593999997E+02  0.45594000000E+02  0.51100000000E-03 0.  1.
         11   -1    0    0    0    0 -0.00000000000E+00 -0.00000000000E+00 -0.45593999997E+02  0.45594000000E+02  0.51100000000E-03 0. -1.
    9900012    2    1    2    0    0 -0.13620335299E+02  0.41162788525E+02 -0.19323167918E+01  0.47787279488E+02  0.20000038498E+02 0.  0.
         12    1    1    2    0    0  0.13620335299E+02 -0.41162788525E+02  0.19323167918E+01  0.43400720512E+02  0.00000000000E+00 0. -1.
         11    1    3    3    0    0 -0.14786041238E+01  0.43229252453E+01 -0.32538340726E+00  0.45803741609E+01  0.51100000000E-03 0. -1.
        -11    1    3    3    0    0 -0.13398390848E+02  0.27025557092E+02  0.59637189311E+01  0.30748391132E+02  0.51100000000E-03 0.  1.
         12    1    3    3    0    0  0.12566596731E+01  0.98143061869E+01 -0.75706523157E+01  0.12458514195E+02  0.00000000000E+00 0. -1.
</event>
<event>
 7    1  0.5417298E-010  0.4778727E+02  0.7816164E-02  0.1312668E+00
        -11   -1    0    0    0    0  0.00000000000E+00  0.00000000000E+00  0.45593999997E+02  0.45594000000E+02  0.51100000000E-03 0.  1.
         11   -1    0    0    0    0 -0.00000000000E+00 -0.00000000000E+00 -0.45593999997E+02  0.45594000000E+02  0.51100000000E-03 0. -1.
    9900012    2    1    2    0    0 -0.37663702269E+02  0.11019619231E+02  0.18537438711E+02  0.47787272926E+02  0.20000008578E+02 0.  0.
         12    1    1    2    0    0  0.37663702269E+02 -0.11019619231E+02 -0.18537438711E+02  0.43400727074E+02  0.00000000000E+00 0. -1.
         11    1    3    3    0    0 -0.78729327972E+01 -0.39832560356E+00  0.74912677245E+00  0.79185178726E+01  0.51100000000E-03 0.  1.
        -11    1    3    3    0    0 -0.15174880361E+02  0.19966412150E+01  0.44945879764E+00  0.15312269055E+02  0.51100000000E-03 0. -1.
         12    1    3    3    0    0 -0.14615889110E+02  0.94213036195E+01  0.17338853141E+02  0.24556485999E+02  0.00000000000E+00 0. -1.
</event>
<event>
 7    1  0.5417298E-010  0.4778727E+02  0.7816164E-02  0.1312668E+00
        -11   -1    0    0    0    0  0.00000000000E+00  0.00000000000E+00  0.45593999997E+02  0.45594000000E+02  0.51100000000E-03 0.  1.
         11   -1    0    0    0    0 -0.00000000000E+00 -0.00000000000E+00 -0.45593999997E+02  0.45594000000E+02  0.51100000000E-03 0. -1.
    9900012    2    1    2    0    0  0.26615347408E+02  0.14344642932E+02  0.31136439674E+02  0.47787269890E+02  0.19999994735E+02 0.  0.
         12    1    1    2    0    0 -0.26615347408E+02 -0.14344642932E+02 -0.31136439674E+02  0.43400730110E+02  0.00000000000E+00 0. -1.
         11    1    3    3    0    0  0.18452043624E+01 -0.11075682526E+01  0.31116464281E+01  0.37833623046E+01  0.51100000000E-03 0.  1.
        -11    1    3    3    0    0  0.29228496587E+01  0.69354444347E+01  0.82861957316E-01  0.75266397548E+01  0.51100000000E-03 0. -1.
         12    1    3    3    0    0  0.21847293387E+02  0.85167667501E+01  0.27941931289E+02  0.36477267830E+02  0.00000000000E+00 0. -1.
</event>
<event>
 7    1  0.5417298E-010  0.4778727E+02  0.7816164E-02  0.1312668E+00
        -11   -1    0    0    0    0  0.00000000000E+00  0.00000000000E+00  0.45593999997E+02  0.45594000000E+02  0.51100000000E-03 0.  1.
         11   -1    0    0    0    0 -0.00000000000E+00 -0.00000000000E+00 -0.45593999997E+02  0.45594000000E+02  0.51100000000E-03 0. -1.
    9900012    2    1    2    0    0 -0.10563432541E+02  0.11007017789E+02  0.40631058476E+02  0.47787268894E+02  0.19999990196E+02 0.  0.
         12    1    1    2    0    0  0.10563432541E+02 -0.11007017789E+02 -0.40631058476E+02  0.43400731106E+02  0.00000000000E+00 0. -1.
         11    1    3    3    0    0  0.34820041162E+01 -0.15766455763E-01  0.28447995977E+01  0.44963859108E+01  0.51100000000E-03 0. -1.
        -11    1    3    3    0    0 -0.32441047552E+01  0.29377022360E+01  0.15810182110E+01  0.46533782282E+01  0.51100000000E-03 0.  1.
        -12    1    3    3    0    0 -0.10801331902E+02  0.80850820091E+01  0.36205240667E+02  0.38637504755E+02  0.00000000000E+00 0.  1.
</event>
<event>
 7    1  0.5417298E-010  0.4778727E+02  0.7816164E-02  0.1312668E+00
        -11   -1    0    0    0    0  0.00000000000E+00  0.00000000000E+00  0.45593999997E+02  0.45594000000E+02  0.51100000000E-03 0.  1.
         11   -1    0    0    0    0 -0.00000000000E+00 -0.00000000000E+00 -0.45593999997E+02  0.45594000000E+02  0.51100000000E-03 0. -1.
    9900012    2    1    2    0    0  0.16582429601E+02  0.35219572043E+02  0.19189278107E+02  0.47787267049E+02  0.19999981784E+02 0.  0.
         12    1    1    2    0    0 -0.16582429601E+02 -0.35219572043E+02 -0.19189278107E+02  0.43400732951E+02  0.00000000000E+00 0. -1.
         11    1    3    3    0    0  0.56408257077E+01  0.77286706976E+00  0.36797757026E+01  0.67791583294E+01  0.51100000000E-03 0. -1.
        -11    1    3    3    0    0  0.62634278660E+01  0.12426354674E+02  0.44864585285E+00  0.13922862582E+02  0.51100000000E-03 0.  1.
         12    1    3    3    0    0  0.46781760271E+01  0.22020350299E+02  0.15060856552E+02  0.27085246137E+02  0.00000000000E+00 0. -1.
</event>
<event>
 7    1  0.5417298E-010  0.4778727E+02  0.7816164E-02  0.1312668E+00
        -11   -1    0    0    0    0  0.00000000000E+00  0.00000000000E+00  0.45593999997E+02  0.45594000000E+02  0.51100000000E-03 0.  1.
         11   -1    0    0    0    0 -0.00000000000E+00 -0.00000000000E+00 -0.45593999997E+02  0.45594000000E+02  0.51100000000E-03 0. -1.
    9900012    2    1    2    0    0 -0.11120556913E+02 -0.23958654190E+02  0.34437471739E+02  0.47787270094E+02  0.19999995665E+02 0.  0.
         12    1    1    2    0    0  0.11120556913E+02  0.23958654190E+02 -0.34437471739E+02  0.43400729906E+02  0.00000000000E+00 0. -1.
         11    1    3    3    0    0 -0.24987955250E+00 -0.20885643646E+01  0.43849666749E+01  0.48633809122E+01  0.51100000000E-03 0.  1.
        -11    1    3    3    0    0 -0.12119412317E+01 -0.20773995053E+02  0.22196421628E+02  0.30425463108E+02  0.51100000000E-03 0. -1.
         12    1    3    3    0    0 -0.96587361285E+01 -0.10960947723E+01  0.78560834360E+01  0.12498426073E+02  0.00000000000E+00 0. -1.
</event>
<event>
 7    1  0.5417298E-010  0.4778731E+02  0.7816164E-02  0.1312668E+00
        -11   -1    0    0    0    0  0.00000000000E+00  0.00000000000E+00  0.45593999997E+02  0.45594000000E+02  0.51100000000E-03 0.  1.
         11   -1    0    0    0    0 -0.00000000000E+00 -0.00000000000E+00 -0.45593999997E+02  0.45594000000E+02  0.51100000000E-03 0. -1.
    9900012    2    1    2    0    0  0.12548329528E+02 -0.21506977818E+02  0.35547279649E+02  0.47787311535E+02  0.20000184611E+02 0.  0.
         12    1    1    2    0    0 -0.12548329528E+02  0.21506977818E+02 -0.35547279649E+02  0.43400688465E+02  0.00000000000E+00 0. -1.
         11    1    3    3    0    0 -0.45825952222E+00 -0.42887435089E+00 -0.76549902504E+00  0.98991111572E+00  0.51100000000E-03 0. -1.
        -11    1    3    3    0    0  0.38853523376E+00 -0.37453949165E+01  0.18630133335E+02  0.19006862209E+02  0.51100000000E-03 0.  1.
        -12    1    3    3    0    0  0.12618053816E+02 -0.17332708550E+02  0.17682645340E+02  0.27790538210E+02  0.00000000000E+00 0.  1.
</event>
<event>
 7    1  0.5417298E-010  0.4778727E+02  0.7816164E-02  0.1312668E+00
        -11   -1    0    0    0    0  0.00000000000E+00  0.00000000000E+00  0.45593999997E+02  0.45594000000E+02  0.51100000000E-03 0.  1.
         11   -1    0    0    0    0 -0.00000000000E+00 -0.00000000000E+00 -0.45593999997E+02  0.45594000000E+02  0.51100000000E-03 0. -1.
    9900012    2    1    2    0    0 -0.31807818137E+01 -0.41338702671E+01  0.43086158019E+02  0.47787271098E+02  0.20000000245E+02 0.  0.
         12    1    1    2    0    0  0.31807818137E+01  0.41338702671E+01 -0.43086158019E+02  0.43400728902E+02  0.00000000000E+00 0. -1.
         11    1    3    3    0    0  0.31587362511E+01  0.20966173665E+01  0.17194852999E+02  0.17607850209E+02  0.51100000000E-03 0.  1.
        -11    1    3    3    0    0 -0.70067157314E+00 -0.57860832944E+01  0.23189907730E+02  0.23911117108E+02  0.51100000000E-03 0. -1.
         12    1    3    3    0    0 -0.56388464916E+01 -0.44440433920E+00  0.27013972905E+01  0.62683037812E+01  0.00000000000E+00 0. -1.
</event>
<event>
 7    1  0.5417298E-010  0.4778727E+02  0.7816164E-02  0.1312668E+00
        -11   -1    0    0    0    0  0.00000000000E+00  0.00000000000E+00  0.45593999997E+02  0.45594000000E+02  0.51100000000E-03 0.  1.
         11   -1    0    0    0    0 -0.00000000000E+00 -0.00000000000E+00 -0.45593999997E+02  0.45594000000E+02  0.51100000000E-03 0. -1.
    9900012    2    1    2    0    0 -0.43365588095E+02  0.59826837221E+00 -0.16405105042E+01  0.47787269239E+02  0.19999991770E+02 0.  0.
         12    1    1    2    0    0  0.43365588095E+02 -0.59826837221E+00  0.16405105042E+01  0.43400730761E+02  0.00000000000E+00 0. -1.
         11    1    3    3    0    0 -0.65721824037E+01 -0.78462232383E-01 -0.47380137943E+01  0.81023769873E+01  0.51100000000E-03 0. -1.
        -11    1    3    3    0    0 -0.26570676002E+02  0.14185310705E+01 -0.44211305390E+01  0.26973309940E+02  0.51100000000E-03 0.  1.
        -12    1    3    3    0    0 -0.10222729689E+02 -0.74180046592E+00  0.75186338291E+01  0.12711582312E+02  0.00000000000E+00 0.  1.
</event>
<event>
 7    1  0.5417298E-010  0.4778726E+02  0.7816164E-02  0.1312668E+00
        -11   -1    0    0    0    0  0.00000000000E+00  0.00000000000E+00  0.45593999997E+02  0.45594000000E+02  0.51100000000E-03 0. -1.
         11   -1    0    0    0    0 -0.00000000000E+00 -0.00000000000E+00 -0.45593999997E+02  0.45594000000E+02  0.51100000000E-03 0.  1.
    9900012    2    1    2    0    0  0.21939773891E+02  0.26689038046E+02 -0.26267195880E+02  0.47787262568E+02  0.19999961353E+02 0.  0.
         12    1    1    2    0    0 -0.21939773891E+02 -0.26689038046E+02  0.26267195880E+02  0.43400737432E+02  0.00000000000E+00 0. -1.
         11    1    3    3    0    0  0.33089571644E+01  0.49904058036E+01 -0.37836367657E+00  0.59997089040E+01  0.51100000000E-03 0. -1.
        -11    1    3    3    0    0  0.20781964682E+02  0.20368450829E+02 -0.26302438549E+02  0.39224764105E+02  0.51100000000E-03 0.  1.
        -12    1    3    3    0    0 -0.21511479548E+01  0.13301814131E+01  0.41360634540E+00  0.25627895591E+01  0.00000000000E+00 0.  1.
</event>
<event>
 7    1  0.5417298E-010  0.4778727E+02  0.7816164E-02  0.1312668E+00
        -11   -1    0    0    0    0  0.00000000000E+00  0.00000000000E+00  0.45593999997E+02  0.45594000000E+02  0.51100000000E-03 0. -1.
         11   -1    0    0    0    0 -0.00000000000E+00 -0.00000000000E+00 -0.45593999997E+02  0.45594000000E+02  0.51100000000E-03 0.  1.
    9900012    2    1    2    0    0  0.32431304401E+02  0.11200650674E+02 -0.26577796436E+02  0.47787270235E+02  0.19999996311E+02 0.  0.
         12    1    1    2    0    0 -0.32431304401E+02 -0.11200650674E+02  0.26577796436E+02  0.43400729765E+02  0.00000000000E+00 0. -1.
         11    1    3    3    0    0  0.54514392688E+01  0.56403677999E+01 -0.92789833117E+01  0.12150369154E+02  0.51100000000E-03 0. -1.
        -11    1    3    3    0    0  0.54735828535E+01  0.69741160577E+01 -0.16886972552E+01  0.90249710649E+01  0.51100000000E-03 0.  1.
        -12    1    3    3    0    0  0.21506282279E+02 -0.14138331838E+01 -0.15610115869E+02  0.26611930016E+02  0.00000000000E+00 0.  1.
</event>
<event>
 7    1  0.5417298E-010  0.4778727E+02  0.7816164E-02  0.1312668E+00
        -11   -1    0    0    0    0  0.00000000000E+00  0.00000000000E+00  0.45593999997E+02  0.45594000000E+02  0.51100000000E-03 0.  1.
         11   -1    0    0    0    0 -0.00000000000E+00 -0.00000000000E+00 -0.45593999997E+02  0.45594000000E+02  0.51100000000E-03 0. -1.
    9900012    2    1    2    0    0  0.26249863318E+02  0.34520550477E+02 -0.17028137662E+01  0.47787270696E+02  0.19999998409E+02 0.  0.
         12    1    1    2    0    0 -0.26249863318E+02 -0.34520550477E+02  0.17028137662E+01  0.43400729304E+02  0.00000000000E+00 0. -1.
         11    1    3    3    0    0  0.10645911933E+02  0.56412679112E+01  0.42494359495E+01  0.12775642868E+02  0.51100000000E-03 0. -1.
        -11    1    3    3    0    0 -0.11487134955E+01  0.69515461721E+00 -0.13483117743E+01  0.19028209423E+01  0.51100000000E-03 0.  1.
        -12    1    3    3    0    0  0.16752664880E+02  0.28184127948E+02 -0.46039379414E+01  0.33108806885E+02  0.00000000000E+00 0.  1.
</event>
<event>
 7    1  0.5417298E-010  0.4778727E+02  0.7816164E-02  0.1312668E+00
        -11   -1    0    0    0    0  0.00000000000E+00  0.00000000000E+00  0.45593999997E+02  0.45594000000E+02  0.51100000000E-03 0. -1.
         11   -1    0    0    0    0 -0.00000000000E+00 -0.00000000000E+00 -0.45593999997E+02  0.45594000000E+02  0.51100000000E-03 0.  1.
    9900012    2    1    2    0    0 -0.30590851144E+02 -0.30739596632E+02  0.17031689083E+01  0.47787265454E+02  0.19999974510E+02 0.  0.
         12    1    1    2    0    0  0.30590851144E+02  0.30739596632E+02 -0.17031689083E+01  0.43400734546E+02  0.00000000000E+00 0. -1.
         11    1    3    3    0    0 -0.10273416862E+02 -0.14025779279E+02  0.15458936912E+01  0.17454379564E+02  0.51100000000E-03 0.  1.
        -11    1    3    3    0    0 -0.20684000638E+02 -0.97285396498E+01 -0.21713960358E+01  0.22960560253E+02  0.51100000000E-03 0. -1.
         12    1    3    3    0    0  0.36656635659E+00 -0.69852777033E+01  0.23286712529E+01  0.73723256364E+01  0.00000000000E+00 0. -1.
</event>
<event>
 7    1  0.5417298E-010  0.4778727E+02  0.7816164E-02  0.1312668E+00
        -11   -1    0    0    0    0  0.00000000000E+00  0.00000000000E+00  0.45593999997E+02  0.45594000000E+02  0.51100000000E-03 0.  1.
         11   -1    0    0    0    0 -0.00000000000E+00 -0.00000000000E+00 -0.45593999997E+02  0.45594000000E+02  0.51100000000E-03 0. -1.
    9900012    2    1    2    0    0  0.58378759847E+01 -0.22821722525E+02  0.36451500658E+02  0.47787265960E+02  0.19999976816E+02 0.  0.
         12    1    1    2    0    0 -0.58378759847E+01  0.22821722525E+02 -0.36451500658E+02  0.43400734040E+02  0.00000000000E+00 0. -1.
         11    1    3    3    0    0 -0.41149307196E+01 -0.18920636825E+02  0.19148559989E+02  0.27232159345E+02  0.51100000000E-03 0. -1.
        -11    1    3    3    0    0  0.12727348970E+01  0.27439689275E+00  0.10958431633E+01  0.17017697472E+01  0.51100000000E-03 0.  1.
         12    1    3    3    0    0  0.86800718073E+01 -0.41754825932E+01  0.16207097506E+02  0.18853336867E+02  0.00000000000E+00 0. -1.
</event>
<event>
 7    1  0.5417298E-010  0.4778727E+02  0.7816164E-02  0.1312668E+00
        -11   -1    0    0    0    0  0.00000000000E+00  0.00000000000E+00  0.45593999997E+02  0.45594000000E+02  0.51100000000E-03 0.  1.
         11   -1    0    0    0    0 -0.00000000000E+00 -0.00000000000E+00 -0.45593999997E+02  0.45594000000E+02  0.51100000000E-03 0. -1.
    9900012    2    1    2    0    0  0.23625676165E+02  0.28739192516E+02  0.22349708089E+02  0.47787271753E+02  0.20000003229E+02 0.  0.
         12    1    1    2    0    0 -0.23625676165E+02 -0.28739192516E+02 -0.22349708089E+02  0.43400728247E+02  0.00000000000E+00 0. -1.
         11    1    3    3    0    0  0.85547085975E+01  0.11126205458E+02  0.98682058280E+01  0.17156834604E+02  0.51100000000E-03 0.  1.
        -11    1    3    3    0    0  0.89679425205E+01  0.17739075184E+02  0.41561492452E+01  0.20306953446E+02  0.51100000000E-03 0. -1.
         12    1    3    3    0    0  0.61030250469E+01 -0.12608812620E+00  0.83253530156E+01  0.10323483703E+02  0.00000000000E+00 0. -1.
</event>
<event>
 7    1  0.5417298E-010  0.4778725E+02  0.7816164E-02  0.1312668E+00
        -11   -1    0    0    0    0  0.00000000000E+00  0.00000000000E+00  0.45593999997E+02  0.45594000000E+02  0.51100000000E-03 0.  1.
         11   -1    0    0    0    0 -0.00000000000E+00 -0.00000000000E+00 -0.45593999997E+02  0.45594000000E+02  0.51100000000E-03 0. -1.
    9900012    2    1    2    0    0 -0.85379548835E+01 -0.40951536116E+01  0.42355145971E+02  0.47787247162E+02  0.19999891111E+02 0.  0.
         12    1    1    2    0    0  0.85379548835E+01  0.40951536116E+01 -0.42355145971E+02  0.43400752838E+02  0.00000000000E+00 0. -1.
         11    1    3    3    0    0  0.21901791685E+01  0.66456006466E-01  0.10102708243E+01  0.24128714409E+01  0.51100000000E-03 0. -1.
        -11    1    3    3    0    0 -0.17237565731E+00 -0.75838682568E+01  0.17545934360E+02  0.19115558687E+02  0.51100000000E-03 0.  1.
        -12    1    3    3    0    0 -0.10555758395E+02  0.34222586386E+01  0.23798940786E+02  0.26258817034E+02  0.00000000000E+00 0.  1.
</event>
<event>
 7    1  0.5417298E-010  0.4778727E+02  0.7816164E-02  0.1312668E+00
        -11   -1    0    0    0    0  0.00000000000E+00  0.00000000000E+00  0.45593999997E+02  0.45594000000E+02  0.51100000000E-03 0.  1.
         11   -1    0    0    0    0 -0.00000000000E+00 -0.00000000000E+00 -0.45593999997E+02  0.45594000000E+02  0.51100000000E-03 0. -1.
    9900012    2    1    2    0    0 -0.38376659391E+02  0.20268477806E+02  0.21005240292E+00  0.47787270737E+02  0.19999998597E+02 0.  0.
         12    1    1    2    0    0  0.38376659391E+02 -0.20268477806E+02 -0.21005240292E+00  0.43400729263E+02  0.00000000000E+00 0. -1.
         11    1    3    3    0    0 -0.92230251929E+00 -0.17860268455E+01 -0.10271552083E+00  0.20127306251E+01  0.51100000000E-03 0. -1.
        -11    1    3    3    0    0 -0.81744502330E+01  0.12601126964E+01  0.48313873472E+01  0.95787172721E+01  0.51100000000E-03 0.  1.
        -12    1    3    3    0    0 -0.29279906638E+02  0.20794391955E+02 -0.45186194234E+01  0.36195822840E+02  0.00000000000E+00 0.  1.
</event>
<event>
 7    1  0.5417298E-010  0.4778727E+02  0.7816164E-02  0.1312668E+00
        -11   -1    0    0    0    0  0.00000000000E+00  0.00000000000E+00  0.45593999997E+02  0.45594000000E+02  0.51100000000E-03 0.  1.
         11   -1    0    0    0    0 -0.00000000000E+00 -0.00000000000E+00 -0.45593999997E+02  0.45594000000E+02  0.51100000000E-03 0. -1.
    9900012    2    1    2    0    0 -0.40766900266E+02 -0.12312929738E+02  0.83710933997E+01  0.47787267279E+02  0.19999982832E+02 0.  0.
         12    1    1    2    0    0  0.40766900266E+02  0.12312929738E+02 -0.83710933997E+01  0.43400732721E+02  0.00000000000E+00 0. -1.
         11    1    3    3    0    0  0.13712010788E+00 -0.17318725340E+01  0.36399739098E+01  0.40333106405E+01  0.51100000000E-03 0. -1.
        -11    1    3    3    0    0 -0.84807736824E+01 -0.67426866629E+01  0.71299327919E+00  0.10857978880E+02  0.51100000000E-03 0.  1.
        -12    1    3    3    0    0 -0.32423246691E+02 -0.38383705410E+01  0.40181262107E+01  0.32895977758E+02  0.00000000000E+00 0.  1.
</event>
<event>
 7    1  0.5417298E-010  0.4778727E+02  0.7816164E-02  0.1312668E+00
        -11   -1    0    0    0    0  0.00000000000E+00  0.00000000000E+00  0.45593999997E+02  0.45594000000E+02  0.51100000000E-03 0. -1.
         11   -1    0    0    0    0 -0.00000000000E+00 -0.00000000000E+00 -0.45593999997E+02  0.45594000000E+02  0.51100000000E-03 0.  1.
    9900012    2    1    2    0    0  0.26354555741E+02 -0.29095837455E+02  0.18506564721E+02  0.47787270706E+02  0.19999998457E+02 0.  0.
         12    1    1    2    0    0 -0.26354555741E+02  0.29095837455E+02 -0.18506564721E+02  0.43400729294E+02  0.00000000000E+00 0. -1.
         11    1    3    3    0    0  0.64482392411E+01 -0.14590541414E+02  0.14120391066E+02  0.21303735170E+02  0.51100000000E-03 0. -1.
        -11    1    3    3    0    0  0.67077544740E+01 -0.67636021358E+01  0.57412526238E+01  0.11122152035E+02  0.51100000000E-03 0.  1.
        -12    1    3    3    0    0  0.13198562026E+02 -0.77416939051E+01 -0.13550789688E+01  0.15361383501E+02  0.00000000000E+00 0.  1.
</event>
<event>
 7    1  0.5417298E-010  0.4778727E+02  0.7816164E-02  0.1312668E+00
        -11   -1    0    0    0    0  0.00000000000E+00  0.00000000000E+00  0.45593999997E+02  0.45594000000E+02  0.51100000000E-03 0.  1.
         11   -1    0    0    0    0 -0.00000000000E+00 -0.00000000000E+00 -0.45593999997E+02  0.45594000000E+02  0.51100000000E-03 0. -1.
    9900012    2    1    2    0    0  0.14208271929E+01 -0.15040414460E+02  0.40686490306E+02  0.47787270623E+02  0.19999998080E+02 0.  0.
         12    1    1    2    0    0 -0.14208271929E+01  0.15040414460E+02 -0.40686490306E+02  0.43400729377E+02  0.00000000000E+00 0. -1.
         11    1    3    3    0    0  0.21919445107E+01  0.20526654148E+01  0.76959148570E+01  0.82610629940E+01  0.51100000000E-03 0. -1.
        -11    1    3    3    0    0 -0.12562348163E+01 -0.77578580747E+01  0.27682520918E+02  0.28776456565E+02  0.51100000000E-03 0.  1.
         12    1    3    3    0    0  0.48511749849E+00 -0.93352218000E+01  0.53080545309E+01  0.10749751064E+02  0.00000000000E+00 0. -1.
</event>
<event>
 7    1  0.5417298E-010  0.4778727E+02  0.7816164E-02  0.1312668E+00
        -11   -1    0    0    0    0  0.00000000000E+00  0.00000000000E+00  0.45593999997E+02  0.45594000000E+02  0.51100000000E-03 0. -1.
         11   -1    0    0    0    0 -0.00000000000E+00 -0.00000000000E+00 -0.45593999997E+02  0.45594000000E+02  0.51100000000E-03 0.  1.
    9900012    2    1    2    0    0 -0.84083702950E+01  0.39758670098E+02 -0.15237157976E+02  0.47787268184E+02  0.19999986960E+02 0.  0.
         12    1    1    2    0    0  0.84083702950E+01 -0.39758670098E+02  0.15237157976E+02  0.43400731816E+02  0.00000000000E+00 0. -1.
         11    1    3    3    0    0 -0.87152337131E+01  0.93075410369E+01 -0.20601904315E+01  0.12916268954E+02  0.51100000000E-03 0. -1.
        -11    1    3    3    0    0 -0.46972845382E+01  0.19064526396E+02 -0.99972652957E+01  0.22033292137E+02  0.51100000000E-03 0.  1.
         12    1    3    3    0    0  0.50041479563E+01  0.11386602665E+02 -0.31797022490E+01  0.12837707093E+02  0.00000000000E+00 0. -1.
</event>
<event>
 7    1  0.5417298E-010  0.4778727E+02  0.7816164E-02  0.1312668E+00
        -11   -1    0    0    0    0  0.00000000000E+00  0.00000000000E+00  0.45593999997E+02  0.45594000000E+02  0.51100000000E-03 0.  1.
         11   -1    0    0    0    0 -0.00000000000E+00 -0.00000000000E+00 -0.45593999997E+02  0.45594000000E+02  0.51100000000E-03 0. -1.
    9900012    2    1    2    0    0  0.13650292379E+02  0.21434053632E+02  0.35183432078E+02  0.47787273855E+02  0.20000012817E+02 0.  0.
         12    1    1    2    0    0 -0.13650292379E+02 -0.21434053632E+02 -0.35183432078E+02  0.43400726145E+02  0.00000000000E+00 0. -1.
         11    1    3    3    0    0 -0.24469814761E+01  0.51173998324E+01  0.13981424048E+02  0.15088264250E+02  0.51100000000E-03 0. -1.
        -11    1    3    3    0    0  0.19488994682E+01  0.75210748950E+01  0.98231771439E+01  0.12524359711E+02  0.51100000000E-03 0.  1.
        -12    1    3    3    0    0  0.14148374387E+02  0.87955789044E+01  0.11378830885E+02  0.20174649895E+02  0.00000000000E+00 0.  1.
</event>
<event>
 7    1  0.5417298E-010  0.4778727E+02  0.7816164E-02  0.1312668E+00
        -11   -1    0    0    0    0  0.00000000000E+00  0.00000000000E+00  0.45593999997E+02  0.45594000000E+02  0.51100000000E-03 0. -1.
         11   -1    0    0    0    0 -0.00000000000E+00 -0.00000000000E+00 -0.45593999997E+02  0.45594000000E+02  0.51100000000E-03 0.  1.
    9900012    2    1    2    0    0  0.11083903265E+02  0.34038446078E+02 -0.24538836254E+02  0.47787271806E+02  0.20000003474E+02 0.  0.
         12    1    1    2    0    0 -0.11083903265E+02 -0.34038446078E+02  0.24538836254E+02  0.43400728194E+02  0.00000000000E+00 0. -1.
         11    1    3    3    0    0  0.67397289512E+01  0.76293601723E+01 -0.12194296138E+02  0.15884959601E+02  0.51100000000E-03 0. -1.
        -11    1    3    3    0    0  0.34646609018E+01  0.29667597333E+01 -0.61180035037E+01  0.76312191432E+01  0.51100000000E-03 0.  1.
        -12    1    3    3    0    0  0.87951341248E+00  0.23442326173E+02 -0.62265366126E+01  0.24271093062E+02  0.00000000000E+00 0.  1.
</event>
<event>
 7    1  0.5417298E-010  0.4778727E+02  0.7816164E-02  0.1312668E+00
        -11   -1    0    0    0    0  0.00000000000E+00  0.00000000000E+00  0.45593999997E+02  0.45594000000E+02  0.51100000000E-03 0.  1.
         11   -1    0    0    0    0 -0.00000000000E+00 -0.00000000000E+00 -0.45593999997E+02  0.45594000000E+02  0.51100000000E-03 0. -1.
    9900012    2    1    2    0    0 -0.71389437473E+01  0.10202502131E+01  0.42797406270E+02  0.47787269456E+02  0.19999992757E+02 0.  0.
         12    1    1    2    0    0  0.71389437473E+01 -0.10202502131E+01 -0.42797406270E+02  0.43400730544E+02  0.00000000000E+00 0. -1.
         11    1    3    3    0    0 -0.33019573902E+01 -0.16761612709E+01  0.55850944295E+01  0.67011729765E+01  0.51100000000E-03 0. -1.
        -11    1    3    3    0    0 -0.10103738393E+02  0.17469242571E+01  0.28675222094E+02  0.30453335389E+02  0.51100000000E-03 0.  1.
         12    1    3    3    0    0  0.62667520359E+01  0.94948722694E+00  0.85370897465E+01  0.10632761091E+02  0.00000000000E+00 0. -1.
</event>
<event>
 7    1  0.5417298E-010  0.4778727E+02  0.7816164E-02  0.1312668E+00
        -11   -1    0    0    0    0  0.00000000000E+00  0.00000000000E+00  0.45593999997E+02  0.45594000000E+02  0.51100000000E-03 0. -1.
         11   -1    0    0    0    0 -0.00000000000E+00 -0.00000000000E+00 -0.45593999997E+02  0.45594000000E+02  0.51100000000E-03 0.  1.
    9900012    2    1    2    0    0  0.32820111780E+02  0.23165212496E+02  0.16426710937E+02  0.47787266833E+02  0.19999980797E+02 0.  0.
         12    1    1    2    0    0 -0.32820111780E+02 -0.23165212496E+02 -0.16426710937E+02  0.43400733167E+02  0.00000000000E+00 0. -1.
         11    1    3    3    0    0  0.13962609991E+02  0.57426152201E+01  0.89224392736E+00  0.15123762985E+02  0.51100000000E-03 0. -1.
        -11    1    3    3    0    0  0.14446092114E+02  0.15459625674E+02  0.60271787366E+01  0.22000374704E+02  0.51100000000E-03 0.  1.
         12    1    3    3    0    0  0.44114096744E+01  0.19629716022E+01  0.95072882727E+01  0.10663129143E+02  0.00000000000E+00 0. -1.
</event>
<event>
 7    1  0.5417298E-010  0.4778727E+02  0.7816164E-02  0.1312668E+00
        -11   -1    0    0    0    0  0.00000000000E+00  0.00000000000E+00  0.45593999997E+02  0.45594000000E+02  0.51100000000E-03 0. -1.
         11   -1    0    0    0    0 -0.00000000000E+00 -0.00000000000E+00 -0.45593999997E+02  0.45594000000E+02  0.51100000000E-03 0.  1.
    9900012    2    1    2    0    0 -0.91472569004E+01 -0.37052805807E+01 -0.42263717753E+02  0.47787271305E+02  0.20000001187E+02 0.  0.
         12    1    1    2    0    0  0.91472569004E+01  0.37052805807E+01  0.42263717753E+02  0.43400728695E+02  0.00000000000E+00 0. -1.
         11    1    3    3    0    0  0.94721796734E+00  0.52728130780E+00 -0.17035826938E+01  0.20192676175E+01  0.51100000000E-03 0. -1.
        -11    1    3    3    0    0  0.93491688138E+00 -0.69958094592E+01 -0.27777426895E+02  0.28660091848E+02  0.51100000000E-03 0.  1.
         12    1    3    3    0    0 -0.11029391749E+02  0.27632475707E+01 -0.12782708164E+02  0.17107911840E+02  0.00000000000E+00 0. -1.
</event>
<event>
 7    1  0.5417298E-010  0.4778727E+02  0.7816164E-02  0.1312668E+00
        -11   -1    0    0    0    0  0.00000000000E+00  0.00000000000E+00  0.45593999997E+02  0.45594000000E+02  0.51100000000E-03 0.  1.
         11   -1    0    0    0    0 -0.00000000000E+00 -0.00000000000E+00 -0.45593999997E+02  0.45594000000E+02  0.51100000000E-03 0. -1.
    9900012    2    1    2    0    0  0.34920956491E+02  0.17515188542E+02  0.18904190312E+02  0.47787269093E+02  0.19999991102E+02 0.  0.
         12    1    1    2    0    0 -0.34920956491E+02 -0.17515188542E+02 -0.18904190312E+02  0.43400730907E+02  0.00000000000E+00 0. -1.
         11    1    3    3    0    0  0.15634541968E+02  0.25863910463E+01  0.77259954874E+01  0.17630068852E+02  0.51100000000E-03 0. -1.
        -11    1    3    3    0    0  0.20595846401E+02  0.13520583402E+02  0.12687917670E+02  0.27712421755E+02  0.51100000000E-03 0.  1.
        -12    1    3    3    0    0 -0.13094318774E+01  0.14082140941E+01 -0.15097228451E+01  0.24447784860E+01  0.00000000000E+00 0.  1.
</event>
<event>
 7    1  0.5417298E-010  0.4778728E+02  0.7816164E-02  0.1312668E+00
        -11   -1    0    0    0    0  0.00000000000E+00  0.00000000000E+00  0.45593999997E+02  0.45594000000E+02  0.51100000000E-03 0. -1.
         11   -1    0    0    0    0 -0.00000000000E+00 -0.00000000000E+00 -0.45593999997E+02  0.45594000000E+02  0.51100000000E-03 0.  1.
    9900012    2    1    2    0    0 -0.31406921355E+02 -0.23415927425E+02  0.18679468327E+02  0.47787275316E+02  0.20000019474E+02 0.  0.
         12    1    1    2    0    0  0.31406921355E+02  0.23415927425E+02 -0.18679468327E+02  0.43400724684E+02  0.00000000000E+00 0. -1.
         11    1    3    3    0    0 -0.16648862503E+02 -0.71908175872E+01  0.84253288608E+01  0.19996965942E+02  0.51100000000E-03 0.  1.
        -11    1    3    3    0    0 -0.10685120816E+02 -0.42827638305E+01 -0.31329298064E-01  0.11511509661E+02  0.51100000000E-03 0. -1.
        -12    1    3    3    0    0 -0.40729380358E+01 -0.11942346007E+02  0.10285468764E+02  0.16278799713E+02  0.00000000000E+00 0.  1.
</event>
<event>
 7    1  0.5417298E-010  0.4778727E+02  0.7816164E-02  0.1312668E+00
        -11   -1    0    0    0    0  0.00000000000E+00  0.00000000000E+00  0.45593999997E+02  0.45594000000E+02  0.51100000000E-03 0.  1.
         11   -1    0    0    0    0 -0.00000000000E+00 -0.00000000000E+00 -0.45593999997E+02  0.45594000000E+02  0.51100000000E-03 0. -1.
    9900012    2    1    2    0    0 -0.23843393945E+02 -0.86076051329E+01  0.35228181101E+02  0.47787273686E+02  0.20000012043E+02 0.  0.
         12    1    1    2    0    0  0.23843393945E+02  0.86076051329E+01 -0.35228181101E+02  0.43400726314E+02  0.00000000000E+00 0. -1.
         11    1    3    3    0    0 -0.34403451160E+01  0.45826206879E+01  0.38916615919E+01  0.69268619947E+01  0.51100000000E-03 0. -1.
        -11    1    3    3    0    0 -0.98515421677E+00 -0.36002605717E+01  0.15704557252E+01  0.40495353388E+01  0.51100000000E-03 0.  1.
         12    1    3    3    0    0 -0.19417894612E+02 -0.95899652492E+01  0.29766063783E+02  0.36810876352E+02  0.00000000000E+00 0. -1.
</event>
<event>
 7    1  0.5417298E-010  0.4778727E+02  0.7816164E-02  0.1312668E+00
        -11   -1    0    0    0    0  0.00000000000E+00  0.00000000000E+00  0.45593999997E+02  0.45594000000E+02  0.51100000000E-03 0. -1.
         11   -1    0    0    0    0 -0.00000000000E+00 -0.00000000000E+00 -0.45593999997E+02  0.45594000000E+02  0.51100000000E-03 0.  1.
    9900012    2    1    2    0    0  0.13703381614E+02 -0.36673333288E+02 -0.18732512198E+02  0.47787273562E+02  0.20000011480E+02 0.  0.
         12    1    1    2    0    0 -0.13703381614E+02  0.36673333288E+02  0.18732512198E+02  0.43400726438E+02  0.00000000000E+00 0. -1.
         11    1    3    3    0    0  0.59343137667E+01 -0.27411411455E+01 -0.43996996639E+01  0.78795489753E+01  0.51100000000E-03 0. -1.
        -11    1    3    3    0    0 -0.19796653340E+01 -0.58440835538E+01 -0.69088357986E+01  0.92630664345E+01  0.51100000000E-03 0.  1.
        -12    1    3    3    0    0  0.97487331814E+01 -0.28088108588E+02 -0.74239767354E+01  0.30644658152E+02  0.00000000000E+00 0.  1.
</event>
<event>
 7    1  0.5417298E-010  0.4778728E+02  0.7816164E-02  0.1312668E+00
        -11   -1    0    0    0    0  0.00000000000E+00  0.00000000000E+00  0.45593999997E+02  0.45594000000E+02  0.51100000000E-03 0.  1.
         11   -1    0    0    0    0 -0.00000000000E+00 -0.00000000000E+00 -0.45593999997E+02  0.45594000000E+02  0.51100000000E-03 0. -1.
    9900012    2    1    2    0    0  0.32369566630E+02 -0.27474141177E+02  0.90002953400E+01  0.47787278883E+02  0.20000035741E+02 0.  0.
         12    1    1    2    0    0 -0.32369566630E+02  0.27474141177E+02 -0.90002953400E+01  0.43400721117E+02  0.00000000000E+00 0. -1.
         11    1    3    3    0    0  0.17859521807E+01 -0.55773182295E+01  0.41177553955E+00  0.58707463905E+01  0.51100000000E-03 0. -1.
        -11    1    3    3    0    0  0.24222706225E+02 -0.12489795488E+02 -0.67518003071E+00  0.27261517869E+02  0.51100000000E-03 0.  1.
        -12    1    3    3    0    0  0.63609082244E+01 -0.94070274602E+01  0.92636998311E+01  0.14655014624E+02  0.00000000000E+00 0.  1.
</event>
<event>
 7    1  0.5417298E-010  0.4778726E+02  0.7816164E-02  0.1312668E+00
        -11   -1    0    0    0    0  0.00000000000E+00  0.00000000000E+00  0.45593999997E+02  0.45594000000E+02  0.51100000000E-03 0.  1.
         11   -1    0    0    0    0 -0.00000000000E+00 -0.00000000000E+00 -0.45593999997E+02  0.45594000000E+02  0.51100000000E-03 0. -1.
    9900012    2    1    2    0    0  0.42615985594E+01 -0.43067049458E+02 -0.32698734413E+01  0.47787262176E+02  0.19999959566E+02 0.  0.
         12    1    1    2    0    0 -0.42615985594E+01  0.43067049458E+02  0.32698734413E+01  0.43400737824E+02  0.00000000000E+00 0. -1.
         11    1    3    3    0    0 -0.59105605474E+00  0.94341757640E+00  0.52936797792E+00  0.12327265311E+01  0.51100000000E-03 0. -1.
        -11    1    3    3    0    0 -0.41885342460E+01 -0.12185729729E+02  0.17649660617E+01  0.13005803844E+02  0.51100000000E-03 0.  1.
         12    1    3    3    0    0  0.90411888601E+01 -0.31824737306E+02 -0.55642074810E+01  0.33548731801E+02  0.00000000000E+00 0. -1.
</event>
<event>
 7    1  0.5417298E-010  0.4778727E+02  0.7816164E-02  0.1312668E+00
        -11   -1    0    0    0    0  0.00000000000E+00  0.00000000000E+00  0.45593999997E+02  0.45594000000E+02  0.51100000000E-03 0.  1.
         11   -1    0    0    0    0 -0.00000000000E+00 -0.00000000000E+00 -0.45593999997E+02  0.45594000000E+02  0.51100000000E-03 0. -1.
    9900012    2    1    2    0    0  0.42625568777E+02  0.75292939109E+01 -0.31612876688E+01  0.47787272817E+02  0.20000008080E+02 0.  0.
         12    1    1    2    0    0 -0.42625568777E+02 -0.75292939109E+01  0.31612876688E+01  0.43400727183E+02  0.00000000000E+00 0. -1.
         11    1    3    3    0    0  0.38515146864E+01  0.60128982993E+01 -0.26465535297E+01  0.76153369711E+01  0.51100000000E-03 0. -1.
        -11    1    3    3    0    0  0.11357837870E+02  0.52258967885E+01 -0.21702249486E+00  0.12504302354E+02  0.51100000000E-03 0.  1.
        -12    1    3    3    0    0  0.27416216220E+02 -0.37095011769E+01 -0.29771164421E+00  0.27667633492E+02  0.00000000000E+00 0.  1.
</event>
<event>
 7    1  0.5417298E-010  0.4778727E+02  0.7816164E-02  0.1312668E+00
        -11   -1    0    0    0    0  0.00000000000E+00  0.00000000000E+00  0.45593999997E+02  0.45594000000E+02  0.51100000000E-03 0.  1.
         11   -1    0    0    0    0 -0.00000000000E+00 -0.00000000000E+00 -0.45593999997E+02  0.45594000000E+02  0.51100000000E-03 0. -1.
    9900012    2    1    2    0    0 -0.47554941265E+00  0.27771029380E+02  0.33349168525E+02  0.47787271189E+02  0.20000000658E+02 0.  0.
         12    1    1    2    0    0  0.47554941265E+00 -0.27771029380E+02 -0.33349168525E+02  0.43400728811E+02  0.00000000000E+00 0. -1.
         11    1    3    3    0    0  0.36259418621E+01  0.33054601471E+01 -0.69321032488E+00  0.49552055443E+01  0.51100000000E-03 0. -1.
        -11    1    3    3    0    0 -0.16109097298E+01  0.93176064338E+01  0.71058289567E+01  0.11828170832E+02  0.51100000000E-03 0.  1.
         12    1    3    3    0    0 -0.24905815449E+01  0.15147962799E+02  0.26936549893E+02  0.31003894812E+02  0.00000000000E+00 0. -1.
</event>
<event>
 7    1  0.5417298E-010  0.4778727E+02  0.7816164E-02  0.1312668E+00
        -11   -1    0    0    0    0  0.00000000000E+00  0.00000000000E+00  0.45593999997E+02  0.45594000000E+02  0.51100000000E-03 0.  1.
         11   -1    0    0    0    0 -0.00000000000E+00 -0.00000000000E+00 -0.45593999997E+02  0.45594000000E+02  0.51100000000E-03 0. -1.
    9900012    2    1    2    0    0 -0.12231419341E+02  0.11755157539E+00  0.41641350401E+02  0.47787268431E+02  0.19999988085E+02 0.  0.
         12    1    1    2    0    0  0.12231419341E+02 -0.11755157539E+00 -0.41641350401E+02  0.43400731569E+02  0.00000000000E+00 0. -1.
         11    1    3    3    0    0 -0.43137477067E+01 -0.56132165653E+00 -0.20240243559E+00  0.43548212692E+01  0.51100000000E-03 0. -1.
        -11    1    3    3    0    0  0.18227141155E+01  0.38198072914E+00  0.56031989263E+01  0.59045774187E+01  0.51100000000E-03 0.  1.
        -12    1    3    3    0    0 -0.97403857499E+01  0.29689250278E+00  0.36240553911E+02  0.37527869743E+02  0.00000000000E+00 0.  1.
</event>
<event>
 7    1  0.5417298E-010  0.4778727E+02  0.7816164E-02  0.1312668E+00
        -11   -1    0    0    0    0  0.00000000000E+00  0.00000000000E+00  0.45593999997E+02  0.45594000000E+02  0.51100000000E-03 0. -1.
         11   -1    0    0    0    0 -0.00000000000E+00 -0.00000000000E+00 -0.45593999997E+02  0.45594000000E+02  0.51100000000E-03 0.  1.
    9900012    2    1    2    0    0 -0.24084592098E+02 -0.17897820409E+02 -0.31356395591E+02  0.47787273089E+02  0.20000009322E+02 0.  0.
         12    1    1    2    0    0  0.24084592098E+02  0.17897820409E+02  0.31356395591E+02  0.43400726911E+02  0.00000000000E+00 0. -1.
         11    1    3    3    0    0  0.23160072252E+01 -0.22024348785E+01 -0.92411679852E+01  0.97782306606E+01  0.51100000000E-03 0. -1.
        -11    1    3    3    0    0 -0.53291488449E+01 -0.48856000890E+01 -0.52801476874E+01  0.89525904353E+01  0.51100000000E-03 0.  1.
         12    1    3    3    0    0 -0.21071450478E+02 -0.10809785442E+02 -0.16835079918E+02  0.29056451993E+02  0.00000000000E+00 0. -1.
</event>
<event>
 7    1  0.5417298E-010  0.4778727E+02  0.7816164E-02  0.1312668E+00
        -11   -1    0    0    0    0  0.00000000000E+00  0.00000000000E+00  0.45593999997E+02  0.45594000000E+02  0.51100000000E-03 0.  1.
         11   -1    0    0    0    0 -0.00000000000E+00 -0.00000000000E+00 -0.45593999997E+02  0.45594000000E+02  0.51100000000E-03 0. -1.
    9900012    2    1    2    0    0 -0.16289086785E+02 -0.16478202986E+02  0.36698197390E+02  0.47787271738E+02  0.20000003164E+02 0.  0.
         12    1    1    2    0    0  0.16289086785E+02  0.16478202986E+02 -0.36698197390E+02  0.43400728262E+02  0.00000000000E+00 0. -1.
         11    1    3    3    0    0 -0.10705674857E+02 -0.18220001200E+02  0.20029603490E+02  0.29116403179E+02  0.51100000000E-03 0. -1.
        -11    1    3    3    0    0 -0.54175527862E+01 -0.47181222774E+00  0.76679404517E+01  0.94005210494E+01  0.51100000000E-03 0.  1.
         12    1    3    3    0    0 -0.16585914208E+00  0.22136104424E+01  0.90006534486E+01  0.92703475095E+01  0.00000000000E+00 0. -1.
</event>
<event>
 7    1  0.4960911E-009  0.4778727E+02  0.7816164E-02  0.1312668E+00
        -11   -1    0    0    0    0  0.00000000000E+00  0.00000000000E+00  0.45593999997E+02  0.45594000000E+02  0.51100000000E-03 0.  1.
         11   -1    0    0    0    0 -0.00000000000E+00 -0.00000000000E+00 -0.45593999997E+02  0.45594000000E+02  0.51100000000E-03 0. -1.
    9900012    2    1    2    0    0 -0.14109026151E+02 -0.44624880527E+01  0.40800063427E+02  0.47787267354E+02  0.19999983176E+02 0.  0.
         12    1    1    2    0    0  0.14109026151E+02  0.44624880527E+01 -0.40800063427E+02  0.43400732646E+02  0.00000000000E+00 0. -1.
         11    1    3    3    0    0  0.20197738579E+01 -0.11878562491E+01  0.49795573404E+01  0.55033154074E+01  0.51100000000E-03 0. -1.
        -11    1    3    3    0    0 -0.10432180057E+02 -0.13869058339E+01  0.34593074146E+02  0.36158466058E+02  0.51100000000E-03 0.  1.
        -12    1    3    3    0    0 -0.56966199515E+01 -0.18877259696E+01  0.12274319402E+01  0.61254858889E+01  0.00000000000E+00 0.  1.
</event>
<event>
 7    1  0.5417298E-010  0.4778727E+02  0.7816164E-02  0.1312668E+00
        -11   -1    0    0    0    0  0.00000000000E+00  0.00000000000E+00  0.45593999997E+02  0.45594000000E+02  0.51100000000E-03 0.  1.
         11   -1    0    0    0    0 -0.00000000000E+00 -0.00000000000E+00 -0.45593999997E+02  0.45594000000E+02  0.51100000000E-03 0. -1.
    9900012    2    1    2    0    0  0.40251757333E+01  0.27262106438E+02  0.33529069659E+02  0.47787274207E+02  0.20000014421E+02 0.  0.
         12    1    1    2    0    0 -0.40251757333E+01 -0.27262106438E+02 -0.33529069659E+02  0.43400725793E+02  0.00000000000E+00 0. -1.
         11    1    3    3    0    0 -0.53788391845E+01  0.58851909544E+01  0.84656764322E+01  0.11629061065E+02  0.51100000000E-03 0. -1.
        -11    1    3    3    0    0 -0.22166822696E+01  0.81866350476E+01  0.83550972295E+01  0.11905558520E+02  0.51100000000E-03 0.  1.
        -12    1    3    3    0    0  0.11620697187E+02  0.13190280436E+02  0.16708295997E+02  0.24252654623E+02  0.00000000000E+00 0.  1.
</event>
<event>
 7    1  0.5417298E-010  0.4778727E+02  0.7816164E-02  0.1312668E+00
        -11   -1    0    0    0    0  0.00000000000E+00  0.00000000000E+00  0.45593999997E+02  0.45594000000E+02  0.51100000000E-03 0.  1.
         11   -1    0    0    0    0 -0.00000000000E+00 -0.00000000000E+00 -0.45593999997E+02  0.45594000000E+02  0.51100000000E-03 0. -1.
    9900012    2    1    2    0    0 -0.28437443039E+02 -0.11445814597E+02  0.30723417927E+02  0.47787271348E+02  0.20000001385E+02 0.  0.
         12    1    1    2    0    0  0.28437443039E+02  0.11445814597E+02 -0.30723417927E+02  0.43400728652E+02  0.00000000000E+00 0. -1.
         11    1    3    3    0    0 -0.91891139026E+01  0.32500735554E+01  0.94909122294E+01  0.13604418681E+02  0.51100000000E-03 0. -1.
        -11    1    3    3    0    0 -0.54951353737E+01 -0.21653880392E+01  0.12083105409E+02  0.13449418379E+02  0.51100000000E-03 0.  1.
        -12    1    3    3    0    0 -0.13753193763E+02 -0.12530500113E+02  0.91494002883E+01  0.20733434289E+02  0.00000000000E+00 0.  1.
</event>
<event>
 7    1  0.5417298E-010  0.4778727E+02  0.7816164E-02  0.1312668E+00
        -11   -1    0    0    0    0  0.00000000000E+00  0.00000000000E+00  0.45593999997E+02  0.45594000000E+02  0.51100000000E-03 0. -1.
         11   -1    0    0    0    0 -0.00000000000E+00 -0.00000000000E+00 -0.45593999997E+02  0.45594000000E+02  0.51100000000E-03 0.  1.
    9900012    2    1    2    0    0  0.10129141282E+02 -0.29799509661E+02 -0.29883325171E+02  0.47787269563E+02  0.19999993247E+02 0.  0.
         12    1    1    2    0    0 -0.10129141282E+02  0.29799509661E+02  0.29883325171E+02  0.43400730437E+02  0.00000000000E+00 0. -1.
         11    1    3    3    0    0 -0.90097650650E+00 -0.23981265172E+01  0.96168546813E+00  0.27363495132E+01  0.51100000000E-03 0. -1.
        -11    1    3    3    0    0  0.88767352740E+01 -0.10649711675E+02 -0.62319700480E+01  0.15200336800E+02  0.51100000000E-03 0.  1.
        -12    1    3    3    0    0  0.21533825150E+01 -0.16751671469E+02 -0.24613040591E+02  0.29850583250E+02  0.00000000000E+00 0.  1.
</event>
<event>
 7    1  0.5417298E-010  0.4778728E+02  0.7816164E-02  0.1312668E+00
        -11   -1    0    0    0    0  0.00000000000E+00  0.00000000000E+00  0.45593999997E+02  0.45594000000E+02  0.51100000000E-03 0.  1.
         11   -1    0    0    0    0 -0.00000000000E+00 -0.00000000000E+00 -0.45593999997E+02  0.45594000000E+02  0.51100000000E-03 0. -1.
    9900012    2    1    2    0    0  0.15182985533E+02  0.13180635183E+02  0.38462584599E+02  0.47787278721E+02  0.20000035001E+02 0.  0.
         12    1    1    2    0    0 -0.15182985533E+02 -0.13180635183E+02 -0.38462584599E+02  0.43400721279E+02  0.00000000000E+00 0. -1.
         11    1    3    3    0    0  0.84597315054E+00 -0.46150699694E+01  0.75800870506E+01  0.89147216081E+01  0.51100000000E-03 0. -1.
        -11    1    3    3    0    0  0.60658415946E+01  0.36909709548E+01  0.11487499709E+02  0.13504826939E+02  0.51100000000E-03 0.  1.
        -12    1    3    3    0    0  0.82711707876E+01  0.14104734197E+02  0.19394997839E+02  0.25367730174E+02  0.00000000000E+00 0.  1.
</event>
<event>
 7    1  0.5417298E-010  0.4778727E+02  0.7816164E-02  0.1312668E+00
        -11   -1    0    0    0    0  0.00000000000E+00  0.00000000000E+00  0.45593999997E+02  0.45594000000E+02  0.51100000000E-03 0.  1.
         11   -1    0    0    0    0 -0.00000000000E+00 -0.00000000000E+00 -0.45593999997E+02  0.45594000000E+02  0.51100000000E-03 0. -1.
    9900012    2    1    2    0    0  0.34386947105E+02 -0.16239974562E+01  0.26429601665E+02  0.47787270247E+02  0.19999996363E+02 0.  0.
         12    1    1    2    0    0 -0.34386947105E+02  0.16239974562E+01 -0.26429601665E+02  0.43400729753E+02  0.00000000000E+00 0. -1.
         11    1    3    3    0    0  0.14688149404E+02 -0.70749896833E+01  0.15277732648E+02  0.22342925661E+02  0.51100000000E-03 0. -1.
        -11    1    3    3    0    0  0.17916092789E+02  0.99170241699E+00  0.98467339146E+01  0.20467731275E+02  0.51100000000E-03 0.  1.
         12    1    3    3    0    0  0.17827049116E+01  0.44592898101E+01  0.13051351023E+01  0.49766133110E+01  0.00000000000E+00 0. -1.
</event>
<event>
 7    1  0.5417298E-010  0.4778727E+02  0.7816164E-02  0.1312668E+00
        -11   -1    0    0    0    0  0.00000000000E+00  0.00000000000E+00  0.45593999997E+02  0.45594000000E+02  0.51100000000E-03 0.  1.
         11   -1    0    0    0    0 -0.00000000000E+00 -0.00000000000E+00 -0.45593999997E+02  0.45594000000E+02  0.51100000000E-03 0. -1.
    9900012    2    1    2    0    0 -0.16915422565E+02 -0.77810799074E+01  0.39203909615E+02  0.47787271272E+02  0.20000001036E+02 0.  0.
         12    1    1    2    0    0  0.16915422565E+02  0.77810799074E+01 -0.39203909615E+02  0.43400728728E+02  0.00000000000E+00 0. -1.
         11    1    3    3    0    0  0.24888126257E+01 -0.18096137187E+00  0.37367182391E+01  0.44933282501E+01  0.51100000000E-03 0. -1.
        -11    1    3    3    0    0 -0.92729474528E+01 -0.63600427127E+00  0.26483969224E+02  0.28067644754E+02  0.51100000000E-03 0.  1.
        -12    1    3    3    0    0 -0.10131287738E+02 -0.69641142642E+01  0.89832221515E+01  0.15226298268E+02  0.00000000000E+00 0.  1.
</event>
<event>
 7    1  0.5417298E-010  0.4778727E+02  0.7816164E-02  0.1312668E+00
        -11   -1    0    0    0    0  0.00000000000E+00  0.00000000000E+00  0.45593999997E+02  0.45594000000E+02  0.51100000000E-03 0.  1.
         11   -1    0    0    0    0 -0.00000000000E+00 -0.00000000000E+00 -0.45593999997E+02  0.45594000000E+02  0.51100000000E-03 0. -1.
    9900012    2    1    2    0    0  0.27907314153E+02  0.22901742803E+01  0.33159615806E+02  0.47787271874E+02  0.20000003781E+02 0.  0.
         12    1    1    2    0    0 -0.27907314153E+02 -0.22901742803E+01 -0.33159615806E+02  0.43400728126E+02  0.00000000000E+00 0. -1.
         11    1    3    3    0    0  0.15865436942E+02 -0.37796369131E+01  0.15989128178E+02  0.22839657718E+02  0.51100000000E-03 0. -1.
        -11    1    3    3    0    0  0.25030758615E+00  0.96695223176E+00  0.10355840161E+02  0.10403897164E+02  0.51100000000E-03 0.  1.
         12    1    3    3    0    0  0.11791569625E+02  0.51028589616E+01  0.68146474676E+01  0.14543716991E+02  0.00000000000E+00 0. -1.
</event>
<event>
 7    1  0.5417298E-010  0.4778727E+02  0.7816164E-02  0.1312668E+00
        -11   -1    0    0    0    0  0.00000000000E+00  0.00000000000E+00  0.45593999997E+02  0.45594000000E+02  0.51100000000E-03 0. -1.
         11   -1    0    0    0    0 -0.00000000000E+00 -0.00000000000E+00 -0.45593999997E+02  0.45594000000E+02  0.51100000000E-03 0.  1.
    9900012    2    1    2    0    0  0.34687172441E+02 -0.13193763960E+02 -0.22502177565E+02  0.47787270345E+02  0.19999996812E+02 0.  0.
         12    1    1    2    0    0 -0.34687172441E+02  0.13193763960E+02  0.22502177565E+02  0.43400729655E+02  0.00000000000E+00 0. -1.
         11    1    3    3    0    0  0.16856417309E+02 -0.96654304952E+01 -0.10945924420E+02  0.22301852228E+02  0.51100000000E-03 0. -1.
        -11    1    3    3    0    0  0.12957885303E+02 -0.57075762262E+01 -0.16794898156E+01  0.14258467807E+02  0.51100000000E-03 0.  1.
         12    1    3    3    0    0  0.48728698293E+01  0.21792427614E+01 -0.98767633302E+01  0.11226950310E+02  0.00000000000E+00 0. -1.
</event>
<event>
 7    1  0.5417298E-010  0.4778727E+02  0.7816164E-02  0.1312668E+00
        -11   -1    0    0    0    0  0.00000000000E+00  0.00000000000E+00  0.45593999997E+02  0.45594000000E+02  0.51100000000E-03 0. -1.
         11   -1    0    0    0    0 -0.00000000000E+00 -0.00000000000E+00 -0.45593999997E+02  0.45594000000E+02  0.51100000000E-03 0.  1.
    9900012    2    1    2    0    0 -0.32045615716E+02 -0.37890669708E+01 -0.29023172578E+02  0.47787273490E+02  0.20000011148E+02 0.  0.
         12    1    1    2    0    0  0.32045615716E+02  0.37890669708E+01  0.29023172578E+02  0.43400726510E+02  0.00000000000E+00 0. -1.
         11    1    3    3    0    0 -0.43812264738E+01 -0.42899856051E+01 -0.47794380540E+01  0.77744549829E+01  0.51100000000E-03 0. -1.
        -11    1    3    3    0    0 -0.14832243704E+02 -0.59904340816E+01 -0.67372576657E+01  0.17357171281E+02  0.51100000000E-03 0.  1.
        -12    1    3    3    0    0 -0.12832145538E+02  0.64913527159E+01 -0.17506476859E+02  0.22655647225E+02  0.00000000000E+00 0.  1.
</event>
<event>
 7    1  0.5417298E-010  0.4778727E+02  0.7816164E-02  0.1312668E+00
        -11   -1    0    0    0    0  0.00000000000E+00  0.00000000000E+00  0.45593999997E+02  0.45594000000E+02  0.51100000000E-03 0. -1.
         11   -1    0    0    0    0 -0.00000000000E+00 -0.00000000000E+00 -0.45593999997E+02  0.45594000000E+02  0.51100000000E-03 0.  1.
    9900012    2    1    2    0    0 -0.92729238876E+01  0.42396991946E+02 -0.36290443476E+00  0.47787265638E+02  0.19999975351E+02 0.  0.
         12    1    1    2    0    0  0.92729238876E+01 -0.42396991946E+02  0.36290443476E+00  0.43400734362E+02  0.00000000000E+00 0. -1.
         11    1    3    3    0    0 -0.10262028090E+02  0.12383593043E+02  0.46784380129E+01  0.16749638195E+02  0.51100000000E-03 0. -1.
        -11    1    3    3    0    0  0.19066339738E+01  0.35746584006E+01  0.24972302745E+00  0.40590390049E+01  0.51100000000E-03 0.  1.
        -12    1    3    3    0    0 -0.91752977161E+00  0.26438740503E+02 -0.52910654751E+01  0.26978588438E+02  0.00000000000E+00 0.  1.
</event>
<event>
 7    1  0.5417298E-010  0.4778727E+02  0.7816164E-02  0.1312668E+00
        -11   -1    0    0    0    0  0.00000000000E+00  0.00000000000E+00  0.45593999997E+02  0.45594000000E+02  0.51100000000E-03 0.  1.
         11   -1    0    0    0    0 -0.00000000000E+00 -0.00000000000E+00 -0.45593999997E+02  0.45594000000E+02  0.51100000000E-03 0. -1.
    9900012    2    1    2    0    0  0.39546526463E+02 -0.39822139655E+01  0.17430937083E+02  0.47787270156E+02  0.19999995950E+02 0.  0.
         12    1    1    2    0    0 -0.39546526463E+02  0.39822139655E+01 -0.17430937083E+02  0.43400729844E+02  0.00000000000E+00 0. -1.
         11    1    3    3    0    0  0.19545980539E+02 -0.11936183585E+01  0.61808617933E+01  0.20534681220E+02  0.51100000000E-03 0. -1.
        -11    1    3    3    0    0  0.15843066221E+02  0.90114196440E+00  0.13899066215E+02  0.21094995758E+02  0.51100000000E-03 0.  1.
        -12    1    3    3    0    0  0.41574797031E+01 -0.36897375715E+01 -0.26489909254E+01  0.61575931784E+01  0.00000000000E+00 0.  1.
</event>
<event>
 7    1  0.5417298E-010  0.4778727E+02  0.7816164E-02  0.1312668E+00
        -11   -1    0    0    0    0  0.00000000000E+00  0.00000000000E+00  0.45593999997E+02  0.45594000000E+02  0.51100000000E-03 0.  1.
         11   -1    0    0    0    0 -0.00000000000E+00 -0.00000000000E+00 -0.45593999997E+02  0.45594000000E+02  0.51100000000E-03 0. -1.
    9900012    2    1    2    0    0  0.15264018918E+02 -0.30029889961E+02  0.27364918867E+02  0.47787270177E+02  0.19999996043E+02 0.  0.
         12    1    1    2    0    0 -0.15264018918E+02  0.30029889961E+02 -0.27364918867E+02  0.43400729823E+02  0.00000000000E+00 0. -1.
         11    1    3    3    0    0  0.53629039500E+01 -0.28226269724E+01  0.43448741608E+01  0.74569359349E+01  0.51100000000E-03 0. -1.
        -11    1    3    3    0    0  0.72949154318E+01 -0.48225830901E+01  0.12999230318E+02  0.15666942521E+02  0.51100000000E-03 0.  1.
         12    1    3    3    0    0  0.26061995364E+01 -0.22384679899E+02  0.10020814388E+02  0.24663391721E+02  0.00000000000E+00 0. -1.
</event>
<event>
 7    1  0.5417298E-010  0.4778727E+02  0.7816164E-02  0.1312668E+00
        -11   -1    0    0    0    0  0.00000000000E+00  0.00000000000E+00  0.45593999997E+02  0.45594000000E+02  0.51100000000E-03 0. -1.
         11   -1    0    0    0    0 -0.00000000000E+00 -0.00000000000E+00 -0.45593999997E+02  0.45594000000E+02  0.51100000000E-03 0.  1.
    9900012    2    1    2    0    0  0.16445630014E+02  0.18179452750E+02 -0.35814412428E+02  0.47787269748E+02  0.19999994088E+02 0.  0.
         12    1    1    2    0    0 -0.16445630014E+02 -0.18179452750E+02  0.35814412428E+02  0.43400730252E+02  0.00000000000E+00 0. -1.
         11    1    3    3    0    0  0.11816825575E+02  0.15799256727E+02 -0.21804135551E+02  0.29405343173E+02  0.51100000000E-03 0. -1.
        -11    1    3    3    0    0  0.69017234382E+01  0.24897506627E+01 -0.45087450006E+01  0.86117028816E+01  0.51100000000E-03 0.  1.
         12    1    3    3    0    0 -0.22729189991E+01 -0.10955463881E+00 -0.95015318771E+01  0.97702236927E+01  0.00000000000E+00 0. -1.
</event>
<event>
 7    1  0.5417298E-010  0.4778727E+02  0.7816164E-02  0.1312668E+00
        -11   -1    0    0    0    0  0.00000000000E+00  0.00000000000E+00  0.45593999997E+02  0.45594000000E+02  0.51100000000E-03 0.  1.
         11   -1    0    0    0    0 -0.00000000000E+00 -0.00000000000E+00 -0.45593999997E+02  0.45594000000E+02  0.51100000000E-03 0. -1.
    9900012    2    1    2    0    0 -0.15722859964E+02  0.38178494577E+02  0.13372267248E+02  0.47787270686E+02  0.19999998365E+02 0.  0.
         12    1    1    2    0    0  0.15722859964E+02 -0.38178494577E+02 -0.13372267248E+02  0.43400729314E+02  0.00000000000E+00 0. -1.
         11    1    3    3    0    0 -0.10438940614E+02  0.18681764300E+02  0.73703411075E+01  0.22634083299E+02  0.51100000000E-03 0. -1.
        -11    1    3    3    0    0 -0.99526487696E+01  0.12299568145E+02  0.44421246372E+01  0.16433717340E+02  0.51100000000E-03 0.  1.
         12    1    3    3    0    0  0.46687294189E+01  0.71971621331E+01  0.15598015034E+01  0.87194700463E+01  0.00000000000E+00 0. -1.
</event>
<event>
 7    1  0.5417298E-010  0.4778727E+02  0.7816164E-02  0.1312668E+00
        -11   -1    0    0    0    0  0.00000000000E+00  0.00000000000E+00  0.45593999997E+02  0.45594000000E+02  0.51100000000E-03 0.  1.
         11   -1    0    0    0    0 -0.00000000000E+00 -0.00000000000E+00 -0.45593999997E+02  0.45594000000E+02  0.51100000000E-03 0. -1.
    9900012    2    1    2    0    0  0.10030543159E+02  0.42178687042E+02  0.19923604507E+01  0.47787274927E+02  0.20000017703E+02 0.  0.
         12    1    1    2    0    0 -0.10030543159E+02 -0.42178687042E+02 -0.19923604507E+01  0.43400725073E+02  0.00000000000E+00 0. -1.
         11    1    3    3    0    0 -0.37262120786E+01  0.13524567932E+02  0.77505821284E+00  0.14049886466E+02  0.51100000000E-03 0. -1.
        -11    1    3    3    0    0  0.40622599546E+01  0.14655390801E+02  0.55124164598E+01  0.16176191485E+02  0.51100000000E-03 0.  1.
        -12    1    3    3    0    0  0.96944952830E+01  0.13998728309E+02 -0.42951142218E+01  0.17561196976E+02  0.00000000000E+00 0.  1.
</event>
<event>
 7    1  0.5417298E-010  0.4778727E+02  0.7816164E-02  0.1312668E+00
        -11   -1    0    0    0    0  0.00000000000E+00  0.00000000000E+00  0.45593999997E+02  0.45594000000E+02  0.51100000000E-03 0. -1.
         11   -1    0    0    0    0 -0.00000000000E+00 -0.00000000000E+00 -0.45593999997E+02  0.45594000000E+02  0.51100000000E-03 0.  1.
    9900012    2    1    2    0    0  0.13306333398E+02  0.21104957310E+02 -0.35512609335E+02  0.47787272433E+02  0.20000006331E+02 0.  0.
         12    1    1    2    0    0 -0.13306333398E+02 -0.21104957310E+02  0.35512609335E+02  0.43400727567E+02  0.00000000000E+00 0. -1.
         11    1    3    3    0    0  0.86497908584E+01  0.17343384182E+02 -0.21085374306E+02  0.28639219031E+02  0.51100000000E-03 0. -1.
        -11    1    3    3    0    0  0.54545931869E+01  0.55573964360E+01 -0.15166247783E+02  0.17048528208E+02  0.51100000000E-03 0.  1.
         12    1    3    3    0    0 -0.79805064775E+00 -0.17958233081E+01  0.73901275442E+00  0.20995251943E+01  0.00000000000E+00 0. -1.
</event>
<event>
 7    1  0.5417298E-010  0.4778727E+02  0.7816164E-02  0.1312668E+00
        -11   -1    0    0    0    0  0.00000000000E+00  0.00000000000E+00  0.45593999997E+02  0.45594000000E+02  0.51100000000E-03 0.  1.
         11   -1    0    0    0    0 -0.00000000000E+00 -0.00000000000E+00 -0.45593999997E+02  0.45594000000E+02  0.51100000000E-03 0. -1.
    9900012    2    1    2    0    0  0.24223877063E+02  0.90035437847E+01  0.34867796481E+02  0.47787271296E+02  0.20000001145E+02 0.  0.
         12    1    1    2    0    0 -0.24223877063E+02 -0.90035437847E+01 -0.34867796481E+02  0.43400728704E+02  0.00000000000E+00 0. -1.
         11    1    3    3    0    0  0.78241857874E+00 -0.26647772143E+01  0.76085024070E+00  0.28796023656E+01  0.51100000000E-03 0. -1.
        -11    1    3    3    0    0  0.55019963823E+01  0.27166499420E+00  0.16217172259E+02  0.17127242697E+02  0.51100000000E-03 0.  1.
        -12    1    3    3    0    0  0.17939462102E+02  0.11396656005E+02  0.17889773981E+02  0.27780426233E+02  0.00000000000E+00 0.  1.
</event>
<event>
 7    1  0.5417298E-010  0.4778727E+02  0.7816164E-02  0.1312668E+00
        -11   -1    0    0    0    0  0.00000000000E+00  0.00000000000E+00  0.45593999997E+02  0.45594000000E+02  0.51100000000E-03 0.  1.
         11   -1    0    0    0    0 -0.00000000000E+00 -0.00000000000E+00 -0.45593999997E+02  0.45594000000E+02  0.51100000000E-03 0. -1.
    9900012    2    1    2    0    0 -0.14320460028E+02 -0.19905058703E+02  0.35809725982E+02  0.47787269449E+02  0.19999992728E+02 0.  0.
         12    1    1    2    0    0  0.14320460028E+02  0.19905058703E+02 -0.35809725982E+02  0.43400730551E+02  0.00000000000E+00 0. -1.
         11    1    3    3    0    0 -0.13545929935E+02 -0.50865228551E+01  0.21750476405E+02  0.26123708708E+02  0.51100000000E-03 0. -1.
        -11    1    3    3    0    0  0.46251626720E+00 -0.28794370051E+01  0.73618855284E+01  0.79184870751E+01  0.51100000000E-03 0.  1.
         12    1    3    3    0    0 -0.12370463604E+01 -0.11939098843E+02  0.66973640488E+01  0.13745073666E+02  0.00000000000E+00 0. -1.
</event>
<event>
 7    1  0.5417298E-010  0.4778727E+02  0.7816164E-02  0.1312668E+00
        -11   -1    0    0    0    0  0.00000000000E+00  0.00000000000E+00  0.45593999997E+02  0.45594000000E+02  0.51100000000E-03 0.  1.
         11   -1    0    0    0    0 -0.00000000000E+00 -0.00000000000E+00 -0.45593999997E+02  0.45594000000E+02  0.51100000000E-03 0. -1.
    9900012    2    1    2    0    0  0.19703729729E+02 -0.83879550153E+01  0.37749547307E+02  0.47787273319E+02  0.20000010371E+02 0.  0.
         12    1    1    2    0    0 -0.19703729729E+02  0.83879550153E+01 -0.37749547307E+02  0.43400726681E+02  0.00000000000E+00 0. -1.
         11    1    3    3    0    0  0.13201102711E+02 -0.10233847030E+02  0.13633691758E+02  0.21561036362E+02  0.51100000000E-03 0. -1.
        -11    1    3    3    0    0  0.63880523209E+01 -0.18132082734E+01  0.15970868405E+02  0.17296345700E+02  0.51100000000E-03 0.  1.
         12    1    3    3    0    0  0.11457469731E+00  0.36591002882E+01  0.81449871443E+01  0.89298912570E+01  0.00000000000E+00 0. -1.
</event>
<event>
 7    1  0.5417298E-010  0.4778728E+02  0.7816164E-02  0.1312668E+00
        -11   -1    0    0    0    0  0.00000000000E+00  0.00000000000E+00  0.45593999997E+02  0.45594000000E+02  0.51100000000E-03 0. -1.
         11   -1    0    0    0    0 -0.00000000000E+00 -0.00000000000E+00 -0.45593999997E+02  0.45594000000E+02  0.51100000000E-03 0.  1.
    9900012    2    1    2    0    0  0.13638188222E+02 -0.82057041131E+00 -0.41194040744E+02  0.47787279884E+02  0.20000040301E+02 0.  0.
         12    1    1    2    0    0 -0.13638188222E+02  0.82057041131E+00  0.41194040744E+02  0.43400720116E+02  0.00000000000E+00 0. -1.
         11    1    3    3    0    0  0.15633558938E+01 -0.41836312610E+00 -0.89564516617E+01  0.91014908661E+01  0.51100000000E-03 0.  1.
        -11    1    3    3    0    0  0.31222627708E+01  0.12879408829E+01  0.15320787091E+01  0.37087170234E+01  0.51100000000E-03 0. -1.
         12    1    3    3    0    0  0.89525695578E+01 -0.16901481681E+01 -0.33769667792E+02  0.34977071994E+02  0.00000000000E+00 0. -1.
</event>
<event>
 7    1  0.5417298E-010  0.4778729E+02  0.7816164E-02  0.1312668E+00
        -11   -1    0    0    0    0  0.00000000000E+00  0.00000000000E+00  0.45593999997E+02  0.45594000000E+02  0.51100000000E-03 0.  1.
         11   -1    0    0    0    0 -0.00000000000E+00 -0.00000000000E+00 -0.45593999997E+02  0.45594000000E+02  0.51100000000E-03 0. -1.
    9900012    2    1    2    0    0  0.29463770830E+02 -0.23421494605E+02  0.21608837489E+02  0.47787285044E+02  0.20000063829E+02 0.  0.
         12    1    1    2    0    0 -0.29463770830E+02  0.23421494605E+02 -0.21608837489E+02  0.43400714956E+02  0.00000000000E+00 0. -1.
         11    1    3    3    0    0  0.22462439864E+01  0.16473353107E+01  0.88933171160E+00  0.29240787997E+01  0.51100000000E-03 0. -1.
        -11    1    3    3    0    0  0.16300778206E+02 -0.22715279472E+02  0.18362325893E+02  0.33449578533E+02  0.51100000000E-03 0.  1.
         12    1    3    3    0    0  0.10916748638E+02 -0.23535504444E+01  0.23571798848E+01  0.11413627711E+02  0.00000000000E+00 0. -1.
</event>
<event>
 7    1  0.5417298E-010  0.4778727E+02  0.7816164E-02  0.1312668E+00
        -11   -1    0    0    0    0  0.00000000000E+00  0.00000000000E+00  0.45593999997E+02  0.45594000000E+02  0.51100000000E-03 0.  1.
         11   -1    0    0    0    0 -0.00000000000E+00 -0.00000000000E+00 -0.45593999997E+02  0.45594000000E+02  0.51100000000E-03 0. -1.
    9900012    2    1    2    0    0  0.36165940172E+01 -0.43220841004E+02  0.15819435501E+01  0.47787269652E+02  0.19999993650E+02 0.  0.
         12    1    1    2    0    0 -0.36165940172E+01  0.43220841004E+02 -0.15819435501E+01  0.43400730348E+02  0.00000000000E+00 0. -1.
         11    1    3    3    0    0  0.47662291962E+01 -0.89851081497E+01  0.63050813917E+01  0.11966752309E+02  0.51100000000E-03 0. -1.
        -11    1    3    3    0    0 -0.26886686791E+01 -0.23359931286E+01 -0.22967959426E+00  0.35691113936E+01  0.51100000000E-03 0.  1.
        -12    1    3    3    0    0  0.15390335001E+01 -0.31899739725E+02 -0.44934582474E+01  0.32251405949E+02  0.00000000000E+00 0.  1.
</event>
<event>
 7    1  0.5417298E-010  0.4778727E+02  0.7816164E-02  0.1312668E+00
        -11   -1    0    0    0    0  0.00000000000E+00  0.00000000000E+00  0.45593999997E+02  0.45594000000E+02  0.51100000000E-03 0.  1.
         11   -1    0    0    0    0 -0.00000000000E+00 -0.00000000000E+00 -0.45593999997E+02  0.45594000000E+02  0.51100000000E-03 0. -1.
    9900012    2    1    2    0    0  0.10608432019E+02 -0.41877407642E+02  0.41673929349E+01  0.47787271151E+02  0.20000000485E+02 0.  0.
         12    1    1    2    0    0 -0.10608432019E+02  0.41877407642E+02 -0.41673929349E+01  0.43400728849E+02  0.00000000000E+00 0. -1.
         11    1    3    3    0    0  0.73419824527E+00  0.12025845703E+01 -0.70252814469E-01  0.14107418017E+01  0.51100000000E-03 0. -1.
        -11    1    3    3    0    0  0.62262568979E+01 -0.14754333152E+02  0.74019825615E+01  0.17642164488E+02  0.51100000000E-03 0.  1.
        -12    1    3    3    0    0  0.36479768761E+01 -0.28325659061E+02 -0.31643368121E+01  0.28734364861E+02  0.00000000000E+00 0.  1.
</event>
<event>
 7    1  0.5417298E-010  0.4778727E+02  0.7816164E-02  0.1312668E+00
        -11   -1    0    0    0    0  0.00000000000E+00  0.00000000000E+00  0.45593999997E+02  0.45594000000E+02  0.51100000000E-03 0.  1.
         11   -1    0    0    0    0 -0.00000000000E+00 -0.00000000000E+00 -0.45593999997E+02  0.45594000000E+02  0.51100000000E-03 0. -1.
    9900012    2    1    2    0    0  0.34002429567E+02  0.26336470651E+02  0.58179517123E+01  0.47787268843E+02  0.19999989965E+02 0.  0.
         12    1    1    2    0    0 -0.34002429567E+02 -0.26336470651E+02 -0.58179517123E+01  0.43400731157E+02  0.00000000000E+00 0. -1.
         11    1    3    3    0    0 -0.23457833494E+01  0.23965498549E+01  0.11394237248E+01  0.35418127301E+01  0.51100000000E-03 0. -1.
        -11    1    3    3    0    0  0.88016218892E+01  0.29295792322E+01 -0.72100910985E-01  0.92766470861E+01  0.51100000000E-03 0.  1.
         12    1    3    3    0    0  0.27546591027E+02  0.21010341564E+02  0.47506288985E+01  0.34968809027E+02  0.00000000000E+00 0. -1.
</event>
<event>
 7    1  0.5417298E-010  0.4778727E+02  0.7816164E-02  0.1312668E+00
        -11   -1    0    0    0    0  0.00000000000E+00  0.00000000000E+00  0.45593999997E+02  0.45594000000E+02  0.51100000000E-03 0.  1.
         11   -1    0    0    0    0 -0.00000000000E+00 -0.00000000000E+00 -0.45593999997E+02  0.45594000000E+02  0.51100000000E-03 0. -1.
    9900012    2    1    2    0    0 -0.14102012918E+02 -0.41010974254E+02  0.16901450206E+01  0.47787269962E+02  0.19999995064E+02 0.  0.
         12    1    1    2    0    0  0.14102012918E+02  0.41010974254E+02 -0.16901450206E+01  0.43400730038E+02  0.00000000000E+00 0. -1.
         11    1    3    3    0    0 -0.12880921102E+02 -0.21812880830E+02 -0.29319006132E+01  0.25501292909E+02  0.51100000000E-03 0. -1.
        -11    1    3    3    0    0 -0.49122063079E+01 -0.45912416087E+01  0.17633113472E+01  0.69511536804E+01  0.51100000000E-03 0.  1.
         12    1    3    3    0    0  0.36911144914E+01 -0.14606851816E+02  0.28587342866E+01  0.15334823373E+02  0.00000000000E+00 0. -1.
</event>
<event>
 7    1  0.5417298E-010  0.4778734E+02  0.7816164E-02  0.1312667E+00
        -11   -1    0    0    0    0  0.00000000000E+00  0.00000000000E+00  0.45593999997E+02  0.45594000000E+02  0.51100000000E-03 0.  1.
         11   -1    0    0    0    0 -0.00000000000E+00 -0.00000000000E+00 -0.45593999997E+02  0.45594000000E+02  0.51100000000E-03 0. -1.
    9900012    2    1    2    0    0 -0.12529525620E+02 -0.36732336567E+02 -0.19425860554E+02  0.47787336178E+02  0.20000296970E+02 0.  0.
         12    1    1    2    0    0  0.12529525620E+02  0.36732336567E+02  0.19425860554E+02  0.43400663822E+02  0.00000000000E+00 0. -1.
         11    1    3    3    0    0 -0.14175124306E+02 -0.22585951524E+02 -0.59135342244E+01  0.27313535886E+02  0.51100000000E-03 0. -1.
        -11    1    3    3    0    0 -0.19660207352E+01 -0.66753693851E+01 -0.48775045665E+01  0.84979906458E+01  0.51100000000E-03 0.  1.
         12    1    3    3    0    0  0.36116194219E+01 -0.74710156579E+01 -0.86348217628E+01  0.11975809646E+02  0.00000000000E+00 0. -1.
</event>
<event>
 7    1  0.5417298E-010  0.4778727E+02  0.7816164E-02  0.1312668E+00
        -11   -1    0    0    0    0  0.00000000000E+00  0.00000000000E+00  0.45593999997E+02  0.45594000000E+02  0.51100000000E-03 0.  1.
         11   -1    0    0    0    0 -0.00000000000E+00 -0.00000000000E+00 -0.45593999997E+02  0.45594000000E+02  0.51100000000E-03 0. -1.
    9900012    2    1    2    0    0 -0.51092268315E+01  0.22626582170E+01  0.43039510979E+02  0.47787270440E+02  0.19999997246E+02 0.  0.
         12    1    1    2    0    0  0.51092268315E+01 -0.22626582170E+01 -0.43039510979E+02  0.43400729560E+02  0.00000000000E+00 0. -1.
         11    1    3    3    0    0  0.32464138726E+01 -0.18289373148E+01  0.22060039517E+01  0.43302042018E+01  0.51100000000E-03 0. -1.
        -11    1    3    3    0    0  0.17489461110E+01  0.93437617232E+00  0.19904090536E+02  0.20002617120E+02  0.51100000000E-03 0.  1.
         12    1    3    3    0    0 -0.10104586815E+02  0.31572193595E+01  0.20929416491E+02  0.23454449118E+02  0.00000000000E+00 0. -1.
</event>
<event>
 7    1  0.5417298E-010  0.4778727E+02  0.7816164E-02  0.1312668E+00
        -11   -1    0    0    0    0  0.00000000000E+00  0.00000000000E+00  0.45593999997E+02  0.45594000000E+02  0.51100000000E-03 0.  1.
         11   -1    0    0    0    0 -0.00000000000E+00 -0.00000000000E+00 -0.45593999997E+02  0.45594000000E+02  0.51100000000E-03 0. -1.
    9900012    2    1    2    0    0 -0.14408492160E+02 -0.40253079839E+02  0.74637900922E+01  0.47787271373E+02  0.20000001498E+02 0.  0.
         12    1    1    2    0    0  0.14408492160E+02  0.40253079839E+02 -0.74637900922E+01  0.43400728627E+02  0.00000000000E+00 0. -1.
         11    1    3    3    0    0 -0.26459744496E+01 -0.85269428119E+01  0.41186794518E+01  0.98322660254E+01  0.51100000000E-03 0. -1.
        -11    1    3    3    0    0  0.36844672811E+01 -0.11974948809E+02 -0.73707005584E+00  0.12550616346E+02  0.51100000000E-03 0.  1.
         12    1    3    3    0    0 -0.15446984991E+02 -0.19751188217E+02  0.40821806962E+01  0.25404389002E+02  0.00000000000E+00 0. -1.
</event>
<event>
 7    1  0.5417298E-010  0.4778727E+02  0.7816164E-02  0.1312668E+00
        -11   -1    0    0    0    0  0.00000000000E+00  0.00000000000E+00  0.45593999997E+02  0.45594000000E+02  0.51100000000E-03 0.  1.
         11   -1    0    0    0    0 -0.00000000000E+00 -0.00000000000E+00 -0.45593999997E+02  0.45594000000E+02  0.51100000000E-03 0. -1.
    9900012    2    1    2    0    0 -0.65750360406E+01 -0.66467558952E+01  0.42381749050E+02  0.47787272871E+02  0.20000008326E+02 0.  0.
         12    1    1    2    0    0  0.65750360406E+01  0.66467558952E+01 -0.42381749050E+02  0.43400727129E+02  0.00000000000E+00 0. -1.
         11    1    3    3    0    0 -0.22636452858E+01  0.31668417142E+01  0.47247360112E+01  0.61217731957E+01  0.51100000000E-03 0. -1.
        -11    1    3    3    0    0 -0.35846698955E+01  0.25074967941E+00  0.26002825039E+02  0.26249945598E+02  0.51100000000E-03 0.  1.
         12    1    3    3    0    0 -0.72672085930E+00 -0.10064347289E+02  0.11654188000E+02  0.15415554077E+02  0.00000000000E+00 0. -1.
</event>
<event>
 7    1  0.5417298E-010  0.4778727E+02  0.7816164E-02  0.1312668E+00
        -11   -1    0    0    0    0  0.00000000000E+00  0.00000000000E+00  0.45593999997E+02  0.45594000000E+02  0.51100000000E-03 0. -1.
         11   -1    0    0    0    0 -0.00000000000E+00 -0.00000000000E+00 -0.45593999997E+02  0.45594000000E+02  0.51100000000E-03 0.  1.
    9900012    2    1    2    0    0 -0.75690542491E+01 -0.22823270985E+02 -0.36130751784E+02  0.47787268379E+02  0.19999987849E+02 0.  0.
         12    1    1    2    0    0  0.75690542491E+01  0.22823270985E+02  0.36130751784E+02  0.43400731621E+02  0.00000000000E+00 0. -1.
         11    1    3    3    0    0 -0.49068734157E+01 -0.10184155647E+01 -0.28638524409E+01  0.57720211403E+01  0.51100000000E-03 0. -1.
        -11    1    3    3    0    0 -0.19152273487E+01 -0.12085421685E+02 -0.72282798807E+01  0.14211739633E+02  0.51100000000E-03 0.  1.
        -12    1    3    3    0    0 -0.74695348470E+00 -0.97194337354E+01 -0.26038619463E+02  0.27803507606E+02  0.00000000000E+00 0.  1.
</event>
<event>
 7    1  0.5417298E-010  0.4778728E+02  0.7816164E-02  0.1312668E+00
        -11   -1    0    0    0    0  0.00000000000E+00  0.00000000000E+00  0.45593999997E+02  0.45594000000E+02  0.51100000000E-03 0.  1.
         11   -1    0    0    0    0 -0.00000000000E+00 -0.00000000000E+00 -0.45593999997E+02  0.45594000000E+02  0.51100000000E-03 0. -1.
    9900012    2    1    2    0    0  0.11769184760E+02  0.24799104728E+02  0.33617157185E+02  0.47787279241E+02  0.20000037371E+02 0.  0.
         12    1    1    2    0    0 -0.11769184760E+02 -0.24799104728E+02 -0.33617157185E+02  0.43400720759E+02  0.00000000000E+00 0. -1.
         11    1    3    3    0    0  0.25589281967E+01  0.11686554510E+02  0.24807118637E+02  0.27541183801E+02  0.51100000000E-03 0.  1.
        -11    1    3    3    0    0  0.33453989550E+01  0.57500315344E+00  0.47183589877E+01  0.58125067392E+01  0.51100000000E-03 0. -1.
        -12    1    3    3    0    0  0.58648576078E+01  0.12537547064E+02  0.40916795596E+01  0.14433588700E+02  0.00000000000E+00 0.  1.
</event>
<event>
 7    1  0.5417298E-010  0.4778729E+02  0.7816164E-02  0.1312668E+00
        -11   -1    0    0    0    0  0.00000000000E+00  0.00000000000E+00  0.45593999997E+02  0.45594000000E+02  0.51100000000E-03 0.  1.
         11   -1    0    0    0    0 -0.00000000000E+00 -0.00000000000E+00 -0.45593999997E+02  0.45594000000E+02  0.51100000000E-03 0. -1.
    9900012    2    1    2    0    0 -0.43375101374E+02  0.14446573512E+01  0.36814905336E+00  0.47787285861E+02  0.20000067555E+02 0.  0.
         12    1    1    2    0    0  0.43375101374E+02 -0.14446573512E+01 -0.36814905336E+00  0.43400714139E+02  0.00000000000E+00 0. -1.
         11    1    3    3    0    0 -0.74297084078E+01  0.18391782313E+01  0.51590129604E+01  0.92303065267E+01  0.51100000000E-03 0. -1.
        -11    1    3    3    0    0 -0.69403048133E+00  0.15787378156E+01 -0.26805913424E+01  0.31874224078E+01  0.51100000000E-03 0.  1.
        -12    1    3    3    0    0 -0.35251362484E+02 -0.19732586958E+01 -0.21102725646E+01  0.35369556927E+02  0.00000000000E+00 0.  1.
</event>
<event>
 7    1  0.5417298E-010  0.4778725E+02  0.7816164E-02  0.1312668E+00
        -11   -1    0    0    0    0  0.00000000000E+00  0.00000000000E+00  0.45593999997E+02  0.45594000000E+02  0.51100000000E-03 0.  1.
         11   -1    0    0    0    0 -0.00000000000E+00 -0.00000000000E+00 -0.45593999997E+02  0.45594000000E+02  0.51100000000E-03 0. -1.
    9900012    2    1    2    0    0  0.67588505550E+01 -0.42339702686E+02  0.67299796891E+01  0.47787249880E+02  0.19999903502E+02 0.  0.
         12    1    1    2    0    0 -0.67588505550E+01  0.42339702686E+02 -0.67299796891E+01  0.43400750120E+02  0.00000000000E+00 0. -1.
         11    1    3    3    0    0  0.24078522398E+01 -0.39830646570E+01  0.45490038730E+01  0.65081481981E+01  0.51100000000E-03 0.  1.
        -11    1    3    3    0    0 -0.10572759039E+01 -0.37045531727E+00  0.26820009319E+01  0.29065785279E+01  0.51100000000E-03 0. -1.
        -12    1    3    3    0    0  0.54082742190E+01 -0.37986182712E+02 -0.50102511578E+00  0.38372523154E+02  0.00000000000E+00 0.  1.
</event>
<event>
 7    1  0.5417298E-010  0.4778728E+02  0.7816164E-02  0.1312668E+00
        -11   -1    0    0    0    0  0.00000000000E+00  0.00000000000E+00  0.45593999997E+02  0.45594000000E+02  0.51100000000E-03 0. -1.
         11   -1    0    0    0    0 -0.00000000000E+00 -0.00000000000E+00 -0.45593999997E+02  0.45594000000E+02  0.51100000000E-03 0.  1.
    9900012    2    1    2    0    0 -0.21677585776E+02  0.59631406722E+01  0.37123387672E+02  0.47787277840E+02  0.20000030982E+02 0.  0.
         12    1    1    2    0    0  0.21677585776E+02 -0.59631406722E+01 -0.37123387672E+02  0.43400722160E+02  0.00000000000E+00 0. -1.
         11    1    3    3    0    0 -0.21642659928E+00  0.76535406934E+01  0.10438134711E+02  0.12945199192E+02  0.51100000000E-03 0. -1.
        -11    1    3    3    0    0 -0.58563446080E+01  0.10782087383E+01  0.40170627083E+01  0.71830424831E+01  0.51100000000E-03 0.  1.
         12    1    3    3    0    0 -0.15604814569E+02 -0.27686087595E+01  0.22668190253E+02  0.27659036165E+02  0.00000000000E+00 0. -1.
</event>
<event>
 7    1  0.5417298E-010  0.4778727E+02  0.7816164E-02  0.1312668E+00
        -11   -1    0    0    0    0  0.00000000000E+00  0.00000000000E+00  0.45593999997E+02  0.45594000000E+02  0.51100000000E-03 0.  1.
         11   -1    0    0    0    0 -0.00000000000E+00 -0.00000000000E+00 -0.45593999997E+02  0.45594000000E+02  0.51100000000E-03 0. -1.
    9900012    2    1    2    0    0 -0.61420830928E+00  0.42020919159E+02 -0.10839199837E+02  0.47787272450E+02  0.20000006408E+02 0.  0.
         12    1    1    2    0    0  0.61420830928E+00 -0.42020919159E+02  0.10839199837E+02  0.43400727550E+02  0.00000000000E+00 0. -1.
         11    1    3    3    0    0 -0.52855103078E+01  0.64967105893E+01 -0.45427343415E+01  0.95278698172E+01  0.51100000000E-03 0. -1.
        -11    1    3    3    0    0 -0.91723979022E-01  0.26740607929E+02 -0.84382115530E+01  0.28040541011E+02  0.51100000000E-03 0.  1.
         12    1    3    3    0    0  0.47630259775E+01  0.87836006402E+01  0.21417460577E+01  0.10218861622E+02  0.00000000000E+00 0. -1.
</event>
<event>
 7    1  0.5417298E-010  0.4778727E+02  0.7816164E-02  0.1312668E+00
        -11   -1    0    0    0    0  0.00000000000E+00  0.00000000000E+00  0.45593999997E+02  0.45594000000E+02  0.51100000000E-03 0.  1.
         11   -1    0    0    0    0 -0.00000000000E+00 -0.00000000000E+00 -0.45593999997E+02  0.45594000000E+02  0.51100000000E-03 0. -1.
    9900012    2    1    2    0    0  0.23836268440E+02  0.59273795752E+01  0.35781583771E+02  0.47787271217E+02  0.20000000785E+02 0.  0.
         12    1    1    2    0    0 -0.23836268440E+02 -0.59273795752E+01 -0.35781583771E+02  0.43400728783E+02  0.00000000000E+00 0. -1.
         11    1    3    3    0    0  0.10465266300E+02  0.42334309821E+01  0.46295880099E+01  0.12201509006E+02  0.51100000000E-03 0. -1.
        -11    1    3    3    0    0  0.35803427700E+01 -0.31909486943E+01  0.37755542019E+01  0.61037543949E+01  0.51100000000E-03 0.  1.
        -12    1    3    3    0    0  0.97906593696E+01  0.48848972874E+01  0.27376441559E+02  0.29482007816E+02  0.00000000000E+00 0.  1.
</event>
<event>
 7    1  0.5417298E-010  0.4778727E+02  0.7816164E-02  0.1312668E+00
        -11   -1    0    0    0    0  0.00000000000E+00  0.00000000000E+00  0.45593999997E+02  0.45594000000E+02  0.51100000000E-03 0. -1.
         11   -1    0    0    0    0 -0.00000000000E+00 -0.00000000000E+00 -0.45593999997E+02  0.45594000000E+02  0.51100000000E-03 0.  1.
    9900012    2    1    2    0    0  0.40134574890E+02 -0.12128873113E+02  0.11212941898E+02  0.47787265783E+02  0.19999976011E+02 0.  0.
         12    1    1    2    0    0 -0.40134574890E+02  0.12128873113E+02 -0.11212941898E+02  0.43400734217E+02  0.00000000000E+00 0. -1.
         11    1    3    3    0    0  0.17975673906E+02 -0.48045390649E+01  0.91429279611E+01  0.20731656469E+02  0.51100000000E-03 0. -1.
        -11    1    3    3    0    0  0.19199936473E+02 -0.10322697997E+02  0.44044155866E+01  0.22239481366E+02  0.51100000000E-03 0.  1.
         12    1    3    3    0    0  0.29589645102E+01  0.29983639490E+01 -0.23344016495E+01  0.48161279473E+01  0.00000000000E+00 0. -1.
</event>
<event>
 7    1  0.5417298E-010  0.4778729E+02  0.7816164E-02  0.1312668E+00
        -11   -1    0    0    0    0  0.00000000000E+00  0.00000000000E+00  0.45593999997E+02  0.45594000000E+02  0.51100000000E-03 0.  1.
         11   -1    0    0    0    0 -0.00000000000E+00 -0.00000000000E+00 -0.45593999997E+02  0.45594000000E+02  0.51100000000E-03 0. -1.
    9900012    2    1    2    0    0  0.40094514295E+01 -0.31043731887E+02  0.30063812325E+02  0.47787288004E+02  0.20000077327E+02 0.  0.
         12    1    1    2    0    0 -0.40094514295E+01  0.31043731887E+02 -0.30063812325E+02  0.43400711996E+02  0.00000000000E+00 0. -1.
         11    1    3    3    0    0  0.64284188109E+01 -0.21504559149E+01  0.37336828435E+01  0.77388252912E+01  0.51100000000E-03 0. -1.
        -11    1    3    3    0    0  0.93934902425E+00 -0.26783349796E+01  0.62241583625E+01  0.68407603696E+01  0.51100000000E-03 0.  1.
        -12    1    3    3    0    0 -0.33583164056E+01 -0.26214940992E+02  0.20105971119E+02  0.33207702344E+02  0.00000000000E+00 0.  1.
</event>
<event>
 7    1  0.5417298E-010  0.4778727E+02  0.7816164E-02  0.1312668E+00
        -11   -1    0    0    0    0  0.00000000000E+00  0.00000000000E+00  0.45593999997E+02  0.45594000000E+02  0.51100000000E-03 0.  1.
         11   -1    0    0    0    0 -0.00000000000E+00 -0.00000000000E+00 -0.45593999997E+02  0.45594000000E+02  0.51100000000E-03 0. -1.
    9900012    2    1    2    0    0  0.33194444148E+02  0.97562377515E-02  0.27959831758E+02  0.47787269483E+02  0.19999992881E+02 0.  0.
         12    1    1    2    0    0 -0.33194444148E+02 -0.97562377515E-02 -0.27959831758E+02  0.43400730517E+02  0.00000000000E+00 0. -1.
         11    1    3    3    0    0  0.11992900358E+01 -0.19373565121E+01  0.10442637800E+02  0.10688326872E+02  0.51100000000E-03 0. -1.
        -11    1    3    3    0    0  0.64027452981E+01  0.14765985867E+00  0.66625918588E+01  0.92415951721E+01  0.51100000000E-03 0.  1.
         12    1    3    3    0    0  0.25592408814E+02  0.17994528912E+01  0.10854602100E+02  0.27857347439E+02  0.00000000000E+00 0. -1.
</event>
<event>
 7    1  0.5417298E-010  0.4778727E+02  0.7816164E-02  0.1312668E+00
        -11   -1    0    0    0    0  0.00000000000E+00  0.00000000000E+00  0.45593999997E+02  0.45594000000E+02  0.51100000000E-03 0. -1.
         11   -1    0    0    0    0 -0.00000000000E+00 -0.00000000000E+00 -0.45593999997E+02  0.45594000000E+02  0.51100000000E-03 0.  1.
    9900012    2    1    2    0    0  0.40667508852E+02  0.22083937589E+01 -0.14996667082E+02  0.47787270712E+02  0.19999998482E+02 0.  0.
         12    1    1    2    0    0 -0.40667508852E+02 -0.22083937589E+01  0.14996667082E+02  0.43400729288E+02  0.00000000000E+00 0. -1.
         11    1    3    3    0    0  0.88869227890E+00 -0.44221649311E+00 -0.38126004489E+01  0.39397019985E+01  0.51100000000E-03 0. -1.
        -11    1    3    3    0    0  0.18559764995E+02 -0.50725069540E+01 -0.87476131779E+01  0.21135655656E+02  0.51100000000E-03 0.  1.
         12    1    3    3    0    0  0.21219051578E+02  0.77231172060E+01 -0.24364534555E+01  0.22711913057E+02  0.00000000000E+00 0. -1.
</event>
<event>
 7    1  0.5417298E-010  0.4778727E+02  0.7816164E-02  0.1312668E+00
        -11   -1    0    0    0    0  0.00000000000E+00  0.00000000000E+00  0.45593999997E+02  0.45594000000E+02  0.51100000000E-03 0. -1.
         11   -1    0    0    0    0 -0.00000000000E+00 -0.00000000000E+00 -0.45593999997E+02  0.45594000000E+02  0.51100000000E-03 0.  1.
    9900012    2    1    2    0    0 -0.10426110444E+02 -0.37426193466E+02 -0.19344239767E+02  0.47787270185E+02  0.19999996081E+02 0.  0.
         12    1    1    2    0    0  0.10426110444E+02  0.37426193466E+02  0.19344239767E+02  0.43400729815E+02  0.00000000000E+00 0. -1.
         11    1    3    3    0    0 -0.64887604174E+01 -0.12873352930E+02 -0.32445508309E+01  0.14776817579E+02  0.51100000000E-03 0. -1.
        -11    1    3    3    0    0 -0.52732989688E+01 -0.16313249874E+01 -0.52416172607E+01  0.76120598393E+01  0.51100000000E-03 0.  1.
        -12    1    3    3    0    0  0.13359489418E+01 -0.22921515549E+02 -0.10858071675E+02  0.25398392766E+02  0.00000000000E+00 0.  1.
</event>
<event>
 7    1  0.5417298E-010  0.4778727E+02  0.7816164E-02  0.1312668E+00
        -11   -1    0    0    0    0  0.00000000000E+00  0.00000000000E+00  0.45593999997E+02  0.45594000000E+02  0.51100000000E-03 0.  1.
         11   -1    0    0    0    0 -0.00000000000E+00 -0.00000000000E+00 -0.45593999997E+02  0.45594000000E+02  0.51100000000E-03 0. -1.
    9900012    2    1    2    0    0 -0.65961317045E+01 -0.35576259386E+02  0.23967560838E+02  0.47787272381E+02  0.20000006092E+02 0.  0.
         12    1    1    2    0    0  0.65961317045E+01  0.35576259386E+02 -0.23967560838E+02  0.43400727619E+02  0.00000000000E+00 0. -1.
         11    1    3    3    0    0 -0.93346949838E+00 -0.51698975413E+01  0.10832121050E+02  0.12038855951E+02  0.51100000000E-03 0. -1.
        -11    1    3    3    0    0  0.38785191391E+01 -0.87868602237E+01  0.33690072820E+01  0.10178508419E+02  0.51100000000E-03 0.  1.
         12    1    3    3    0    0 -0.95411813452E+01 -0.21619501621E+02  0.97664325052E+01  0.25569908011E+02  0.00000000000E+00 0. -1.
</event>
<event>
 7    1  0.5417298E-010  0.4778727E+02  0.7816164E-02  0.1312668E+00
        -11   -1    0    0    0    0  0.00000000000E+00  0.00000000000E+00  0.45593999997E+02  0.45594000000E+02  0.51100000000E-03 0.  1.
         11   -1    0    0    0    0 -0.00000000000E+00 -0.00000000000E+00 -0.45593999997E+02  0.45594000000E+02  0.51100000000E-03 0. -1.
    9900012    2    1    2    0    0 -0.41345160506E+02  0.12248070395E+02  0.49178852598E+01  0.47787272805E+02  0.20000008026E+02 0.  0.
         12    1    1    2    0    0  0.41345160506E+02 -0.12248070395E+02 -0.49178852598E+01  0.43400727195E+02  0.00000000000E+00 0. -1.
         11    1    3    3    0    0 -0.57371072928E+00 -0.21757979377E+00  0.16149826355E+01  0.17276151602E+01  0.51100000000E-03 0. -1.
        -11    1    3    3    0    0 -0.21564258667E+02  0.14499586300E+02  0.56804267972E+01  0.26599295171E+02  0.51100000000E-03 0.  1.
         12    1    3    3    0    0 -0.19207191109E+02 -0.20339361112E+01 -0.23775241729E+01  0.19460362474E+02  0.00000000000E+00 0. -1.
</event>
<event>
 7    1  0.5417298E-010  0.4778726E+02  0.7816164E-02  0.1312668E+00
        -11   -1    0    0    0    0  0.00000000000E+00  0.00000000000E+00  0.45593999997E+02  0.45594000000E+02  0.51100000000E-03 0.  1.
         11   -1    0    0    0    0 -0.00000000000E+00 -0.00000000000E+00 -0.45593999997E+02  0.45594000000E+02  0.51100000000E-03 0. -1.
    9900012    2    1    2    0    0  0.33164375154E+02 -0.20315446050E+02 -0.19262161895E+02  0.47787262582E+02  0.19999961417E+02 0.  0.
         12    1    1    2    0    0 -0.33164375154E+02  0.20315446050E+02  0.19262161895E+02  0.43400737418E+02  0.00000000000E+00 0. -1.
         11    1    3    3    0    0 -0.12309896265E+01 -0.36508143935E+01  0.98031163365E+00  0.39755241612E+01  0.51100000000E-03 0. -1.
        -11    1    3    3    0    0  0.86532719691E+01 -0.97478385289E+00 -0.46010023025E+01  0.98487837716E+01  0.51100000000E-03 0.  1.
         12    1    3    3    0    0  0.25742092811E+02 -0.15689847803E+02 -0.15641471226E+02  0.33962954649E+02  0.00000000000E+00 0. -1.
</event>
<event>
 7    1  0.5417298E-010  0.4778727E+02  0.7816164E-02  0.1312668E+00
        -11   -1    0    0    0    0  0.00000000000E+00  0.00000000000E+00  0.45593999997E+02  0.45594000000E+02  0.51100000000E-03 0. -1.
         11   -1    0    0    0    0 -0.00000000000E+00 -0.00000000000E+00 -0.45593999997E+02  0.45594000000E+02  0.51100000000E-03 0.  1.
    9900012    2    1    2    0    0  0.36383443525E+02 -0.22729090390E+02  0.65769828324E+01  0.47787271713E+02  0.20000003048E+02 0.  0.
         12    1    1    2    0    0 -0.36383443525E+02  0.22729090390E+02 -0.65769828324E+01  0.43400728287E+02  0.00000000000E+00 0. -1.
         11    1    3    3    0    0 -0.83171100909E+00 -0.28853760805E+01  0.20112458751E+01  0.36141732886E+01  0.51100000000E-03 0. -1.
        -11    1    3    3    0    0  0.62850055157E+01 -0.31214486577E+01 -0.38704248025E+01  0.80140454496E+01  0.51100000000E-03 0.  1.
        -12    1    3    3    0    0  0.30930149018E+02 -0.16722265652E+02  0.84361617598E+01  0.36159052975E+02  0.00000000000E+00 0.  1.
</event>
<event>
 7    1  0.5417298E-010  0.4778727E+02  0.7816164E-02  0.1312668E+00
        -11   -1    0    0    0    0  0.00000000000E+00  0.00000000000E+00  0.45593999997E+02  0.45594000000E+02  0.51100000000E-03 0.  1.
         11   -1    0    0    0    0 -0.00000000000E+00 -0.00000000000E+00 -0.45593999997E+02  0.45594000000E+02  0.51100000000E-03 0. -1.
    9900012    2    1    2    0    0  0.96947274243E+01 -0.83600800455E+01  0.41469802999E+02  0.47787271447E+02  0.20000001834E+02 0.  0.
         12    1    1    2    0    0 -0.96947274243E+01  0.83600800455E+01 -0.41469802999E+02  0.43400728553E+02  0.00000000000E+00 0. -1.
         11    1    3    3    0    0  0.39639745076E+01 -0.11636339156E+02  0.22061673821E+02  0.25255394174E+02  0.51100000000E-03 0. -1.
        -11    1    3    3    0    0  0.19798226590E+01 -0.98895051887E+00 -0.98363732842E-01  0.22152644481E+01  0.51100000000E-03 0.  1.
        -12    1    3    3    0    0  0.37509302577E+01  0.42652096296E+01  0.19506492911E+02  0.20316612825E+02  0.00000000000E+00 0.  1.
</event>
<event>
 7    1  0.5417298E-010  0.4778727E+02  0.7816164E-02  0.1312668E+00
        -11   -1    0    0    0    0  0.00000000000E+00  0.00000000000E+00  0.45593999997E+02  0.45594000000E+02  0.51100000000E-03 0.  1.
         11   -1    0    0    0    0 -0.00000000000E+00 -0.00000000000E+00 -0.45593999997E+02  0.45594000000E+02  0.51100000000E-03 0. -1.
    9900012    2    1    2    0    0 -0.16550191742E+02 -0.60578061804E+01  0.39661287266E+02  0.47787267633E+02  0.19999984446E+02 0.  0.
         12    1    1    2    0    0  0.16550191742E+02  0.60578061804E+01 -0.39661287266E+02  0.43400732367E+02  0.00000000000E+00 0. -1.
         11    1    3    3    0    0  0.42640653220E+00 -0.42961282195E+01  0.14451257892E+02  0.15082353767E+02  0.51100000000E-03 0. -1.
        -11    1    3    3    0    0 -0.26451460534E+01 -0.50057526242E+01  0.10406035513E+02  0.11846515620E+02  0.51100000000E-03 0.  1.
        -12    1    3    3    0    0 -0.14331452221E+02  0.32440746633E+01  0.14803993860E+02  0.20858398246E+02  0.00000000000E+00 0.  1.
</event>
<event>
 7    1  0.5417298E-010  0.4778727E+02  0.7816164E-02  0.1312668E+00
        -11   -1    0    0    0    0  0.00000000000E+00  0.00000000000E+00  0.45593999997E+02  0.45594000000E+02  0.51100000000E-03 0. -1.
         11   -1    0    0    0    0 -0.00000000000E+00 -0.00000000000E+00 -0.45593999997E+02  0.45594000000E+02  0.51100000000E-03 0.  1.
    9900012    2    1    2    0    0  0.73385223457E+00  0.13877467473E+02 -0.41115697018E+02  0.47787272082E+02  0.20000004729E+02 0.  0.
         12    1    1    2    0    0 -0.73385223457E+00 -0.13877467473E+02  0.41115697018E+02  0.43400727918E+02  0.00000000000E+00 0. -1.
         11    1    3    3    0    0 -0.34861005798E+01  0.80162704754E+01 -0.34947785501E+01  0.94141896604E+01  0.51100000000E-03 0. -1.
        -11    1    3    3    0    0  0.25980576179E-01  0.36243375051E+00 -0.57026303946E+01  0.57141952095E+01  0.51100000000E-03 0.  1.
         12    1    3    3    0    0  0.41939722382E+01  0.54987632476E+01 -0.31918288073E+02  0.32658887212E+02  0.00000000000E+00 0. -1.
</event>
<event>
 7    1  0.5417298E-010  0.4778728E+02  0.7816164E-02  0.1312668E+00
        -11   -1    0    0    0    0  0.00000000000E+00  0.00000000000E+00  0.45593999997E+02  0.45594000000E+02  0.51100000000E-03 0.  1.
         11   -1    0    0    0    0 -0.00000000000E+00 -0.00000000000E+00 -0.45593999997E+02  0.45594000000E+02  0.51100000000E-03 0. -1.
    9900012    2    1    2    0    0  0.17377894938E+01 -0.13541234752E+02  0.41197544957E+02  0.47787278100E+02  0.20000032171E+02 0.  0.
         12    1    1    2    0    0 -0.17377894938E+01  0.13541234752E+02 -0.41197544957E+02  0.43400721900E+02  0.00000000000E+00 0. -1.
         11    1    3    3    0    0  0.97551956037E+00  0.15675664366E+01  0.10021690441E+02  0.10190347516E+02  0.51100000000E-03 0. -1.
        -11    1    3    3    0    0 -0.56060285081E+01 -0.12972582849E+02  0.23245280481E+02  0.27204016731E+02  0.51100000000E-03 0.  1.
         12    1    3    3    0    0  0.63682984416E+01 -0.21362183405E+01  0.79305740355E+01  0.10392913854E+02  0.00000000000E+00 0. -1.
</event>
<event>
 7    1  0.5417298E-010  0.4778727E+02  0.7816164E-02  0.1312668E+00
        -11   -1    0    0    0    0  0.00000000000E+00  0.00000000000E+00  0.45593999997E+02  0.45594000000E+02  0.51100000000E-03 0.  1.
         11   -1    0    0    0    0 -0.00000000000E+00 -0.00000000000E+00 -0.45593999997E+02  0.45594000000E+02  0.51100000000E-03 0. -1.
    9900012    2    1    2    0    0 -0.16511321168E+02 -0.65655549257E+01  0.39596626197E+02  0.47787273689E+02  0.20000012056E+02 0.  0.
         12    1    1    2    0    0  0.16511321168E+02  0.65655549257E+01 -0.39596626197E+02  0.43400726311E+02  0.00000000000E+00 0. -1.
         11    1    3    3    0    0 -0.59849972728E+00  0.26766861002E+01  0.61037048846E+01  0.66916413518E+01  0.51100000000E-03 0. -1.
        -11    1    3    3    0    0 -0.74249670647E+01 -0.94877430355E-01  0.24799386746E+02  0.25887230846E+02  0.51100000000E-03 0.  1.
        -12    1    3    3    0    0 -0.84878543756E+01 -0.91473635955E+01  0.86935345661E+01  0.15208401491E+02  0.00000000000E+00 0.  1.
</event>
<event>
 7    1  0.5417298E-010  0.4778727E+02  0.7816164E-02  0.1312668E+00
        -11   -1    0    0    0    0  0.00000000000E+00  0.00000000000E+00  0.45593999997E+02  0.45594000000E+02  0.51100000000E-03 0. -1.
         11   -1    0    0    0    0 -0.00000000000E+00 -0.00000000000E+00 -0.45593999997E+02  0.45594000000E+02  0.51100000000E-03 0.  1.
    9900012    2    1    2    0    0  0.12632328653E+02  0.32956996008E+02 -0.25256366064E+02  0.47787270285E+02  0.19999996536E+02 0.  0.
         12    1    1    2    0    0 -0.12632328653E+02 -0.32956996008E+02  0.25256366064E+02  0.43400729715E+02  0.00000000000E+00 0. -1.
         11    1    3    3    0    0  0.18207915831E+01 -0.73403584681E+00 -0.14086576844E+01  0.24162796499E+01  0.51100000000E-03 0. -1.
        -11    1    3    3    0    0 -0.39491162702E+01  0.58937347423E+01 -0.37011959337E+01  0.80019047813E+01  0.51100000000E-03 0.  1.
        -12    1    3    3    0    0  0.14760653340E+02  0.27797297113E+02 -0.20146512445E+02  0.37369085853E+02  0.00000000000E+00 0.  1.
</event>
<event>
 7    1  0.5417298E-010  0.4778727E+02  0.7816164E-02  0.1312668E+00
        -11   -1    0    0    0    0  0.00000000000E+00  0.00000000000E+00  0.45593999997E+02  0.45594000000E+02  0.51100000000E-03 0. -1.
         11   -1    0    0    0    0 -0.00000000000E+00 -0.00000000000E+00 -0.45593999997E+02  0.45594000000E+02  0.51100000000E-03 0.  1.
    9900012    2    1    2    0    0  0.42748036627E+02  0.70108340863E+01 -0.26601753865E+01  0.47787274624E+02  0.20000016323E+02 0.  0.
         12    1    1    2    0    0 -0.42748036627E+02 -0.70108340863E+01  0.26601753865E+01  0.43400725376E+02  0.00000000000E+00 0. -1.
         11    1    3    3    0    0  0.17877305381E+02  0.78674732382E+01 -0.35729583921E+01  0.19856012056E+02  0.51100000000E-03 0. -1.
        -11    1    3    3    0    0  0.17076840801E+02  0.51369471521E+01  0.23783875019E+01  0.17990648825E+02  0.51100000000E-03 0.  1.
        -12    1    3    3    0    0  0.77938904455E+01 -0.59935863040E+01 -0.14656044963E+01  0.99406137435E+01  0.00000000000E+00 0.  1.
</event>
<event>
 7    1  0.5417298E-010  0.4778726E+02  0.7816164E-02  0.1312668E+00
        -11   -1    0    0    0    0  0.00000000000E+00  0.00000000000E+00  0.45593999997E+02  0.45594000000E+02  0.51100000000E-03 0. -1.
         11   -1    0    0    0    0 -0.00000000000E+00 -0.00000000000E+00 -0.45593999997E+02  0.45594000000E+02  0.51100000000E-03 0.  1.
    9900012    2    1    2    0    0 -0.98147205057E+01  0.39340977515E+02  0.15478459039E+02  0.47787263316E+02  0.19999964764E+02 0.  0.
         12    1    1    2    0    0  0.98147205057E+01 -0.39340977515E+02 -0.15478459039E+02  0.43400736684E+02  0.00000000000E+00 0. -1.
         11    1    3    3    0    0  0.27186256468E+01  0.12570199657E+02  0.87039102244E+01  0.15529291622E+02  0.51100000000E-03 0. -1.
        -11    1    3    3    0    0 -0.37503174495E+00  0.16103802831E+01 -0.23398148055E+01  0.28650841264E+01  0.51100000000E-03 0.  1.
        -12    1    3    3    0    0 -0.12158314408E+02  0.25160397575E+02  0.91143636201E+01  0.29392887568E+02  0.00000000000E+00 0.  1.
</event>
<event>
 7    1  0.5417298E-010  0.4778727E+02  0.7816164E-02  0.1312668E+00
        -11   -1    0    0    0    0  0.00000000000E+00  0.00000000000E+00  0.45593999997E+02  0.45594000000E+02  0.51100000000E-03 0. -1.
         11   -1    0    0    0    0 -0.00000000000E+00 -0.00000000000E+00 -0.45593999997E+02  0.45594000000E+02  0.51100000000E-03 0.  1.
    9900012    2    1    2    0    0 -0.11287672964E+02 -0.40317256766E+02  0.11433757888E+02  0.47787267592E+02  0.19999984259E+02 0.  0.
         12    1    1    2    0    0  0.11287672964E+02  0.40317256766E+02 -0.11433757888E+02  0.43400732408E+02  0.00000000000E+00 0. -1.
         11    1    3    3    0    0 -0.75333490946E+01 -0.20669166963E+02  0.62529154746E+01  0.22870609168E+02  0.51100000000E-03 0. -1.
        -11    1    3    3    0    0 -0.83505876528E+01 -0.15857706168E+02  0.16654583833E+01  0.17999247510E+02  0.51100000000E-03 0.  1.
         12    1    3    3    0    0  0.45962637831E+01 -0.37903836359E+01  0.35153840298E+01  0.69174109137E+01  0.00000000000E+00 0. -1.
</event>
<event>
 7    1  0.5417298E-010  0.4778726E+02  0.7816164E-02  0.1312668E+00
        -11   -1    0    0    0    0  0.00000000000E+00  0.00000000000E+00  0.45593999997E+02  0.45594000000E+02  0.51100000000E-03 0. -1.
         11   -1    0    0    0    0 -0.00000000000E+00 -0.00000000000E+00 -0.45593999997E+02  0.45594000000E+02  0.51100000000E-03 0.  1.
    9900012    2    1    2    0    0 -0.12774842511E+02  0.11247363858E+02 -0.39923980362E+02  0.47787262646E+02  0.19999961708E+02 0.  0.
         12    1    1    2    0    0  0.12774842511E+02 -0.11247363858E+02  0.39923980362E+02  0.43400737354E+02  0.00000000000E+00 0. -1.
         11    1    3    3    0    0  0.29205255408E+01  0.23372542747E+01 -0.14042891117E+02  0.14532550298E+02  0.51100000000E-03 0. -1.
        -11    1    3    3    0    0 -0.19997961265E+01  0.63978952816E+01 -0.10948427516E+02  0.12837457455E+02  0.51100000000E-03 0.  1.
        -12    1    3    3    0    0 -0.13695571925E+02  0.25122143018E+01 -0.14932661729E+02  0.20417254893E+02  0.00000000000E+00 0.  1.
</event>
<event>
 7    1  0.5417298E-010  0.4778727E+02  0.7816164E-02  0.1312668E+00
        -11   -1    0    0    0    0  0.00000000000E+00  0.00000000000E+00  0.45593999997E+02  0.45594000000E+02  0.51100000000E-03 0.  1.
         11   -1    0    0    0    0 -0.00000000000E+00 -0.00000000000E+00 -0.45593999997E+02  0.45594000000E+02  0.51100000000E-03 0. -1.
    9900012    2    1    2    0    0 -0.16427056445E+01 -0.35798627537E+02 -0.24482306736E+02  0.47787267766E+02  0.19999985053E+02 0.  0.
         12    1    1    2    0    0  0.16427056445E+01  0.35798627537E+02  0.24482306736E+02  0.43400732234E+02  0.00000000000E+00 0. -1.
         11    1    3    3    0    0 -0.62720952088E+00 -0.97213193481E+00 -0.63780547427E-01  0.11586632389E+01  0.51100000000E-03 0. -1.
        -11    1    3    3    0    0  0.49496263069E+01 -0.30870947936E+02 -0.14672978285E+02  0.34537089035E+02  0.51100000000E-03 0.  1.
         12    1    3    3    0    0 -0.59651224306E+01 -0.39555476662E+01 -0.97455479035E+01  0.12091515492E+02  0.00000000000E+00 0. -1.
</event>
<event>
 7    1  0.5417298E-010  0.4778727E+02  0.7816164E-02  0.1312668E+00
        -11   -1    0    0    0    0  0.00000000000E+00  0.00000000000E+00  0.45593999997E+02  0.45594000000E+02  0.51100000000E-03 0.  1.
         11   -1    0    0    0    0 -0.00000000000E+00 -0.00000000000E+00 -0.45593999997E+02  0.45594000000E+02  0.51100000000E-03 0. -1.
    9900012    2    1    2    0    0 -0.69004751618E+01  0.23285705658E+02  0.35969188933E+02  0.47787271919E+02  0.20000003989E+02 0.  0.
         12    1    1    2    0    0  0.69004751618E+01 -0.23285705658E+02 -0.35969188933E+02  0.43400728081E+02  0.00000000000E+00 0. -1.
         11    1    3    3    0    0  0.43287256672E+01  0.51098186518E+01  0.10835310391E+02  0.12737820225E+02  0.51100000000E-03 0. -1.
        -11    1    3    3    0    0 -0.12191558125E+01  0.12526632911E+02  0.16067445881E+02  0.20409940969E+02  0.51100000000E-03 0.  1.
        -12    1    3    3    0    0 -0.10010045017E+02  0.56492540952E+01  0.90664326617E+01  0.14639510725E+02  0.00000000000E+00 0.  1.
</event>
<event>
 7    1  0.5417298E-010  0.4778726E+02  0.7816164E-02  0.1312668E+00
        -11   -1    0    0    0    0  0.00000000000E+00  0.00000000000E+00  0.45593999997E+02  0.45594000000E+02  0.51100000000E-03 0.  1.
         11   -1    0    0    0    0 -0.00000000000E+00 -0.00000000000E+00 -0.45593999997E+02  0.45594000000E+02  0.51100000000E-03 0. -1.
    9900012    2    1    2    0    0  0.32064673149E+01 -0.12243419024E+02  0.41514352084E+02  0.47787260709E+02  0.19999952877E+02 0.  0.
         12    1    1    2    0    0 -0.32064673149E+01  0.12243419024E+02 -0.41514352084E+02  0.43400739291E+02  0.00000000000E+00 0. -1.
         11    1    3    3    0    0 -0.89011569927E+00 -0.17015301546E+01  0.91951139561E-01  0.19224895574E+01  0.51100000000E-03 0. -1.
        -11    1    3    3    0    0  0.45030864233E+01 -0.14276617523E+02  0.37755747774E+02  0.40615219875E+02  0.51100000000E-03 0.  1.
        -12    1    3    3    0    0 -0.40650340913E+00  0.37347286537E+01  0.36666531705E+01  0.52495512771E+01  0.00000000000E+00 0.  1.
</event>
<event>
 7    1  0.5417298E-010  0.4778727E+02  0.7816164E-02  0.1312668E+00
        -11   -1    0    0    0    0  0.00000000000E+00  0.00000000000E+00  0.45593999997E+02  0.45594000000E+02  0.51100000000E-03 0.  1.
         11   -1    0    0    0    0 -0.00000000000E+00 -0.00000000000E+00 -0.45593999997E+02  0.45594000000E+02  0.51100000000E-03 0. -1.
    9900012    2    1    2    0    0  0.21005362512E+02  0.37697319730E+02  0.46163051949E+01  0.47787269099E+02  0.19999991130E+02 0.  0.
         12    1    1    2    0    0 -0.21005362512E+02 -0.37697319730E+02 -0.46163051949E+01  0.43400730901E+02  0.00000000000E+00 0. -1.
         11    1    3    3    0    0  0.96789273144E+00  0.23149096908E+01 -0.40325950845E+01  0.47494680326E+01  0.51100000000E-03 0. -1.
        -11    1    3    3    0    0  0.12055874181E+01  0.46288239384E+01  0.47920522422E+01  0.67707619237E+01  0.51100000000E-03 0.  1.
         12    1    3    3    0    0  0.18831882362E+02  0.30753586101E+02  0.38568480373E+01  0.36267039143E+02  0.00000000000E+00 0. -1.
</event>
<event>
 7    1  0.5417298E-010  0.4778727E+02  0.7816164E-02  0.1312668E+00
        -11   -1    0    0    0    0  0.00000000000E+00  0.00000000000E+00  0.45593999997E+02  0.45594000000E+02  0.51100000000E-03 0.  1.
         11   -1    0    0    0    0 -0.00000000000E+00 -0.00000000000E+00 -0.45593999997E+02  0.45594000000E+02  0.51100000000E-03 0. -1.
    9900012    2    1    2    0    0  0.21988501606E+02  0.32100790421E+02  0.19226762947E+02  0.47787270030E+02  0.19999995374E+02 0.  0.
         12    1    1    2    0    0 -0.21988501606E+02 -0.32100790421E+02 -0.19226762947E+02  0.43400729970E+02  0.00000000000E+00 0. -1.
         11    1    3    3    0    0  0.62479394113E+01  0.21232105567E+01  0.69716600227E+01  0.95994173619E+01  0.51100000000E-03 0.  1.
        -11    1    3    3    0    0 -0.14942017906E+01  0.57146477947E+01  0.45204366446E+01  0.74380229985E+01  0.51100000000E-03 0. -1.
         12    1    3    3    0    0  0.17234763985E+02  0.24262932069E+02  0.77346662796E+01  0.30749829669E+02  0.00000000000E+00 0. -1.
</event>
<event>
 7    1  0.5417298E-010  0.4778727E+02  0.7816164E-02  0.1312668E+00
        -11   -1    0    0    0    0  0.00000000000E+00  0.00000000000E+00  0.45593999997E+02  0.45594000000E+02  0.51100000000E-03 0. -1.
         11   -1    0    0    0    0 -0.00000000000E+00 -0.00000000000E+00 -0.45593999997E+02  0.45594000000E+02  0.51100000000E-03 0.  1.
    9900012    2    1    2    0    0  0.43150653255E+02  0.23818215811E+01  0.39964425088E+01  0.47787268404E+02  0.19999987960E+02 0.  0.
         12    1    1    2    0    0 -0.43150653255E+02 -0.23818215811E+01 -0.39964425088E+01  0.43400731596E+02  0.00000000000E+00 0. -1.
         11    1    3    3    0    0  0.42756383467E+01  0.10019550031E+01  0.51081366900E+01  0.67363237604E+01  0.51100000000E-03 0.  1.
        -11    1    3    3    0    0  0.28650008240E+01  0.24985294496E+01  0.29272300804E+01  0.47978698749E+01  0.51100000000E-03 0. -1.
        -12    1    3    3    0    0  0.36010014084E+02 -0.11186628716E+01 -0.40389242615E+01  0.36253074768E+02  0.00000000000E+00 0.  1.
</event>
<event>
 7    1  0.5417298E-010  0.4778727E+02  0.7816164E-02  0.1312668E+00
        -11   -1    0    0    0    0  0.00000000000E+00  0.00000000000E+00  0.45593999997E+02  0.45594000000E+02  0.51100000000E-03 0.  1.
         11   -1    0    0    0    0 -0.00000000000E+00 -0.00000000000E+00 -0.45593999997E+02  0.45594000000E+02  0.51100000000E-03 0. -1.
    9900012    2    1    2    0    0 -0.82487036877E+01  0.41942228411E+02 -0.75120941903E+01  0.47787271945E+02  0.20000004104E+02 0.  0.
         12    1    1    2    0    0  0.82487036877E+01 -0.41942228411E+02  0.75120941903E+01  0.43400728055E+02  0.00000000000E+00 0. -1.
         11    1    3    3    0    0 -0.12698923893E+01  0.60283694218E+01  0.12134427260E+01  0.62790371935E+01  0.51100000000E-03 0. -1.
        -11    1    3    3    0    0 -0.94539457058E+00  0.81880964167E+00  0.36114003428E+01  0.38218363152E+01  0.51100000000E-03 0.  1.
         12    1    3    3    0    0 -0.60334167278E+01  0.35095049348E+02 -0.12336937259E+02  0.37686398436E+02  0.00000000000E+00 0. -1.
</event>
<event>
 7    1  0.5417298E-010  0.4778727E+02  0.7816164E-02  0.1312668E+00
        -11   -1    0    0    0    0  0.00000000000E+00  0.00000000000E+00  0.45593999997E+02  0.45594000000E+02  0.51100000000E-03 0.  1.
         11   -1    0    0    0    0 -0.00000000000E+00 -0.00000000000E+00 -0.45593999997E+02  0.45594000000E+02  0.51100000000E-03 0. -1.
    9900012    2    1    2    0    0  0.18794943761E+02  0.21022505916E+01  0.39063459853E+02  0.47787271155E+02  0.20000000505E+02 0.  0.
         12    1    1    2    0    0 -0.18794943761E+02 -0.21022505916E+01 -0.39063459853E+02  0.43400728845E+02  0.00000000000E+00 0. -1.
         11    1    3    3    0    0  0.31622407353E+00 -0.29430001785E+01 -0.10342198763E+01  0.31354200243E+01  0.51100000000E-03 0. -1.
        -11    1    3    3    0    0 -0.43714297710E-01  0.59338919849E+00  0.12952865660E+01  0.14254084432E+01  0.51100000000E-03 0.  1.
        -12    1    3    3    0    0  0.18522433986E+02  0.44518615716E+01  0.38802393164E+02  0.43226442688E+02  0.00000000000E+00 0.  1.
</event>
<event>
 7    1  0.5417298E-010  0.4778727E+02  0.7816164E-02  0.1312668E+00
        -11   -1    0    0    0    0  0.00000000000E+00  0.00000000000E+00  0.45593999997E+02  0.45594000000E+02  0.51100000000E-03 0. -1.
         11   -1    0    0    0    0 -0.00000000000E+00 -0.00000000000E+00 -0.45593999997E+02  0.45594000000E+02  0.51100000000E-03 0.  1.
    9900012    2    1    2    0    0 -0.86489661949E+00  0.31442275739E+02 -0.29904155037E+02  0.47787271455E+02  0.20000001870E+02 0.  0.
         12    1    1    2    0    0  0.86489661949E+00 -0.31442275739E+02  0.29904155037E+02  0.43400728545E+02  0.00000000000E+00 0. -1.
         11    1    3    3    0    0  0.34879443406E+01  0.49243126141E+01  0.20131675558E+00  0.60378091343E+01  0.51100000000E-03 0. -1.
        -11    1    3    3    0    0  0.27293189015E+01  0.15797004256E+02 -0.15544410312E+02  0.22329872757E+02  0.51100000000E-03 0.  1.
         12    1    3    3    0    0 -0.70821598616E+01  0.10720958869E+02 -0.14561061481E+02  0.19419589564E+02  0.00000000000E+00 0. -1.
</event>
<event>
 7    1  0.5417298E-010  0.4778727E+02  0.7816164E-02  0.1312668E+00
        -11   -1    0    0    0    0  0.00000000000E+00  0.00000000000E+00  0.45593999997E+02  0.45594000000E+02  0.51100000000E-03 0.  1.
         11   -1    0    0    0    0 -0.00000000000E+00 -0.00000000000E+00 -0.45593999997E+02  0.45594000000E+02  0.51100000000E-03 0. -1.
    9900012    2    1    2    0    0  0.42974380273E+02 -0.43952759564E+01  0.41842258280E+01  0.47787267790E+02  0.19999985160E+02 0.  0.
         12    1    1    2    0    0 -0.42974380273E+02  0.43952759564E+01 -0.41842258280E+01  0.43400732210E+02  0.00000000000E+00 0. -1.
         11    1    3    3    0    0  0.50092275694E+01  0.45675258416E+01  0.25852275628E+00  0.67839138728E+01  0.51100000000E-03 0. -1.
        -11    1    3    3    0    0  0.24050485604E+02 -0.72426910182E-01  0.87219254416E-01  0.24050752814E+02  0.51100000000E-03 0.  1.
        -12    1    3    3    0    0  0.13914667100E+02 -0.88903748878E+01  0.38384838173E+01  0.16952601103E+02  0.00000000000E+00 0.  1.
</event>
<event>
 7    1  0.5417298E-010  0.4778727E+02  0.7816164E-02  0.1312668E+00
        -11   -1    0    0    0    0  0.00000000000E+00  0.00000000000E+00  0.45593999997E+02  0.45594000000E+02  0.51100000000E-03 0. -1.
         11   -1    0    0    0    0 -0.00000000000E+00 -0.00000000000E+00 -0.45593999997E+02  0.45594000000E+02  0.51100000000E-03 0.  1.
    9900012    2    1    2    0    0  0.20278428047E+02 -0.34320329892E+02  0.17161688906E+02  0.47787271273E+02  0.20000001043E+02 0.  0.
         12    1    1    2    0    0 -0.20278428047E+02  0.34320329892E+02 -0.17161688906E+02  0.43400728727E+02  0.00000000000E+00 0. -1.
         11    1    3    3    0    0 -0.23202865052E+00  0.16258259473E+01  0.17616516340E+00  0.16517208395E+01  0.51100000000E-03 0. -1.
        -11    1    3    3    0    0  0.99986587991E+01 -0.79185916932E+01  0.30360853780E+01  0.13110876663E+02  0.51100000000E-03 0.  1.
        -12    1    3    3    0    0  0.10511797898E+02 -0.28027564146E+02  0.13949438364E+02  0.33024673771E+02  0.00000000000E+00 0.  1.
</event>
<event>
 7    1  0.5417298E-010  0.4778727E+02  0.7816164E-02  0.1312668E+00
        -11   -1    0    0    0    0  0.00000000000E+00  0.00000000000E+00  0.45593999997E+02  0.45594000000E+02  0.51100000000E-03 0. -1.
         11   -1    0    0    0    0 -0.00000000000E+00 -0.00000000000E+00 -0.45593999997E+02  0.45594000000E+02  0.51100000000E-03 0.  1.
    9900012    2    1    2    0    0 -0.25192456646E+02 -0.33203901491E+02 -0.12102243142E+02  0.47787271491E+02  0.20000002035E+02 0.  0.
         12    1    1    2    0    0  0.25192456646E+02  0.33203901491E+02  0.12102243142E+02  0.43400728509E+02  0.00000000000E+00 0. -1.
         11    1    3    3    0    0 -0.18650422177E+01 -0.25167741902E+01  0.25848615490E+01  0.40612860385E+01  0.51100000000E-03 0. -1.
        -11    1    3    3    0    0 -0.90722521236E+01 -0.61586124201E+01  0.14930152937E+01  0.11066316481E+02  0.51100000000E-03 0.  1.
         12    1    3    3    0    0 -0.14255162304E+02 -0.24528514880E+02 -0.16180119985E+02  0.32659668971E+02  0.00000000000E+00 0. -1.
</event>
<event>
 7    1  0.5417298E-010  0.4778727E+02  0.7816164E-02  0.1312668E+00
        -11   -1    0    0    0    0  0.00000000000E+00  0.00000000000E+00  0.45593999997E+02  0.45594000000E+02  0.51100000000E-03 0.  1.
         11   -1    0    0    0    0 -0.00000000000E+00 -0.00000000000E+00 -0.45593999997E+02  0.45594000000E+02  0.51100000000E-03 0. -1.
    9900012    2    1    2    0    0  0.52607745010E+01  0.27672530487E+02  0.33017847748E+02  0.47787274639E+02  0.20000016391E+02 0.  0.
         12    1    1    2    0    0 -0.52607745010E+01 -0.27672530487E+02 -0.33017847748E+02  0.43400725361E+02  0.00000000000E+00 0. -1.
         11    1    3    3    0    0  0.87996474610E+01  0.62481809224E+01  0.11620501497E+02  0.15859054688E+02  0.51100000000E-03 0. -1.
        -11    1    3    3    0    0  0.16641090886E+00  0.10499255843E+02  0.16128778103E+02  0.19245767046E+02  0.51100000000E-03 0.  1.
         12    1    3    3    0    0 -0.37052838689E+01  0.10925093721E+02  0.52685681482E+01  0.12682452905E+02  0.00000000000E+00 0. -1.
</event>
<event>
 7    1  0.5417298E-010  0.4778727E+02  0.7816164E-02  0.1312668E+00
        -11   -1    0    0    0    0  0.00000000000E+00  0.00000000000E+00  0.45593999997E+02  0.45594000000E+02  0.51100000000E-03 0.  1.
         11   -1    0    0    0    0 -0.00000000000E+00 -0.00000000000E+00 -0.45593999997E+02  0.45594000000E+02  0.51100000000E-03 0. -1.
    9900012    2    1    2    0    0  0.20835384801E+02  0.13753044927E+02  0.35501602722E+02  0.47787270739E+02  0.19999998608E+02 0.  0.
         12    1    1    2    0    0 -0.20835384801E+02 -0.13753044927E+02 -0.35501602722E+02  0.43400729261E+02  0.00000000000E+00 0. -1.
         11    1    3    3    0    0  0.48364366177E+01 -0.10553512671E+00  0.15339706759E+02  0.16084429133E+02  0.51100000000E-03 0. -1.
        -11    1    3    3    0    0  0.10693273190E+02  0.89556291162E+01  0.20115843424E+02  0.24478491402E+02  0.51100000000E-03 0.  1.
         12    1    3    3    0    0  0.53056749933E+01  0.49029509374E+01  0.46052537925E-01  0.72243502036E+01  0.00000000000E+00 0. -1.
</event>
<event>
 7    1  0.5417298E-010  0.4778733E+02  0.7816164E-02  0.1312667E+00
        -11   -1    0    0    0    0  0.00000000000E+00  0.00000000000E+00  0.45593999997E+02  0.45594000000E+02  0.51100000000E-03 0. -1.
         11   -1    0    0    0    0 -0.00000000000E+00 -0.00000000000E+00 -0.45593999997E+02  0.45594000000E+02  0.51100000000E-03 0.  1.
    9900012    2    1    2    0    0 -0.85330811250E+01  0.25694913520E+02 -0.33920137206E+02  0.47787334540E+02  0.20000289500E+02 0.  0.
         12    1    1    2    0    0  0.85330811250E+01 -0.25694913520E+02  0.33920137206E+02  0.43400665460E+02  0.00000000000E+00 0. -1.
         11    1    3    3    0    0 -0.21384643694E+01  0.96807179412E+00 -0.88993912923E+01  0.92037687114E+01  0.51100000000E-03 0. -1.
        -11    1    3    3    0    0  0.10095783760E+01  0.16970377047E+01  0.16522020809E+01  0.25746761827E+01  0.51100000000E-03 0.  1.
        -12    1    3    3    0    0 -0.74041951315E+01  0.23029804021E+02 -0.26672947995E+02  0.36008889646E+02  0.00000000000E+00 0.  1.
</event>
<event>
 7    1  0.5417298E-010  0.4778727E+02  0.7816164E-02  0.1312668E+00
        -11   -1    0    0    0    0  0.00000000000E+00  0.00000000000E+00  0.45593999997E+02  0.45594000000E+02  0.51100000000E-03 0.  1.
         11   -1    0    0    0    0 -0.00000000000E+00 -0.00000000000E+00 -0.45593999997E+02  0.45594000000E+02  0.51100000000E-03 0. -1.
    9900012    2    1    2    0    0 -0.47281763635E+01  0.12538471945E+02  0.41280194029E+02  0.47787270173E+02  0.19999996028E+02 0.  0.
         12    1    1    2    0    0  0.47281763635E+01 -0.12538471945E+02 -0.41280194029E+02  0.43400729827E+02  0.00000000000E+00 0. -1.
         11    1    3    3    0    0 -0.28419026145E+01  0.13834276373E+01  0.45811778567E+01  0.55657410391E+01  0.51100000000E-03 0. -1.
        -11    1    3    3    0    0 -0.76281471192E+01  0.12785973299E+02  0.27000317163E+02  0.30833210485E+02  0.51100000000E-03 0.  1.
         12    1    3    3    0    0  0.57418733703E+01 -0.16309289914E+01  0.96986990093E+01  0.11388318649E+02  0.00000000000E+00 0. -1.
</event>
<event>
 7    1  0.5417298E-010  0.4778727E+02  0.7816164E-02  0.1312668E+00
        -11   -1    0    0    0    0  0.00000000000E+00  0.00000000000E+00  0.45593999997E+02  0.45594000000E+02  0.51100000000E-03 0.  1.
         11   -1    0    0    0    0 -0.00000000000E+00 -0.00000000000E+00 -0.45593999997E+02  0.45594000000E+02  0.51100000000E-03 0. -1.
    9900012    2    1    2    0    0  0.24219821436E+02  0.33253474592E+02  0.13828585815E+02  0.47787272950E+02  0.20000008687E+02 0.  0.
         12    1    1    2    0    0 -0.24219821436E+02 -0.33253474592E+02 -0.13828585815E+02  0.43400727050E+02  0.00000000000E+00 0. -1.
         11    1    3    3    0    0  0.10907315413E+02  0.11878775156E+02  0.18304758939E+01  0.16230387272E+02  0.51100000000E-03 0. -1.
        -11    1    3    3    0    0  0.87844626912E+01  0.84332047474E+01 -0.15573341757E+01  0.12276441548E+02  0.51100000000E-03 0.  1.
         12    1    3    3    0    0  0.45280433322E+01  0.12941494688E+02  0.13555444097E+02  0.19280444130E+02  0.00000000000E+00 0. -1.
</event>
<event>
 7    1  0.5417298E-010  0.4778725E+02  0.7816164E-02  0.1312668E+00
        -11   -1    0    0    0    0  0.00000000000E+00  0.00000000000E+00  0.45593999997E+02  0.45594000000E+02  0.51100000000E-03 0.  1.
         11   -1    0    0    0    0 -0.00000000000E+00 -0.00000000000E+00 -0.45593999997E+02  0.45594000000E+02  0.51100000000E-03 0. -1.
    9900012    2    1    2    0    0  0.26665456612E+02  0.18367415290E+02  0.28900112192E+02  0.47787251095E+02  0.19999909044E+02 0.  0.
         12    1    1    2    0    0 -0.26665456612E+02 -0.18367415290E+02 -0.28900112192E+02  0.43400748905E+02  0.00000000000E+00 0. -1.
         11    1    3    3    0    0  0.99732793705E+01  0.29793656263E+00  0.45915182906E+01  0.10983492526E+02  0.51100000000E-03 0. -1.
        -11    1    3    3    0    0  0.96932554985E+01  0.44756874263E+01  0.16454226707E+02  0.19614600605E+02  0.51100000000E-03 0.  1.
         12    1    3    3    0    0  0.69989217430E+01  0.13593791301E+02  0.78543671949E+01  0.17189157964E+02  0.00000000000E+00 0. -1.
</event>
<event>
 7    1  0.5417298E-010  0.4778727E+02  0.7816164E-02  0.1312668E+00
        -11   -1    0    0    0    0  0.00000000000E+00  0.00000000000E+00  0.45593999997E+02  0.45594000000E+02  0.51100000000E-03 0.  1.
         11   -1    0    0    0    0 -0.00000000000E+00 -0.00000000000E+00 -0.45593999997E+02  0.45594000000E+02  0.51100000000E-03 0. -1.
    9900012    2    1    2    0    0  0.38986378991E+01  0.30272979227E+02  0.30854027865E+02  0.47787266317E+02  0.19999978444E+02 0.  0.
         12    1    1    2    0    0 -0.38986378991E+01 -0.30272979227E+02 -0.30854027865E+02  0.43400733683E+02  0.00000000000E+00 0. -1.
         11    1    3    3    0    0 -0.94393427624E+00  0.21499143660E+00 -0.11191649468E+01  0.14797850097E+01  0.51100000000E-03 0. -1.
        -11    1    3    3    0    0 -0.18317685576E+00  0.20743974461E+02  0.12711080986E+02  0.24329356965E+02  0.51100000000E-03 0.  1.
        -12    1    3    3    0    0  0.50257490311E+01  0.93140133289E+01  0.19262111826E+02  0.21978124342E+02  0.00000000000E+00 0.  1.
</event>
<event>
 7    1  0.5417298E-010  0.4778728E+02  0.7816164E-02  0.1312668E+00
        -11   -1    0    0    0    0  0.00000000000E+00  0.00000000000E+00  0.45593999997E+02  0.45594000000E+02  0.51100000000E-03 0.  1.
         11   -1    0    0    0    0 -0.00000000000E+00 -0.00000000000E+00 -0.45593999997E+02  0.45594000000E+02  0.51100000000E-03 0. -1.
    9900012    2    1    2    0    0 -0.29794654062E+02  0.30366128719E+02  0.85906567178E+01  0.47787279189E+02  0.20000037137E+02 0.  0.
         12    1    1    2    0    0  0.29794654062E+02 -0.30366128719E+02 -0.85906567178E+01  0.43400720811E+02  0.00000000000E+00 0. -1.
         11    1    3    3    0    0 -0.72368738385E+01  0.90691898851E+00 -0.22457049630E+01  0.76313849364E+01  0.51100000000E-03 0. -1.
        -11    1    3    3    0    0 -0.75788949947E+01  0.60205695899E+01  0.72841607987E+01  0.12113872475E+02  0.51100000000E-03 0.  1.
        -12    1    3    3    0    0 -0.14978885229E+02  0.23438640140E+02  0.35522008821E+01  0.28042021778E+02  0.00000000000E+00 0.  1.
</event>
<event>
 7    1  0.5417298E-010  0.4778727E+02  0.7816164E-02  0.1312668E+00
        -11   -1    0    0    0    0  0.00000000000E+00  0.00000000000E+00  0.45593999997E+02  0.45594000000E+02  0.51100000000E-03 0.  1.
         11   -1    0    0    0    0 -0.00000000000E+00 -0.00000000000E+00 -0.45593999997E+02  0.45594000000E+02  0.51100000000E-03 0. -1.
    9900012    2    1    2    0    0  0.43301559708E+02 -0.15080279319E+01  0.25147585570E+01  0.47787271527E+02  0.20000002198E+02 0.  0.
         12    1    1    2    0    0 -0.43301559708E+02  0.15080279319E+01 -0.25147585570E+01  0.43400728473E+02  0.00000000000E+00 0. -1.
         11    1    3    3    0    0  0.22793621525E+02 -0.89974871954E+01 -0.31468156455E+00  0.24507202672E+02  0.51100000000E-03 0.  1.
        -11    1    3    3    0    0  0.46017188723E+01  0.48772357108E+00 -0.22893580837E+01  0.51628336752E+01  0.51100000000E-03 0. -1.
        -12    1    3    3    0    0  0.15906219312E+02  0.70017356924E+01  0.51187982052E+01  0.18117235180E+02  0.00000000000E+00 0.  1.
</event>
<event>
 7    1  0.5417298E-010  0.4778727E+02  0.7816164E-02  0.1312668E+00
        -11   -1    0    0    0    0  0.00000000000E+00  0.00000000000E+00  0.45593999997E+02  0.45594000000E+02  0.51100000000E-03 0.  1.
         11   -1    0    0    0    0 -0.00000000000E+00 -0.00000000000E+00 -0.45593999997E+02  0.45594000000E+02  0.51100000000E-03 0. -1.
    9900012    2    1    2    0    0 -0.10336489789E+02 -0.95536366108E+01  0.41054940107E+02  0.47787273038E+02  0.20000009090E+02 0.  0.
         12    1    1    2    0    0  0.10336489789E+02  0.95536366108E+01 -0.41054940107E+02  0.43400726962E+02  0.00000000000E+00 0. -1.
         11    1    3    3    0    0 -0.48065117256E+01 -0.62785919666E+01  0.25348743545E+02  0.26553381548E+02  0.51100000000E-03 0.  1.
        -11    1    3    3    0    0 -0.86848826275E+01 -0.56206500498E+01  0.11784029877E+02  0.15680633075E+02  0.51100000000E-03 0. -1.
        -12    1    3    3    0    0  0.31549045637E+01  0.23456054056E+01  0.39221666848E+01  0.55532584154E+01  0.00000000000E+00 0.  1.
</event>
<event>
 7    1  0.5417298E-010  0.4778727E+02  0.7816164E-02  0.1312668E+00
        -11   -1    0    0    0    0  0.00000000000E+00  0.00000000000E+00  0.45593999997E+02  0.45594000000E+02  0.51100000000E-03 0. -1.
         11   -1    0    0    0    0 -0.00000000000E+00 -0.00000000000E+00 -0.45593999997E+02  0.45594000000E+02  0.51100000000E-03 0.  1.
    9900012    2    1    2    0    0  0.83741818204E+01  0.41898528737E+02 -0.76164040897E+01  0.47787271403E+02  0.20000001637E+02 0.  0.
         12    1    1    2    0    0 -0.83741818204E+01 -0.41898528737E+02  0.76164040897E+01  0.43400728597E+02  0.00000000000E+00 0. -1.
         11    1    3    3    0    0  0.44114444161E+01  0.30964881321E+01  0.22744984634E+00  0.53945170573E+01  0.51100000000E-03 0. -1.
        -11    1    3    3    0    0  0.41786126466E+01  0.23447226590E+01  0.96035237797E+00  0.48867990493E+01  0.51100000000E-03 0.  1.
        -12    1    3    3    0    0 -0.21587524226E+00  0.36457317946E+02 -0.88042063140E+01  0.37505955297E+02  0.00000000000E+00 0.  1.
</event>
<event>
 7    1  0.5417298E-010  0.4778727E+02  0.7816164E-02  0.1312668E+00
        -11   -1    0    0    0    0  0.00000000000E+00  0.00000000000E+00  0.45593999997E+02  0.45594000000E+02  0.51100000000E-03 0.  1.
         11   -1    0    0    0    0 -0.00000000000E+00 -0.00000000000E+00 -0.45593999997E+02  0.45594000000E+02  0.51100000000E-03 0. -1.
    9900012    2    1    2    0    0  0.90285486458E+01 -0.69641087587E+01  0.41876123943E+02  0.47787271228E+02  0.20000000838E+02 0.  0.
         12    1    1    2    0    0 -0.90285486458E+01  0.69641087587E+01 -0.41876123943E+02  0.43400728772E+02  0.00000000000E+00 0. -1.
         11    1    3    3    0    0  0.52030745889E+01 -0.39818249104E+01  0.57274104607E+01  0.87023069149E+01  0.51100000000E-03 0. -1.
        -11    1    3    3    0    0  0.61272844364E+01 -0.37826543082E+00  0.55078245275E+01  0.82475954428E+01  0.51100000000E-03 0.  1.
        -12    1    3    3    0    0 -0.23018103795E+01 -0.26040184174E+01  0.30640888954E+02  0.30837368871E+02  0.00000000000E+00 0.  1.
</event>
<event>
 7    1  0.5417298E-010  0.4778727E+02  0.7816164E-02  0.1312668E+00
        -11   -1    0    0    0    0  0.00000000000E+00  0.00000000000E+00  0.45593999997E+02  0.45594000000E+02  0.51100000000E-03 0.  1.
         11   -1    0    0    0    0 -0.00000000000E+00 -0.00000000000E+00 -0.45593999997E+02  0.45594000000E+02  0.51100000000E-03 0. -1.
    9900012    2    1    2    0    0 -0.69621793650E+01 -0.33810147886E+02  0.26306367526E+02  0.47787274038E+02  0.20000013651E+02 0.  0.
         12    1    1    2    0    0  0.69621793650E+01  0.33810147886E+02 -0.26306367526E+02  0.43400725962E+02  0.00000000000E+00 0. -1.
         11    1    3    3    0    0 -0.12495056105E+02 -0.16758721332E+02  0.97763270873E+01  0.23077212555E+02  0.51100000000E-03 0. -1.
        -11    1    3    3    0    0  0.24923305728E+00 -0.26887329210E+01  0.44834850067E+01  0.52338360600E+01  0.51100000000E-03 0.  1.
         12    1    3    3    0    0  0.52836436824E+01 -0.14362693633E+02  0.12046555432E+02  0.19476225423E+02  0.00000000000E+00 0. -1.
</event>
<event>
 7    1  0.5417298E-010  0.4778726E+02  0.7816164E-02  0.1312668E+00
        -11   -1    0    0    0    0  0.00000000000E+00  0.00000000000E+00  0.45593999997E+02  0.45594000000E+02  0.51100000000E-03 0. -1.
         11   -1    0    0    0    0 -0.00000000000E+00 -0.00000000000E+00 -0.45593999997E+02  0.45594000000E+02  0.51100000000E-03 0.  1.
    9900012    2    1    2    0    0 -0.14809014643E+01  0.25936166172E+02 -0.34767027656E+02  0.47787262715E+02  0.19999962022E+02 0.  0.
         12    1    1    2    0    0  0.14809014643E+01 -0.25936166172E+02  0.34767027656E+02  0.43400737285E+02  0.00000000000E+00 0. -1.
         11    1    3    3    0    0 -0.30877022962E+01  0.31213289464E+01  0.97768817423E+00  0.44980522772E+01  0.51100000000E-03 0. -1.
        -11    1    3    3    0    0  0.36986271448E+01  0.64777248988E+01 -0.74036318966E+01  0.10509734922E+02  0.51100000000E-03 0.  1.
        -12    1    3    3    0    0 -0.20918263128E+01  0.16337112327E+02 -0.28341083934E+02  0.32779475515E+02  0.00000000000E+00 0.  1.
</event>
<event>
 7    1  0.5417298E-010  0.4778727E+02  0.7816164E-02  0.1312668E+00
        -11   -1    0    0    0    0  0.00000000000E+00  0.00000000000E+00  0.45593999997E+02  0.45594000000E+02  0.51100000000E-03 0. -1.
         11   -1    0    0    0    0 -0.00000000000E+00 -0.00000000000E+00 -0.45593999997E+02  0.45594000000E+02  0.51100000000E-03 0.  1.
    9900012    2    1    2    0    0 -0.31204622481E+02  0.10691389541E+02 -0.28206184699E+02  0.47787272705E+02  0.20000007572E+02 0.  0.
         12    1    1    2    0    0  0.31204622481E+02 -0.10691389541E+02  0.28206184699E+02  0.43400727295E+02  0.00000000000E+00 0. -1.
         11    1    3    3    0    0 -0.13229072694E+02  0.10741138765E+01 -0.29557362096E+01  0.13597737377E+02  0.51100000000E-03 0. -1.
        -11    1    3    3    0    0 -0.14847157721E+02  0.22674072549E+01 -0.15468875928E+02  0.21560736323E+02  0.51100000000E-03 0.  1.
        -12    1    3    3    0    0 -0.31283920651E+01  0.73498684095E+01 -0.97815725610E+01  0.12628799005E+02  0.00000000000E+00 0.  1.
</event>
<event>
 7    1  0.5417298E-010  0.4778727E+02  0.7816164E-02  0.1312668E+00
        -11   -1    0    0    0    0  0.00000000000E+00  0.00000000000E+00  0.45593999997E+02  0.45594000000E+02  0.51100000000E-03 0.  1.
         11   -1    0    0    0    0 -0.00000000000E+00 -0.00000000000E+00 -0.45593999997E+02  0.45594000000E+02  0.51100000000E-03 0. -1.
    9900012    2    1    2    0    0 -0.33821098919E+02  0.11677418862E+02  0.24564087789E+02  0.47787271293E+02  0.20000001134E+02 0.  0.
         12    1    1    2    0    0  0.33821098919E+02 -0.11677418862E+02 -0.24564087789E+02  0.43400728707E+02  0.00000000000E+00 0. -1.
         11    1    3    3    0    0 -0.80629110110E+01  0.88590581479E+01  0.90320989101E+01  0.15002408347E+02  0.51100000000E-03 0. -1.
        -11    1    3    3    0    0 -0.14846324868E+02  0.22791241072E+01  0.15874609653E+02  0.21854313091E+02  0.51100000000E-03 0.  1.
         12    1    3    3    0    0 -0.10911863041E+02  0.53923660716E+00 -0.34262077439E+00  0.10930549855E+02  0.00000000000E+00 0. -1.
</event>
<event>
 7    1  0.5417298E-010  0.4778727E+02  0.7816164E-02  0.1312668E+00
        -11   -1    0    0    0    0  0.00000000000E+00  0.00000000000E+00  0.45593999997E+02  0.45594000000E+02  0.51100000000E-03 0.  1.
         11   -1    0    0    0    0 -0.00000000000E+00 -0.00000000000E+00 -0.45593999997E+02  0.45594000000E+02  0.51100000000E-03 0. -1.
    9900012    2    1    2    0    0  0.49077982229E+01  0.10635691206E+02  0.41790177857E+02  0.47787269866E+02  0.19999994626E+02 0.  0.
         12    1    1    2    0    0 -0.49077982229E+01 -0.10635691206E+02 -0.41790177857E+02  0.43400730134E+02  0.00000000000E+00 0. -1.
         11    1    3    3    0    0 -0.39242275287E+01 -0.37945053431E+01  0.79960214586E+01  0.96816420055E+01  0.51100000000E-03 0. -1.
        -11    1    3    3    0    0  0.33234888902E+01  0.18011595899E+01  0.84898129609E+01  0.92933674544E+01  0.51100000000E-03 0.  1.
         12    1    3    3    0    0  0.55085368613E+01  0.12629036959E+02  0.25304343438E+02  0.28812260406E+02  0.00000000000E+00 0. -1.
</event>
<event>
 7    1  0.5417298E-010  0.4778727E+02  0.7816164E-02  0.1312668E+00
        -11   -1    0    0    0    0  0.00000000000E+00  0.00000000000E+00  0.45593999997E+02  0.45594000000E+02  0.51100000000E-03 0. -1.
         11   -1    0    0    0    0 -0.00000000000E+00 -0.00000000000E+00 -0.45593999997E+02  0.45594000000E+02  0.51100000000E-03 0.  1.
    9900012    2    1    2    0    0 -0.15990940060E+02  0.37659155767E+02 -0.14481070918E+02  0.47787267379E+02  0.19999983288E+02 0.  0.
         12    1    1    2    0    0  0.15990940060E+02 -0.37659155767E+02  0.14481070918E+02  0.43400732621E+02  0.00000000000E+00 0. -1.
         11    1    3    3    0    0 -0.24444378577E+01  0.20888789893E+01 -0.51054770047E+01  0.60336214315E+01  0.51100000000E-03 0. -1.
        -11    1    3    3    0    0  0.82083552664E+00  0.38373537517E+01 -0.54263865034E+01  0.66966204553E+01  0.51100000000E-03 0.  1.
         12    1    3    3    0    0 -0.14367337728E+02  0.31732923026E+02 -0.39492074103E+01  0.35057025492E+02  0.00000000000E+00 0. -1.
</event>
<event>
 7    1  0.5417298E-010  0.4778727E+02  0.7816164E-02  0.1312668E+00
        -11   -1    0    0    0    0  0.00000000000E+00  0.00000000000E+00  0.45593999997E+02  0.45594000000E+02  0.51100000000E-03 0.  1.
         11   -1    0    0    0    0 -0.00000000000E+00 -0.00000000000E+00 -0.45593999997E+02  0.45594000000E+02  0.51100000000E-03 0. -1.
    9900012    2    1    2    0    0  0.31356754514E+02  0.26327856053E+02  0.14395187409E+02  0.47787268686E+02  0.19999989247E+02 0.  0.
         12    1    1    2    0    0 -0.31356754514E+02 -0.26327856053E+02 -0.14395187409E+02  0.43400731314E+02  0.00000000000E+00 0. -1.
         11    1    3    3    0    0  0.85537024722E+00 -0.19472789563E+00  0.91875319046E+00  0.12703089779E+01  0.51100000000E-03 0. -1.
        -11    1    3    3    0    0  0.24217056252E+02  0.13344950644E+02  0.15997504080E+01  0.27696799867E+02  0.51100000000E-03 0.  1.
        -12    1    3    3    0    0  0.62843280148E+01  0.13177633305E+02  0.11876683811E+02  0.18820159842E+02  0.00000000000E+00 0.  1.
</event>
<event>
 7    1  0.5417298E-010  0.4778724E+02  0.7816164E-02  0.1312668E+00
        -11   -1    0    0    0    0  0.00000000000E+00  0.00000000000E+00  0.45593999997E+02  0.45594000000E+02  0.51100000000E-03 0. -1.
         11   -1    0    0    0    0 -0.00000000000E+00 -0.00000000000E+00 -0.45593999997E+02  0.45594000000E+02  0.51100000000E-03 0.  1.
    9900012    2    1    2    0    0  0.24820490477E+02  0.27243697945E+02 -0.22920512666E+02  0.47787242794E+02  0.19999871192E+02 0.  0.
         12    1    1    2    0    0 -0.24820490477E+02 -0.27243697945E+02  0.22920512666E+02  0.43400757206E+02  0.00000000000E+00 0. -1.
         11    1    3    3    0    0  0.50159419416E+01  0.19253167146E+01 -0.35871509868E+01  0.64601989502E+01  0.51100000000E-03 0. -1.
        -11    1    3    3    0    0  0.47695950689E+01  0.16508843710E+02 -0.16210737461E+02  0.23623695034E+02  0.51100000000E-03 0.  1.
         12    1    3    3    0    0  0.15034953466E+02  0.88095375200E+01 -0.31226242181E+01  0.17703348809E+02  0.00000000000E+00 0. -1.
</event>
<event>
 7    1  0.5417298E-010  0.4778727E+02  0.7816164E-02  0.1312668E+00
        -11   -1    0    0    0    0  0.00000000000E+00  0.00000000000E+00  0.45593999997E+02  0.45594000000E+02  0.51100000000E-03 0.  1.
         11   -1    0    0    0    0 -0.00000000000E+00 -0.00000000000E+00 -0.45593999997E+02  0.45594000000E+02  0.51100000000E-03 0. -1.
    9900012    2    1    2    0    0  0.24504835086E+01 -0.42078217397E+02 -0.10346114508E+02  0.47787270350E+02  0.19999996835E+02 0.  0.
         12    1    1    2    0    0 -0.24504835086E+01  0.42078217397E+02  0.10346114508E+02  0.43400729650E+02  0.00000000000E+00 0. -1.
         11    1    3    3    0    0  0.49030621688E+01 -0.12983329057E+02 -0.81597583687E+01  0.16099332561E+02  0.51100000000E-03 0. -1.
        -11    1    3    3    0    0  0.54411136795E+00 -0.54511810392E+01 -0.53364296422E+01  0.76478044882E+01  0.51100000000E-03 0.  1.
        -12    1    3    3    0    0 -0.29966900282E+01 -0.23643707301E+02  0.31500735025E+01  0.24040133301E+02  0.00000000000E+00 0.  1.
</event>
<event>
 7    1  0.5417298E-010  0.4778727E+02  0.7816164E-02  0.1312668E+00
        -11   -1    0    0    0    0  0.00000000000E+00  0.00000000000E+00  0.45593999997E+02  0.45594000000E+02  0.51100000000E-03 0. -1.
         11   -1    0    0    0    0 -0.00000000000E+00 -0.00000000000E+00 -0.45593999997E+02  0.45594000000E+02  0.51100000000E-03 0.  1.
    9900012    2    1    2    0    0 -0.24751627636E+02 -0.33320376391E+02 -0.12678036076E+02  0.47787272446E+02  0.20000006392E+02 0.  0.
         12    1    1    2    0    0  0.24751627636E+02  0.33320376391E+02  0.12678036076E+02  0.43400727554E+02  0.00000000000E+00 0. -1.
         11    1    3    3    0    0  0.25320721225E+01 -0.40561013123E+01 -0.18643238852E+01  0.51321585030E+01  0.51100000000E-03 0. -1.
        -11    1    3    3    0    0 -0.44864848075E+00 -0.31301642450E+01 -0.30652354106E+01  0.44039620847E+01  0.51100000000E-03 0.  1.
         12    1    3    3    0    0 -0.26835051277E+02 -0.26134110833E+02 -0.77484767800E+01  0.38251151859E+02  0.00000000000E+00 0. -1.
</event>
<event>
 7    1  0.5417298E-010  0.4778727E+02  0.7816164E-02  0.1312668E+00
        -11   -1    0    0    0    0  0.00000000000E+00  0.00000000000E+00  0.45593999997E+02  0.45594000000E+02  0.51100000000E-03 0.  1.
         11   -1    0    0    0    0 -0.00000000000E+00 -0.00000000000E+00 -0.45593999997E+02  0.45594000000E+02  0.51100000000E-03 0. -1.
    9900012    2    1    2    0    0 -0.15367370678E+02 -0.30265930571E+02  0.27045161426E+02  0.47787269690E+02  0.19999993825E+02 0.  0.
         12    1    1    2    0    0  0.15367370678E+02  0.30265930571E+02 -0.27045161426E+02  0.43400730310E+02  0.00000000000E+00 0. -1.
         11    1    3    3    0    0  0.10492709210E+01 -0.88269058894E+00 -0.13996088069E+01  0.19593410155E+01  0.51100000000E-03 0. -1.
        -11    1    3    3    0    0 -0.22626446065E+01 -0.16608534917E+02  0.11579192966E+02  0.20372547771E+02  0.51100000000E-03 0.  1.
        -12    1    3    3    0    0 -0.14153996992E+02 -0.12774705065E+02  0.16865577267E+02  0.25455380903E+02  0.00000000000E+00 0.  1.
</event>
<event>
 7    1  0.5417298E-010  0.4778727E+02  0.7816164E-02  0.1312668E+00
        -11   -1    0    0    0    0  0.00000000000E+00  0.00000000000E+00  0.45593999997E+02  0.45594000000E+02  0.51100000000E-03 0.  1.
         11   -1    0    0    0    0 -0.00000000000E+00 -0.00000000000E+00 -0.45593999997E+02  0.45594000000E+02  0.51100000000E-03 0. -1.
    9900012    2    1    2    0    0 -0.37976532420E+02  0.63546797516E+01  0.20025594100E+02  0.47787269724E+02  0.19999993981E+02 0.  0.
         12    1    1    2    0    0  0.37976532420E+02 -0.63546797516E+01 -0.20025594100E+02  0.43400730276E+02  0.00000000000E+00 0. -1.
         11    1    3    3    0    0 -0.21821290499E+02  0.41083877534E+00  0.59383954497E+01  0.22618621716E+02  0.51100000000E-03 0. -1.
        -11    1    3    3    0    0 -0.13635356743E+02  0.72762196723E+01  0.15584693087E+02  0.21948780948E+02  0.51100000000E-03 0.  1.
         12    1    3    3    0    0 -0.25198851776E+01 -0.13323786960E+01 -0.14974944366E+01  0.32198670602E+01  0.00000000000E+00 0. -1.
</event>
<event>
 7    1  0.5417298E-010  0.4778727E+02  0.7816164E-02  0.1312668E+00
        -11   -1    0    0    0    0  0.00000000000E+00  0.00000000000E+00  0.45593999997E+02  0.45594000000E+02  0.51100000000E-03 0.  1.
         11   -1    0    0    0    0 -0.00000000000E+00 -0.00000000000E+00 -0.45593999997E+02  0.45594000000E+02  0.51100000000E-03 0. -1.
    9900012    2    1    2    0    0  0.26187534308E+01  0.24742087230E+02  0.35561138401E+02  0.47787270578E+02  0.19999997873E+02 0.  0.
         12    1    1    2    0    0 -0.26187534308E+01 -0.24742087230E+02 -0.35561138401E+02  0.43400729422E+02  0.00000000000E+00 0. -1.
         11    1    3    3    0    0  0.53161455420E+00  0.26254956409E+01 -0.37228544022E+00  0.27045217886E+01  0.51100000000E-03 0. -1.
        -11    1    3    3    0    0  0.33906724581E+01 -0.82517877921E+00  0.17765726406E+01  0.39158383961E+01  0.51100000000E-03 0.  1.
         12    1    3    3    0    0 -0.13035335814E+01  0.22941770368E+02  0.34156851200E+02  0.41166910393E+02  0.00000000000E+00 0. -1.
</event>
<event>
 7    1  0.5417298E-010  0.4778727E+02  0.7816164E-02  0.1312668E+00
        -11   -1    0    0    0    0  0.00000000000E+00  0.00000000000E+00  0.45593999997E+02  0.45594000000E+02  0.51100000000E-03 0. -1.
         11   -1    0    0    0    0 -0.00000000000E+00 -0.00000000000E+00 -0.45593999997E+02  0.45594000000E+02  0.51100000000E-03 0.  1.
    9900012    2    1    2    0    0  0.16194925327E+02  0.29814356441E+02 -0.27063844619E+02  0.47787272565E+02  0.20000006931E+02 0.  0.
         12    1    1    2    0    0 -0.16194925327E+02 -0.29814356441E+02  0.27063844619E+02  0.43400727435E+02  0.00000000000E+00 0. -1.
         11    1    3    3    0    0  0.35305245045E+00  0.22002456953E+01 -0.24351215494E+01  0.33008399498E+01  0.51100000000E-03 0. -1.
        -11    1    3    3    0    0  0.14047312384E+01  0.97111698406E+01 -0.18083982599E+02  0.20574511329E+02  0.51100000000E-03 0.  1.
        -12    1    3    3    0    0  0.14437141638E+02  0.17902940905E+02 -0.65447404704E+01  0.23911921286E+02  0.00000000000E+00 0.  1.
</event>
<event>
 7    1  0.5417298E-010  0.4778730E+02  0.7816164E-02  0.1312668E+00
        -11   -1    0    0    0    0  0.00000000000E+00  0.00000000000E+00  0.45593999997E+02  0.45594000000E+02  0.51100000000E-03 0.  1.
         11   -1    0    0    0    0 -0.00000000000E+00 -0.00000000000E+00 -0.45593999997E+02  0.45594000000E+02  0.51100000000E-03 0. -1.
    9900012    2    1    2    0    0 -0.19671326941E+02  0.21012352631E+02  0.32482934626E+02  0.47787295989E+02  0.20000113731E+02 0.  0.
         12    1    1    2    0    0  0.19671326941E+02 -0.21012352631E+02 -0.32482934626E+02  0.43400704011E+02  0.00000000000E+00 0. -1.
         11    1    3    3    0    0 -0.12579489331E+02  0.33168923141E+01  0.14637167003E+02  0.19582951376E+02  0.51100000000E-03 0. -1.
        -11    1    3    3    0    0 -0.67817680802E+01  0.39242919242E+01  0.84890636083E+01  0.11552343771E+02  0.51100000000E-03 0.  1.
         12    1    3    3    0    0 -0.31006953006E+00  0.13771168393E+02  0.93567040152E+01  0.16652000842E+02  0.00000000000E+00 0. -1.
</event>
<event>
 7    1  0.5417298E-010  0.4778725E+02  0.7816164E-02  0.1312668E+00
        -11   -1    0    0    0    0  0.00000000000E+00  0.00000000000E+00  0.45593999997E+02  0.45594000000E+02  0.51100000000E-03 0.  1.
         11   -1    0    0    0    0 -0.00000000000E+00 -0.00000000000E+00 -0.45593999997E+02  0.45594000000E+02  0.51100000000E-03 0. -1.
    9900012    2    1    2    0    0  0.33082348230E+02 -0.48738613803E+01  0.27666380683E+02  0.47787252204E+02  0.19999914097E+02 0.  0.
         12    1    1    2    0    0 -0.33082348230E+02  0.48738613803E+01 -0.27666380683E+02  0.43400747796E+02  0.00000000000E+00 0. -1.
         11    1    3    3    0    0  0.74433362011E+01 -0.13602626289E+01  0.11203849031E+02  0.13519608041E+02  0.51100000000E-03 0.  1.
        -11    1    3    3    0    0  0.17734771890E+02 -0.93842607112E+01  0.12590753045E+02  0.23687835393E+02  0.51100000000E-03 0. -1.
         12    1    3    3    0    0  0.79042401384E+01  0.58706619598E+01  0.38717786073E+01  0.10579808769E+02  0.00000000000E+00 0. -1.
</event>
<event>
 7    1  0.5417298E-010  0.4778727E+02  0.7816164E-02  0.1312668E+00
        -11   -1    0    0    0    0  0.00000000000E+00  0.00000000000E+00  0.45593999997E+02  0.45594000000E+02  0.51100000000E-03 0.  1.
         11   -1    0    0    0    0 -0.00000000000E+00 -0.00000000000E+00 -0.45593999997E+02  0.45594000000E+02  0.51100000000E-03 0. -1.
    9900012    2    1    2    0    0  0.24993456964E+02  0.18610588504E+02  0.30209209701E+02  0.47787271362E+02  0.20000001449E+02 0.  0.
         12    1    1    2    0    0 -0.24993456964E+02 -0.18610588504E+02 -0.30209209701E+02  0.43400728638E+02  0.00000000000E+00 0. -1.
         11    1    3    3    0    0  0.68443895443E+01  0.10907977789E+02  0.66093018307E+01  0.14474547269E+02  0.51100000000E-03 0. -1.
        -11    1    3    3    0    0  0.77175772101E+01  0.43563628047E+00  0.15850384475E+01  0.78906985815E+01  0.51100000000E-03 0.  1.
        -12    1    3    3    0    0  0.10431490210E+02  0.72669744350E+01  0.22014869423E+02  0.25422025512E+02  0.00000000000E+00 0.  1.
</event>
<event>
 7    1  0.5417298E-010  0.4778727E+02  0.7816164E-02  0.1312668E+00
        -11   -1    0    0    0    0  0.00000000000E+00  0.00000000000E+00  0.45593999997E+02  0.45594000000E+02  0.51100000000E-03 0. -1.
         11   -1    0    0    0    0 -0.00000000000E+00 -0.00000000000E+00 -0.45593999997E+02  0.45594000000E+02  0.51100000000E-03 0.  1.
    9900012    2    1    2    0    0  0.46022247615E+01  0.32497286605E+02 -0.28396639207E+02  0.47787271577E+02  0.20000002426E+02 0.  0.
         12    1    1    2    0    0 -0.46022247615E+01 -0.32497286605E+02  0.28396639207E+02  0.43400728423E+02  0.00000000000E+00 0. -1.
         11    1    3    3    0    0  0.37341854760E+01  0.51475352761E+01  0.74873531594E+00  0.64032699007E+01  0.51100000000E-03 0. -1.
        -11    1    3    3    0    0  0.43163651472E+01  0.58944651165E+01 -0.10249881895E+02  0.12587128593E+02  0.51100000000E-03 0.  1.
        -12    1    3    3    0    0 -0.34483258617E+01  0.21455286213E+02 -0.18895492627E+02  0.28796873083E+02  0.00000000000E+00 0.  1.
</event>
<event>
 7    1  0.5417298E-010  0.4778727E+02  0.7816164E-02  0.1312668E+00
        -11   -1    0    0    0    0  0.00000000000E+00  0.00000000000E+00  0.45593999997E+02  0.45594000000E+02  0.51100000000E-03 0.  1.
         11   -1    0    0    0    0 -0.00000000000E+00 -0.00000000000E+00 -0.45593999997E+02  0.45594000000E+02  0.51100000000E-03 0. -1.
    9900012    2    1    2    0    0  0.29567873894E+02 -0.53383944345E+01  0.31318772375E+02  0.47787272761E+02  0.20000007827E+02 0.  0.
         12    1    1    2    0    0 -0.29567873894E+02  0.53383944345E+01 -0.31318772375E+02  0.43400727239E+02  0.00000000000E+00 0. -1.
         11    1    3    3    0    0 -0.19320878833E+00 -0.99932248188E+00 -0.10833759308E+01  0.14864988151E+01  0.51100000000E-03 0. -1.
        -11    1    3    3    0    0  0.13818543646E+02  0.29749946769E+01  0.79789697280E+01  0.16231657340E+02  0.51100000000E-03 0.  1.
        -12    1    3    3    0    0  0.15942539037E+02 -0.73140666295E+01  0.24423178578E+02  0.30069116606E+02  0.00000000000E+00 0.  1.
</event>
<event>
 7    1  0.5417298E-010  0.4778727E+02  0.7816164E-02  0.1312668E+00
        -11   -1    0    0    0    0  0.00000000000E+00  0.00000000000E+00  0.45593999997E+02  0.45594000000E+02  0.51100000000E-03 0.  1.
         11   -1    0    0    0    0 -0.00000000000E+00 -0.00000000000E+00 -0.45593999997E+02  0.45594000000E+02  0.51100000000E-03 0. -1.
    9900012    2    1    2    0    0 -0.15102713106E+02 -0.22652161288E+02  0.33799565637E+02  0.47787274298E+02  0.20000014836E+02 0.  0.
         12    1    1    2    0    0  0.15102713106E+02  0.22652161288E+02 -0.33799565637E+02  0.43400725702E+02  0.00000000000E+00 0. -1.
         11    1    3    3    0    0 -0.57055373164E+00 -0.99860588344E+01  0.19112596163E+02  0.21571699862E+02  0.51100000000E-03 0. -1.
        -11    1    3    3    0    0 -0.15711912859E+01  0.15411926638E+01  0.29686756723E+01  0.36955314086E+01  0.51100000000E-03 0.  1.
        -12    1    3    3    0    0 -0.12960968088E+02 -0.14207295117E+02  0.11718293802E+02  0.22520043027E+02  0.00000000000E+00 0.  1.
</event>
<event>
 7    1  0.5417298E-010  0.4778728E+02  0.7816164E-02  0.1312668E+00
        -11   -1    0    0    0    0  0.00000000000E+00  0.00000000000E+00  0.45593999997E+02  0.45594000000E+02  0.51100000000E-03 0. -1.
         11   -1    0    0    0    0 -0.00000000000E+00 -0.00000000000E+00 -0.45593999997E+02  0.45594000000E+02  0.51100000000E-03 0.  1.
    9900012    2    1    2    0    0 -0.29979245746E+02  0.31178290528E+02  0.35751827188E+01  0.47787275269E+02  0.20000019261E+02 0.  0.
         12    1    1    2    0    0  0.29979245746E+02 -0.31178290528E+02 -0.35751827188E+01  0.43400724731E+02  0.00000000000E+00 0. -1.
         11    1    3    3    0    0 -0.85886406299E+00  0.20725002795E+01  0.40921136298E+01  0.46667225231E+01  0.51100000000E-03 0. -1.
        -11    1    3    3    0    0 -0.34721766103E+01 -0.59007963973E+00 -0.15967211021E+01  0.38670043876E+01  0.51100000000E-03 0.  1.
        -12    1    3    3    0    0 -0.25648205072E+02  0.29695869888E+02  0.10797901911E+01  0.39253548358E+02  0.00000000000E+00 0.  1.
</event>
<event>
 7    1  0.5417298E-010  0.4778726E+02  0.7816164E-02  0.1312668E+00
        -11   -1    0    0    0    0  0.00000000000E+00  0.00000000000E+00  0.45593999997E+02  0.45594000000E+02  0.51100000000E-03 0.  1.
         11   -1    0    0    0    0 -0.00000000000E+00 -0.00000000000E+00 -0.45593999997E+02  0.45594000000E+02  0.51100000000E-03 0. -1.
    9900012    2    1    2    0    0 -0.32195051651E+00 -0.42993919522E+02 -0.59197273647E+01  0.47787263369E+02  0.19999965007E+02 0.  0.
         12    1    1    2    0    0  0.32195051651E+00  0.42993919522E+02  0.59197273647E+01  0.43400736631E+02  0.00000000000E+00 0. -1.
         11    1    3    3    0    0 -0.16895600324E+01 -0.19044823841E+02 -0.52661460417E+01  0.19831596573E+02  0.51100000000E-03 0. -1.
        -11    1    3    3    0    0  0.74680556625E+00 -0.25892357275E+02 -0.46973288270E+00  0.25907383756E+02  0.51100000000E-03 0.  1.
        -12    1    3    3    0    0  0.62080394968E+00  0.19432615941E+01 -0.18384844029E+00  0.20482830410E+01  0.00000000000E+00 0.  1.
</event>
<event>
 7    1  0.5417298E-010  0.4778727E+02  0.7816164E-02  0.1312668E+00
        -11   -1    0    0    0    0  0.00000000000E+00  0.00000000000E+00  0.45593999997E+02  0.45594000000E+02  0.51100000000E-03 0. -1.
         11   -1    0    0    0    0 -0.00000000000E+00 -0.00000000000E+00 -0.45593999997E+02  0.45594000000E+02  0.51100000000E-03 0.  1.
    9900012    2    1    2    0    0  0.10532620074E+01  0.20824013060E+02 -0.38064084025E+02  0.47787269898E+02  0.19999994772E+02 0.  0.
         12    1    1    2    0    0 -0.10532620074E+01 -0.20824013060E+02  0.38064084025E+02  0.43400730102E+02  0.00000000000E+00 0. -1.
         11    1    3    3    0    0 -0.54992805538E+01  0.28645524701E+01 -0.89487011378E+01  0.10887010599E+02  0.51100000000E-03 0. -1.
        -11    1    3    3    0    0 -0.13241655829E+01  0.13301970190E+01 -0.10715092913E+02  0.10878237678E+02  0.51100000000E-03 0.  1.
         12    1    3    3    0    0  0.78767081441E+01  0.16629263571E+02 -0.18400289974E+02  0.26022021621E+02  0.00000000000E+00 0. -1.
</event>
<event>
 7    1  0.5417298E-010  0.4778727E+02  0.7816164E-02  0.1312668E+00
        -11   -1    0    0    0    0  0.00000000000E+00  0.00000000000E+00  0.45593999997E+02  0.45594000000E+02  0.51100000000E-03 0. -1.
         11   -1    0    0    0    0 -0.00000000000E+00 -0.00000000000E+00 -0.45593999997E+02  0.45594000000E+02  0.51100000000E-03 0.  1.
    9900012    2    1    2    0    0  0.15395324821E+02  0.40176172798E+02 -0.56993443876E+01  0.47787269436E+02  0.19999992665E+02 0.  0.
         12    1    1    2    0    0 -0.15395324821E+02 -0.40176172798E+02  0.56993443876E+01  0.43400730564E+02  0.00000000000E+00 0. -1.
         11    1    3    3    0    0  0.13045567832E+02  0.24399070884E+02 -0.23860589400E+01  0.27770393905E+02  0.51100000000E-03 0. -1.
        -11    1    3    3    0    0  0.44866969953E+01  0.48244050016E+01 -0.55752884125E+01  0.86307111347E+01  0.51100000000E-03 0.  1.
         12    1    3    3    0    0 -0.21369400069E+01  0.10952696912E+02  0.22620029649E+01  0.11386164396E+02  0.00000000000E+00 0. -1.
</event>
<event>
 7    1  0.5417298E-010  0.4778727E+02  0.7816164E-02  0.1312668E+00
        -11   -1    0    0    0    0  0.00000000000E+00  0.00000000000E+00  0.45593999997E+02  0.45594000000E+02  0.51100000000E-03 0.  1.
         11   -1    0    0    0    0 -0.00000000000E+00 -0.00000000000E+00 -0.45593999997E+02  0.45594000000E+02  0.51100000000E-03 0. -1.
    9900012    2    1    2    0    0 -0.41134627863E+02  0.80896301501E+01  0.11230473903E+02  0.47787271095E+02  0.20000000233E+02 0.  0.
         12    1    1    2    0    0  0.41134627863E+02 -0.80896301501E+01 -0.11230473903E+02  0.43400728905E+02  0.00000000000E+00 0. -1.
         11    1    3    3    0    0 -0.19969046671E+00 -0.32837027167E+00 -0.79241340566E+00  0.88069437627E+00  0.51100000000E-03 0. -1.
        -11    1    3    3    0    0 -0.30005830785E+02 -0.89757409566E+00  0.12548422887E+02  0.32536417098E+02  0.51100000000E-03 0.  1.
        -12    1    3    3    0    0 -0.10929106611E+02  0.93155745174E+01 -0.52553557835E+00  0.14370159622E+02  0.00000000000E+00 0.  1.
</event>
<event>
 7    1  0.5417298E-010  0.4778727E+02  0.7816164E-02  0.1312668E+00
        -11   -1    0    0    0    0  0.00000000000E+00  0.00000000000E+00  0.45593999997E+02  0.45594000000E+02  0.51100000000E-03 0.  1.
         11   -1    0    0    0    0 -0.00000000000E+00 -0.00000000000E+00 -0.45593999997E+02  0.45594000000E+02  0.51100000000E-03 0. -1.
    9900012    2    1    2    0    0  0.28009536925E+02 -0.31609123734E+02  0.99976257505E+01  0.47787269791E+02  0.19999994287E+02 0.  0.
         12    1    1    2    0    0 -0.28009536925E+02  0.31609123734E+02 -0.99976257505E+01  0.43400730209E+02  0.00000000000E+00 0. -1.
         11    1    3    3    0    0  0.83871679804E+00 -0.24847514792E+01 -0.20573188217E+01  0.33331661789E+01  0.51100000000E-03 0. -1.
        -11    1    3    3    0    0  0.11693632779E+02 -0.94073856658E+01 -0.28718232917E+01  0.15280291945E+02  0.51100000000E-03 0.  1.
         12    1    3    3    0    0  0.15477187348E+02 -0.19716986589E+02  0.14926767864E+02  0.29173811667E+02  0.00000000000E+00 0. -1.
</event>
<event>
 7    1  0.5417298E-010  0.4778727E+02  0.7816164E-02  0.1312668E+00
        -11   -1    0    0    0    0  0.00000000000E+00  0.00000000000E+00  0.45593999997E+02  0.45594000000E+02  0.51100000000E-03 0. -1.
         11   -1    0    0    0    0 -0.00000000000E+00 -0.00000000000E+00 -0.45593999997E+02  0.45594000000E+02  0.51100000000E-03 0.  1.
    9900012    2    1    2    0    0  0.22534775378E+02  0.34607722319E+02 -0.13345893928E+02  0.47787269244E+02  0.19999991790E+02 0.  0.
         12    1    1    2    0    0 -0.22534775378E+02 -0.34607722319E+02  0.13345893928E+02  0.43400730756E+02  0.00000000000E+00 0. -1.
         11    1    3    3    0    0  0.53537368112E+01  0.20796337346E+01 -0.27046020657E+01  0.63484050681E+01  0.51100000000E-03 0. -1.
        -11    1    3    3    0    0  0.45423038431E+01  0.13430274789E+01 -0.57286484056E+01  0.74332805563E+01  0.51100000000E-03 0.  1.
        -12    1    3    3    0    0  0.12638734724E+02  0.31185061105E+02 -0.49126434570E+01  0.34005583619E+02  0.00000000000E+00 0.  1.
</event>
<event>
 7    1  0.5417298E-010  0.4778726E+02  0.7816164E-02  0.1312668E+00
        -11   -1    0    0    0    0  0.00000000000E+00  0.00000000000E+00  0.45593999997E+02  0.45594000000E+02  0.51100000000E-03 0.  1.
         11   -1    0    0    0    0 -0.00000000000E+00 -0.00000000000E+00 -0.45593999997E+02  0.45594000000E+02  0.51100000000E-03 0. -1.
    9900012    2    1    2    0    0 -0.34632840632E+02  0.25547306419E+02 -0.56147550703E+01  0.47787262794E+02  0.19999962383E+02 0.  0.
         12    1    1    2    0    0  0.34632840632E+02 -0.25547306419E+02  0.56147550703E+01  0.43400737206E+02  0.00000000000E+00 0. -1.
         11    1    3    3    0    0 -0.30517159197E+02  0.26728538428E+02 -0.21357836508E+01  0.40623556516E+02  0.51100000000E-03 0. -1.
        -11    1    3    3    0    0 -0.81988831312E+00  0.10375029663E+01  0.61539826722E+00  0.14585419225E+01  0.51100000000E-03 0.  1.
        -12    1    3    3    0    0 -0.32957931218E+01 -0.22187349749E+01 -0.40943696867E+01  0.57051643554E+01  0.00000000000E+00 0.  1.
</event>
<event>
 7    1  0.5417298E-010  0.4778727E+02  0.7816164E-02  0.1312668E+00
        -11   -1    0    0    0    0  0.00000000000E+00  0.00000000000E+00  0.45593999997E+02  0.45594000000E+02  0.51100000000E-03 0.  1.
         11   -1    0    0    0    0 -0.00000000000E+00 -0.00000000000E+00 -0.45593999997E+02  0.45594000000E+02  0.51100000000E-03 0. -1.
    9900012    2    1    2    0    0 -0.34837985268E+02  0.13781300807E+02  0.21909212512E+02  0.47787273481E+02  0.20000011109E+02 0.  0.
         12    1    1    2    0    0  0.34837985268E+02 -0.13781300807E+02 -0.21909212512E+02  0.43400726519E+02  0.00000000000E+00 0. -1.
         11    1    3    3    0    0 -0.49051902376E+01  0.47512864645E+01  0.52183402118E+00  0.68489360737E+01  0.51100000000E-03 0. -1.
        -11    1    3    3    0    0 -0.17875784427E+02  0.89828368557E+01  0.50497145297E+01  0.20633338168E+02  0.51100000000E-03 0.  1.
         12    1    3    3    0    0 -0.12057010604E+02  0.47177486958E-01  0.16337663961E+02  0.20304999240E+02  0.00000000000E+00 0. -1.
</event>
<event>
 7    1  0.5417298E-010  0.4778728E+02  0.7816164E-02  0.1312668E+00
        -11   -1    0    0    0    0  0.00000000000E+00  0.00000000000E+00  0.45593999997E+02  0.45594000000E+02  0.51100000000E-03 0. -1.
         11   -1    0    0    0    0 -0.00000000000E+00 -0.00000000000E+00 -0.45593999997E+02  0.45594000000E+02  0.51100000000E-03 0.  1.
    9900012    2    1    2    0    0  0.90738929613E+01 -0.25784651400E+02 -0.33711105990E+02  0.47787280555E+02  0.20000043361E+02 0.  0.
         12    1    1    2    0    0 -0.90738929613E+01  0.25784651400E+02  0.33711105990E+02  0.43400719445E+02  0.00000000000E+00 0. -1.
         11    1    3    3    0    0  0.19533984972E+01 -0.37902468169E+01 -0.87627164590E+00  0.43531125508E+01  0.51100000000E-03 0. -1.
        -11    1    3    3    0    0  0.10616136399E+02 -0.77123190621E+01 -0.19979771244E+02  0.23903419767E+02  0.51100000000E-03 0.  1.
        -12    1    3    3    0    0 -0.34956419347E+01 -0.14282085521E+02 -0.12855063100E+02  0.19530748236E+02  0.00000000000E+00 0.  1.
</event>
<event>
 7    1  0.5417298E-010  0.4778727E+02  0.7816164E-02  0.1312668E+00
        -11   -1    0    0    0    0  0.00000000000E+00  0.00000000000E+00  0.45593999997E+02  0.45594000000E+02  0.51100000000E-03 0. -1.
         11   -1    0    0    0    0 -0.00000000000E+00 -0.00000000000E+00 -0.45593999997E+02  0.45594000000E+02  0.51100000000E-03 0.  1.
    9900012    2    1    2    0    0  0.37908764764E+02  0.15691901874E+02 -0.14153198088E+02  0.47787271360E+02  0.20000001438E+02 0.  0.
         12    1    1    2    0    0 -0.37908764764E+02 -0.15691901874E+02  0.14153198088E+02  0.43400728640E+02  0.00000000000E+00 0. -1.
         11    1    3    3    0    0  0.15906698375E+02  0.71694568097E+01 -0.61946305065E+01  0.18514794396E+02  0.51100000000E-03 0. -1.
        -11    1    3    3    0    0  0.14007519363E+02  0.40474460551E+00 -0.10607280096E+02  0.17575232807E+02  0.51100000000E-03 0.  1.
         12    1    3    3    0    0  0.79945470258E+01  0.81177004590E+01  0.26487125150E+01  0.11697244157E+02  0.00000000000E+00 0. -1.
</event>
<event>
 7    1  0.5417298E-010  0.4778726E+02  0.7816164E-02  0.1312668E+00
        -11   -1    0    0    0    0  0.00000000000E+00  0.00000000000E+00  0.45593999997E+02  0.45594000000E+02  0.51100000000E-03 0.  1.
         11   -1    0    0    0    0 -0.00000000000E+00 -0.00000000000E+00 -0.45593999997E+02  0.45594000000E+02  0.51100000000E-03 0. -1.
    9900012    2    1    2    0    0 -0.42684524593E+02 -0.51431144561E+01 -0.59332953855E+01  0.47787259682E+02  0.19999948194E+02 0.  0.
         12    1    1    2    0    0  0.42684524593E+02  0.51431144561E+01  0.59332953855E+01  0.43400740318E+02  0.00000000000E+00 0. -1.
         11    1    3    3    0    0 -0.92649696729E+01  0.38030461483E+01 -0.79561820023E+01  0.12790764456E+02  0.51100000000E-03 0. -1.
        -11    1    3    3    0    0 -0.11264329491E+02 -0.14496953595E+01 -0.10531952913E+01  0.11405961428E+02  0.51100000000E-03 0.  1.
         12    1    3    3    0    0 -0.22155225429E+02 -0.74964652448E+01  0.30760819081E+01  0.23590533798E+02  0.00000000000E+00 0. -1.
</event>
<event>
 7    1  0.5417298E-010  0.4778727E+02  0.7816164E-02  0.1312668E+00
        -11   -1    0    0    0    0  0.00000000000E+00  0.00000000000E+00  0.45593999997E+02  0.45594000000E+02  0.51100000000E-03 0. -1.
         11   -1    0    0    0    0 -0.00000000000E+00 -0.00000000000E+00 -0.45593999997E+02  0.45594000000E+02  0.51100000000E-03 0.  1.
    9900012    2    1    2    0    0 -0.36587885722E+02 -0.22985052911E+02  0.40788665322E+01  0.47787271997E+02  0.20000004345E+02 0.  0.
         12    1    1    2    0    0  0.36587885722E+02  0.22985052911E+02 -0.40788665322E+01  0.43400728003E+02  0.00000000000E+00 0. -1.
         11    1    3    3    0    0 -0.10181145245E+02  0.15182302898E+00  0.42389215832E+01  0.11029380090E+02  0.51100000000E-03 0. -1.
        -11    1    3    3    0    0 -0.24953635496E+01  0.78868459466E+00  0.12551868445E+01  0.29024742739E+01  0.51100000000E-03 0.  1.
        -12    1    3    3    0    0 -0.23911376928E+02 -0.23925560535E+02 -0.14152418956E+01  0.33855417633E+02  0.00000000000E+00 0.  1.
</event>
<event>
 7    1  0.5417298E-010  0.4778727E+02  0.7816164E-02  0.1312668E+00
        -11   -1    0    0    0    0  0.00000000000E+00  0.00000000000E+00  0.45593999997E+02  0.45594000000E+02  0.51100000000E-03 0. -1.
         11   -1    0    0    0    0 -0.00000000000E+00 -0.00000000000E+00 -0.45593999997E+02  0.45594000000E+02  0.51100000000E-03 0.  1.
    9900012    2    1    2    0    0  0.91539197274E+01 -0.37252444505E+02 -0.20299858505E+02  0.47787272780E+02  0.20000007911E+02 0.  0.
         12    1    1    2    0    0 -0.91539197274E+01  0.37252444505E+02  0.20299858505E+02  0.43400727220E+02  0.00000000000E+00 0. -1.
         11    1    3    3    0    0 -0.34049265827E+01 -0.14564098526E+02 -0.18604143403E+01  0.15072081232E+02  0.51100000000E-03 0. -1.
        -11    1    3    3    0    0 -0.41599686610E+00 -0.45997696433E+01 -0.19545200488E+01  0.50150855473E+01  0.51100000000E-03 0.  1.
        -12    1    3    3    0    0  0.12974843176E+02 -0.18088576336E+02 -0.16484924116E+02  0.27700106000E+02  0.00000000000E+00 0.  1.
</event>
<event>
 7    1  0.5417298E-010  0.4778727E+02  0.7816164E-02  0.1312668E+00
        -11   -1    0    0    0    0  0.00000000000E+00  0.00000000000E+00  0.45593999997E+02  0.45594000000E+02  0.51100000000E-03 0. -1.
         11   -1    0    0    0    0 -0.00000000000E+00 -0.00000000000E+00 -0.45593999997E+02  0.45594000000E+02  0.51100000000E-03 0.  1.
    9900012    2    1    2    0    0 -0.18767324477E+02  0.14736774228E+02 -0.36252422027E+02  0.47787273215E+02  0.20000009895E+02 0.  0.
         12    1    1    2    0    0  0.18767324477E+02 -0.14736774228E+02  0.36252422027E+02  0.43400726785E+02  0.00000000000E+00 0. -1.
         11    1    3    3    0    0 -0.62321915519E+01  0.29494644123E+01 -0.68734344351E+01  0.97356896547E+01  0.51100000000E-03 0. -1.
        -11    1    3    3    0    0 -0.14498664242E+02  0.13783340340E+02 -0.28993563163E+02  0.35225252886E+02  0.51100000000E-03 0.  1.
         12    1    3    3    0    0  0.19635313166E+01 -0.19960305244E+01 -0.38542442819E+00  0.28263306734E+01  0.00000000000E+00 0. -1.
</event>
<event>
 7    1  0.5417298E-010  0.4778728E+02  0.7816164E-02  0.1312668E+00
        -11   -1    0    0    0    0  0.00000000000E+00  0.00000000000E+00  0.45593999997E+02  0.45594000000E+02  0.51100000000E-03 0.  1.
         11   -1    0    0    0    0 -0.00000000000E+00 -0.00000000000E+00 -0.45593999997E+02  0.45594000000E+02  0.51100000000E-03 0. -1.
    9900012    2    1    2    0    0 -0.15203940446E+01  0.41174260179E+02  0.13637855390E+02  0.47787281124E+02  0.20000045956E+02 0.  0.
         12    1    1    2    0    0  0.15203940446E+01 -0.41174260179E+02 -0.13637855390E+02  0.43400718876E+02  0.00000000000E+00 0. -1.
         11    1    3    3    0    0 -0.34857913726E+01  0.21210983830E+01  0.72630868375E-01  0.40810630168E+01  0.51100000000E-03 0. -1.
        -11    1    3    3    0    0  0.42074220435E+01  0.12704853223E+02 -0.11697906626E+01  0.13434437321E+02  0.51100000000E-03 0.  1.
        -12    1    3    3    0    0 -0.22420247155E+01  0.26348308573E+02  0.14735015185E+02  0.30271780786E+02  0.00000000000E+00 0.  1.
</event>
<event>
 7    1  0.5417298E-010  0.4778726E+02  0.7816164E-02  0.1312668E+00
        -11   -1    0    0    0    0  0.00000000000E+00  0.00000000000E+00  0.45593999997E+02  0.45594000000E+02  0.51100000000E-03 0.  1.
         11   -1    0    0    0    0 -0.00000000000E+00 -0.00000000000E+00 -0.45593999997E+02  0.45594000000E+02  0.51100000000E-03 0. -1.
    9900012    2    1    2    0    0  0.14381996682E+02  0.28260606390E+02  0.29633105465E+02  0.47787255288E+02  0.19999928158E+02 0.  0.
         12    1    1    2    0    0 -0.14381996682E+02 -0.28260606390E+02 -0.29633105465E+02  0.43400744712E+02  0.00000000000E+00 0. -1.
         11    1    3    3    0    0 -0.14817243688E+01  0.47212604787E+01  0.94178914941E+01  0.10638725867E+02  0.51100000000E-03 0. -1.
        -11    1    3    3    0    0 -0.29097038884E+00 -0.10612264971E+01 -0.44832451397E+00  0.11882173944E+01  0.51100000000E-03 0.  1.
        -12    1    3    3    0    0  0.16154691440E+02  0.24600572408E+02  0.20663538485E+02  0.35960312026E+02  0.00000000000E+00 0.  1.
</event>
<event>
 7    1  0.5417298E-010  0.4778727E+02  0.7816164E-02  0.1312668E+00
        -11   -1    0    0    0    0  0.00000000000E+00  0.00000000000E+00  0.45593999997E+02  0.45594000000E+02  0.51100000000E-03 0. -1.
         11   -1    0    0    0    0 -0.00000000000E+00 -0.00000000000E+00 -0.45593999997E+02  0.45594000000E+02  0.51100000000E-03 0.  1.
    9900012    2    1    2    0    0 -0.18841465865E+02 -0.27981187795E+02 -0.27307062287E+02  0.47787270085E+02  0.19999995627E+02 0.  0.
         12    1    1    2    0    0  0.18841465865E+02  0.27981187795E+02  0.27307062287E+02  0.43400729915E+02  0.00000000000E+00 0. -1.
         11    1    3    3    0    0  0.86531083042E-01 -0.61198995862E+01 -0.29748841477E+01  0.68051887943E+01  0.51100000000E-03 0. -1.
        -11    1    3    3    0    0 -0.72954416626E+01 -0.98828369474E+01 -0.20424083137E+02  0.23833529060E+02  0.51100000000E-03 0.  1.
         12    1    3    3    0    0 -0.11632555285E+02 -0.11978451261E+02 -0.39080950027E+01  0.17148552231E+02  0.00000000000E+00 0. -1.
</event>
<event>
 7    1  0.5417298E-010  0.4778727E+02  0.7816164E-02  0.1312668E+00
        -11   -1    0    0    0    0  0.00000000000E+00  0.00000000000E+00  0.45593999997E+02  0.45594000000E+02  0.51100000000E-03 0.  1.
         11   -1    0    0    0    0 -0.00000000000E+00 -0.00000000000E+00 -0.45593999997E+02  0.45594000000E+02  0.51100000000E-03 0. -1.
    9900012    2    1    2    0    0 -0.12177758402E+02  0.18394791120E+02  0.37375890922E+02  0.47787270026E+02  0.19999995356E+02 0.  0.
         12    1    1    2    0    0  0.12177758402E+02 -0.18394791120E+02 -0.37375890922E+02  0.43400729974E+02  0.00000000000E+00 0. -1.
         11    1    3    3    0    0  0.13254027177E+01  0.34131229337E+00 -0.28242171367E+00  0.13974794207E+01  0.51100000000E-03 0. -1.
        -11    1    3    3    0    0  0.86591348024E+00 -0.13669350241E+01 -0.35773822494E-01  0.16185170815E+01  0.51100000000E-03 0.  1.
        -12    1    3    3    0    0 -0.14369074600E+02  0.19420413851E+02  0.37694086459E+02  0.44771273524E+02  0.00000000000E+00 0.  1.
</event>
<event>
 7    1  0.5417298E-010  0.4778727E+02  0.7816164E-02  0.1312668E+00
        -11   -1    0    0    0    0  0.00000000000E+00  0.00000000000E+00  0.45593999997E+02  0.45594000000E+02  0.51100000000E-03 0.  1.
         11   -1    0    0    0    0 -0.00000000000E+00 -0.00000000000E+00 -0.45593999997E+02  0.45594000000E+02  0.51100000000E-03 0. -1.
    9900012    2    1    2    0    0  0.13910873712E+02  0.35195646773E+02  0.21245640715E+02  0.47787271796E+02  0.20000003427E+02 0.  0.
         12    1    1    2    0    0 -0.13910873712E+02 -0.35195646773E+02 -0.21245640715E+02  0.43400728204E+02  0.00000000000E+00 0. -1.
         11    1    3    3    0    0  0.85670126743E+01  0.19407365515E+02  0.22162363471E+02  0.30679144337E+02  0.51100000000E-03 0.  1.
        -11    1    3    3    0    0 -0.48380741727E+00  0.22783993832E+01 -0.53555832057E+00  0.23899783142E+01  0.51100000000E-03 0. -1.
         12    1    3    3    0    0  0.58276684553E+01  0.13509881875E+02 -0.38116443517E+00  0.14718149145E+02  0.00000000000E+00 0. -1.
</event>
<event>
 7    1  0.5417298E-010  0.4778727E+02  0.7816164E-02  0.1312668E+00
        -11   -1    0    0    0    0  0.00000000000E+00  0.00000000000E+00  0.45593999997E+02  0.45594000000E+02  0.51100000000E-03 0. -1.
         11   -1    0    0    0    0 -0.00000000000E+00 -0.00000000000E+00 -0.45593999997E+02  0.45594000000E+02  0.51100000000E-03 0.  1.
    9900012    2    1    2    0    0 -0.11802088530E+02  0.92504736614E+01 -0.40727912662E+02  0.47787269287E+02  0.19999991987E+02 0.  0.
         12    1    1    2    0    0  0.11802088530E+02 -0.92504736614E+01  0.40727912662E+02  0.43400730713E+02  0.00000000000E+00 0. -1.
         11    1    3    3    0    0 -0.72012961635E-01 -0.21013346995E+00 -0.10461099302E+02  0.10463457402E+02  0.51100000000E-03 0. -1.
        -11    1    3    3    0    0  0.26353074636E+01  0.39982643651E+01 -0.14650719851E+02  0.15413453726E+02  0.51100000000E-03 0.  1.
         12    1    3    3    0    0 -0.14365383032E+02  0.54623427662E+01 -0.15616093509E+02  0.21910358159E+02  0.00000000000E+00 0. -1.
</event>
<event>
 7    1  0.5417298E-010  0.4778727E+02  0.7816164E-02  0.1312668E+00
        -11   -1    0    0    0    0  0.00000000000E+00  0.00000000000E+00  0.45593999997E+02  0.45594000000E+02  0.51100000000E-03 0. -1.
         11   -1    0    0    0    0 -0.00000000000E+00 -0.00000000000E+00 -0.45593999997E+02  0.45594000000E+02  0.51100000000E-03 0.  1.
    9900012    2    1    2    0    0  0.43282560047E+02  0.30136324037E+01  0.10776650836E+01  0.47787270207E+02  0.19999996184E+02 0.  0.
         12    1    1    2    0    0 -0.43282560047E+02 -0.30136324037E+01 -0.10776650836E+01  0.43400729793E+02  0.00000000000E+00 0. -1.
         11    1    3    3    0    0  0.71149502728E+01 -0.39407096504E+01  0.39690732234E+01  0.90501520676E+01  0.51100000000E-03 0. -1.
        -11    1    3    3    0    0  0.54321359972E+01 -0.28704483994E+01  0.10387164360E+01  0.62310920071E+01  0.51100000000E-03 0.  1.
        -12    1    3    3    0    0  0.30735473777E+02  0.98247904534E+01 -0.39301245758E+01  0.32506026133E+02  0.00000000000E+00 0.  1.
</event>
<event>
 7    1  0.5417298E-010  0.4778727E+02  0.7816164E-02  0.1312668E+00
        -11   -1    0    0    0    0  0.00000000000E+00  0.00000000000E+00  0.45593999997E+02  0.45594000000E+02  0.51100000000E-03 0. -1.
         11   -1    0    0    0    0 -0.00000000000E+00 -0.00000000000E+00 -0.45593999997E+02  0.45594000000E+02  0.51100000000E-03 0.  1.
    9900012    2    1    2    0    0 -0.38685843496E+02  0.16838319415E+02  0.10173472296E+02  0.47787273897E+02  0.20000013006E+02 0.  0.
         12    1    1    2    0    0  0.38685843496E+02 -0.16838319415E+02 -0.10173472296E+02  0.43400726103E+02  0.00000000000E+00 0. -1.
         11    1    3    3    0    0 -0.95392277488E+01 -0.60350472139E-01  0.80892617623E+01  0.12507464345E+02  0.51100000000E-03 0. -1.
        -11    1    3    3    0    0 -0.15972376725E+02  0.35152595150E+01 -0.24338431684E+00  0.16356439218E+02  0.51100000000E-03 0.  1.
        -12    1    3    3    0    0 -0.13174239022E+02  0.13383410372E+02  0.23275948503E+01  0.18923370334E+02  0.00000000000E+00 0.  1.
</event>
<event>
 7    1  0.5417298E-010  0.4778728E+02  0.7816164E-02  0.1312668E+00
        -11   -1    0    0    0    0  0.00000000000E+00  0.00000000000E+00  0.45593999997E+02  0.45594000000E+02  0.51100000000E-03 0.  1.
         11   -1    0    0    0    0 -0.00000000000E+00 -0.00000000000E+00 -0.45593999997E+02  0.45594000000E+02  0.51100000000E-03 0. -1.
    9900012    2    1    2    0    0 -0.22243003472E+02 -0.23030185627E+02  0.29299856926E+02  0.47787282617E+02  0.20000052764E+02 0.  0.
         12    1    1    2    0    0  0.22243003472E+02  0.23030185627E+02 -0.29299856926E+02  0.43400717383E+02  0.00000000000E+00 0. -1.
         11    1    3    3    0    0 -0.58420977457E+01 -0.10322962785E+01  0.66871849336E+01  0.89394733779E+01  0.51100000000E-03 0.  1.
        -11    1    3    3    0    0  0.56447452887E+00 -0.31350647630E+00 -0.18861765491E+01  0.19936348813E+01  0.51100000000E-03 0. -1.
        -12    1    3    3    0    0 -0.16965380255E+02 -0.21684382872E+02  0.24498848542E+02  0.36854174358E+02  0.00000000000E+00 0.  1.
</event>
<event>
 7    1  0.5417298E-010  0.4778727E+02  0.7816164E-02  0.1312668E+00
        -11   -1    0    0    0    0  0.00000000000E+00  0.00000000000E+00  0.45593999997E+02  0.45594000000E+02  0.51100000000E-03 0.  1.
         11   -1    0    0    0    0 -0.00000000000E+00 -0.00000000000E+00 -0.45593999997E+02  0.45594000000E+02  0.51100000000E-03 0. -1.
    9900012    2    1    2    0    0  0.35006305301E+02  0.12980681254E+02  0.22128801292E+02  0.47787270245E+02  0.19999996357E+02 0.  0.
         12    1    1    2    0    0 -0.35006305301E+02 -0.12980681254E+02 -0.22128801292E+02  0.43400729755E+02  0.00000000000E+00 0. -1.
         11    1    3    3    0    0  0.37146126532E+01  0.30076871823E+00 -0.15306022365E+01  0.40288400878E+01  0.51100000000E-03 0. -1.
        -11    1    3    3    0    0  0.54113286169E+00  0.50932322952E+01  0.28506636475E+01  0.58617508885E+01  0.51100000000E-03 0.  1.
        -12    1    3    3    0    0  0.30750559786E+02  0.75866802406E+01  0.20808739881E+02  0.37896679269E+02  0.00000000000E+00 0.  1.
</event>
<event>
 7    1  0.5417298E-010  0.4778727E+02  0.7816164E-02  0.1312668E+00
        -11   -1    0    0    0    0  0.00000000000E+00  0.00000000000E+00  0.45593999997E+02  0.45594000000E+02  0.51100000000E-03 0. -1.
         11   -1    0    0    0    0 -0.00000000000E+00 -0.00000000000E+00 -0.45593999997E+02  0.45594000000E+02  0.51100000000E-03 0.  1.
    9900012    2    1    2    0    0  0.61818845862E+01 -0.39541619623E+02  0.16788925428E+02  0.47787269632E+02  0.19999993561E+02 0.  0.
         12    1    1    2    0    0 -0.61818845862E+01  0.39541619623E+02 -0.16788925428E+02  0.43400730368E+02  0.00000000000E+00 0. -1.
         11    1    3    3    0    0  0.19088656112E+00 -0.68317110088E+00 -0.22577960680E+01  0.23666017362E+01  0.51100000000E-03 0. -1.
        -11    1    3    3    0    0  0.42206663994E+01 -0.35081953891E+01  0.47118304601E+01  0.72334505106E+01  0.51100000000E-03 0.  1.
        -12    1    3    3    0    0  0.17703316257E+01 -0.35350253133E+02  0.14334891036E+02  0.38187217385E+02  0.00000000000E+00 0.  1.
</event>
<event>
 7    1  0.5417298E-010  0.4778727E+02  0.7816164E-02  0.1312668E+00
        -11   -1    0    0    0    0  0.00000000000E+00  0.00000000000E+00  0.45593999997E+02  0.45594000000E+02  0.51100000000E-03 0.  1.
         11   -1    0    0    0    0 -0.00000000000E+00 -0.00000000000E+00 -0.45593999997E+02  0.45594000000E+02  0.51100000000E-03 0. -1.
    9900012    2    1    2    0    0 -0.25187787982E+02  0.19991956141E+02  0.29146530466E+02  0.47787271757E+02  0.20000003251E+02 0.  0.
         12    1    1    2    0    0  0.25187787982E+02 -0.19991956141E+02 -0.29146530466E+02  0.43400728243E+02  0.00000000000E+00 0. -1.
         11    1    3    3    0    0 -0.71838395548E+01  0.15660961799E+01  0.21512812672E+01  0.76608236727E+01  0.51100000000E-03 0. -1.
        -11    1    3    3    0    0 -0.18760334774E+02  0.10262051183E+02  0.20986806296E+02  0.29961740505E+02  0.51100000000E-03 0.  1.
        -12    1    3    3    0    0  0.75638634689E+00  0.81638087773E+01  0.60084429036E+01  0.10164707580E+02  0.00000000000E+00 0.  1.
</event>
<event>
 7    1  0.5417298E-010  0.4778727E+02  0.7816164E-02  0.1312668E+00
        -11   -1    0    0    0    0  0.00000000000E+00  0.00000000000E+00  0.45593999997E+02  0.45594000000E+02  0.51100000000E-03 0.  1.
         11   -1    0    0    0    0 -0.00000000000E+00 -0.00000000000E+00 -0.45593999997E+02  0.45594000000E+02  0.51100000000E-03 0. -1.
    9900012    2    1    2    0    0  0.87159575934E+00 -0.13005677836E+02  0.41397054436E+02  0.47787269002E+02  0.19999990689E+02 0.  0.
         12    1    1    2    0    0 -0.87159575934E+00  0.13005677836E+02 -0.41397054436E+02  0.43400730998E+02  0.00000000000E+00 0. -1.
         11    1    3    3    0    0 -0.11734620772E+01 -0.11797104502E+01  0.73834087458E+00  0.18204058617E+01  0.51100000000E-03 0. -1.
        -11    1    3    3    0    0  0.91338355130E+01 -0.37548459288E+01  0.13227798420E+02  0.16507588268E+02  0.51100000000E-03 0.  1.
         12    1    3    3    0    0 -0.70887776765E+01 -0.80711214568E+01  0.27430915141E+02  0.29459274872E+02  0.00000000000E+00 0. -1.
</event>
<event>
 7    1  0.5417298E-010  0.4778727E+02  0.7816164E-02  0.1312668E+00
        -11   -1    0    0    0    0  0.00000000000E+00  0.00000000000E+00  0.45593999997E+02  0.45594000000E+02  0.51100000000E-03 0.  1.
         11   -1    0    0    0    0 -0.00000000000E+00 -0.00000000000E+00 -0.45593999997E+02  0.45594000000E+02  0.51100000000E-03 0. -1.
    9900012    2    1    2    0    0 -0.42266807112E+02 -0.87739067000E+01  0.44898668193E+01  0.47787270441E+02  0.19999997248E+02 0.  0.
         12    1    1    2    0    0  0.42266807112E+02  0.87739067000E+01 -0.44898668193E+01  0.43400729559E+02  0.00000000000E+00 0. -1.
         11    1    3    3    0    0 -0.83509465465E+01 -0.12147524292E+01 -0.62129767590E+01  0.10479265821E+02  0.51100000000E-03 0. -1.
        -11    1    3    3    0    0 -0.18283306497E+02 -0.15507540957E+01  0.20667700039E+01  0.18464985059E+02  0.51100000000E-03 0.  1.
         12    1    3    3    0    0 -0.15632554068E+02 -0.60084001751E+01  0.86360735745E+01  0.18843019560E+02  0.00000000000E+00 0. -1.
</event>
<event>
 7    1  0.5417298E-010  0.4778727E+02  0.7816164E-02  0.1312668E+00
        -11   -1    0    0    0    0  0.00000000000E+00  0.00000000000E+00  0.45593999997E+02  0.45594000000E+02  0.51100000000E-03 0. -1.
         11   -1    0    0    0    0 -0.00000000000E+00 -0.00000000000E+00 -0.45593999997E+02  0.45594000000E+02  0.51100000000E-03 0.  1.
    9900012    2    1    2    0    0  0.84338844940E+01 -0.29516328518E+02 -0.30680273329E+02  0.47787271569E+02  0.20000002392E+02 0.  0.
         12    1    1    2    0    0 -0.84338844940E+01  0.29516328518E+02  0.30680273329E+02  0.43400728431E+02  0.00000000000E+00 0. -1.
         11    1    3    3    0    0 -0.15104927052E-01 -0.77601862155E+00 -0.18317910037E+01  0.19894450488E+01  0.51100000000E-03 0. -1.
        -11    1    3    3    0    0 -0.39906667502E+01 -0.16033148404E+02 -0.19979951107E+02  0.25926544609E+02  0.51100000000E-03 0.  1.
         12    1    3    3    0    0  0.12439656171E+02 -0.12707161492E+02 -0.88685312179E+01  0.19871281912E+02  0.00000000000E+00 0. -1.
</event>
<event>
 7    1  0.5417298E-010  0.4778727E+02  0.7816164E-02  0.1312668E+00
        -11   -1    0    0    0    0  0.00000000000E+00  0.00000000000E+00  0.45593999997E+02  0.45594000000E+02  0.51100000000E-03 0.  1.
         11   -1    0    0    0    0 -0.00000000000E+00 -0.00000000000E+00 -0.45593999997E+02  0.45594000000E+02  0.51100000000E-03 0. -1.
    9900012    2    1    2    0    0 -0.18064774649E+02 -0.31447812346E+02  0.23839518655E+02  0.47787266894E+02  0.19999981074E+02 0.  0.
         12    1    1    2    0    0  0.18064774649E+02  0.31447812346E+02 -0.23839518655E+02  0.43400733106E+02  0.00000000000E+00 0. -1.
         11    1    3    3    0    0 -0.50233925735E+01 -0.11628220161E+02  0.24073939600E+01  0.12893623346E+02  0.51100000000E-03 0.  1.
        -11    1    3    3    0    0 -0.56067989994E+01 -0.11942377553E+02  0.30239528013E+01  0.13535171497E+02  0.51100000000E-03 0. -1.
         12    1    3    3    0    0 -0.74345830762E+01 -0.78772146326E+01  0.18408171893E+02  0.21358472051E+02  0.00000000000E+00 0. -1.
</event>
<event>
 7    1  0.5417298E-010  0.4778727E+02  0.7816164E-02  0.1312668E+00
        -11   -1    0    0    0    0  0.00000000000E+00  0.00000000000E+00  0.45593999997E+02  0.45594000000E+02  0.51100000000E-03 0.  1.
         11   -1    0    0    0    0 -0.00000000000E+00 -0.00000000000E+00 -0.45593999997E+02  0.45594000000E+02  0.51100000000E-03 0. -1.
    9900012    2    1    2    0    0  0.30120868156E+02  0.30262496683E+02  0.77806099374E+01  0.47787270802E+02  0.19999998894E+02 0.  0.
         12    1    1    2    0    0 -0.30120868156E+02 -0.30262496683E+02 -0.77806099374E+01  0.43400729198E+02  0.00000000000E+00 0. -1.
         11    1    3    3    0    0  0.71684902703E+01  0.11856592507E+02 -0.30634596301E+00  0.13858567269E+02  0.51100000000E-03 0. -1.
        -11    1    3    3    0    0  0.17632058030E+02  0.11235309672E+02 -0.13325314335E+01  0.20949875754E+02  0.51100000000E-03 0.  1.
         12    1    3    3    0    0  0.53203198551E+01  0.71705945033E+01  0.94194873339E+01  0.12978827779E+02  0.00000000000E+00 0. -1.
</event>
<event>
 7    1  0.5417298E-010  0.4778727E+02  0.7816164E-02  0.1312668E+00
        -11   -1    0    0    0    0  0.00000000000E+00  0.00000000000E+00  0.45593999997E+02  0.45594000000E+02  0.51100000000E-03 0.  1.
         11   -1    0    0    0    0 -0.00000000000E+00 -0.00000000000E+00 -0.45593999997E+02  0.45594000000E+02  0.51100000000E-03 0. -1.
    9900012    2    1    2    0    0  0.38468212738E+02 -0.17565983953E+02  0.97599216367E+01  0.47787271276E+02  0.20000001054E+02 0.  0.
         12    1    1    2    0    0 -0.38468212738E+02  0.17565983953E+02 -0.97599216367E+01  0.43400728724E+02  0.00000000000E+00 0. -1.
         11    1    3    3    0    0  0.13335732862E+01  0.18949310292E+01 -0.19727044914E+00  0.23255315965E+01  0.51100000000E-03 0. -1.
        -11    1    3    3    0    0  0.26539962590E+02 -0.78970190969E+01  0.17115501628E+01  0.27742781567E+02  0.51100000000E-03 0.  1.
        -12    1    3    3    0    0  0.10594676862E+02 -0.11563895885E+02  0.82456419230E+01  0.17718958112E+02  0.00000000000E+00 0.  1.
</event>
<event>
 7    1  0.5417298E-010  0.4778727E+02  0.7816164E-02  0.1312668E+00
        -11   -1    0    0    0    0  0.00000000000E+00  0.00000000000E+00  0.45593999997E+02  0.45594000000E+02  0.51100000000E-03 0.  1.
         11   -1    0    0    0    0 -0.00000000000E+00 -0.00000000000E+00 -0.45593999997E+02  0.45594000000E+02  0.51100000000E-03 0. -1.
    9900012    2    1    2    0    0 -0.30385112770E+02  0.27077514526E+02  0.15072375248E+02  0.47787269977E+02  0.19999995132E+02 0.  0.
         12    1    1    2    0    0  0.30385112770E+02 -0.27077514526E+02 -0.15072375248E+02  0.43400730023E+02  0.00000000000E+00 0. -1.
         11    1    3    3    0    0 -0.19259696063E+01  0.19199687976E+01  0.46960023466E+01  0.54266082785E+01  0.51100000000E-03 0. -1.
        -11    1    3    3    0    0 -0.18123688050E+02  0.82781554363E+01  0.10596205405E+02  0.22567133075E+02  0.51100000000E-03 0.  1.
         12    1    3    3    0    0 -0.10335455113E+02  0.16879390292E+02 -0.21983250394E+00  0.19793528623E+02  0.00000000000E+00 0. -1.
</event>
<event>
 7    1  0.5417298E-010  0.4778727E+02  0.7816164E-02  0.1312668E+00
        -11   -1    0    0    0    0  0.00000000000E+00  0.00000000000E+00  0.45593999997E+02  0.45594000000E+02  0.51100000000E-03 0. -1.
         11   -1    0    0    0    0 -0.00000000000E+00 -0.00000000000E+00 -0.45593999997E+02  0.45594000000E+02  0.51100000000E-03 0.  1.
    9900012    2    1    2    0    0 -0.30778207835E+02 -0.19365291975E+02 -0.23691995316E+02  0.47787271287E+02  0.20000001105E+02 0.  0.
         12    1    1    2    0    0  0.30778207835E+02  0.19365291975E+02  0.23691995316E+02  0.43400728713E+02  0.00000000000E+00 0. -1.
         11    1    3    3    0    0 -0.51900922835E+01 -0.23418733444E+01 -0.80102789470E+01  0.98278175473E+01  0.51100000000E-03 0. -1.
        -11    1    3    3    0    0 -0.15234931130E+02 -0.13679734745E+02 -0.17492549232E+02  0.26930049166E+02  0.51100000000E-03 0.  1.
        -12    1    3    3    0    0 -0.10353184421E+02 -0.33436838856E+01  0.18108328625E+01  0.11029404573E+02  0.00000000000E+00 0.  1.
</event>
<event>
 7    1  0.5417298E-010  0.4778727E+02  0.7816164E-02  0.1312668E+00
        -11   -1    0    0    0    0  0.00000000000E+00  0.00000000000E+00  0.45593999997E+02  0.45594000000E+02  0.51100000000E-03 0. -1.
         11   -1    0    0    0    0 -0.00000000000E+00 -0.00000000000E+00 -0.45593999997E+02  0.45594000000E+02  0.51100000000E-03 0.  1.
    9900012    2    1    2    0    0  0.36651411082E+02  0.12802957391E+02 -0.19400557809E+02  0.47787270795E+02  0.19999998863E+02 0.  0.
         12    1    1    2    0    0 -0.36651411082E+02 -0.12802957391E+02  0.19400557809E+02  0.43400729205E+02  0.00000000000E+00 0. -1.
         11    1    3    3    0    0  0.12686245991E+02 -0.15891466211E+01 -0.79094464319E+01  0.15034146715E+02  0.51100000000E-03 0. -1.
        -11    1    3    3    0    0  0.15093565141E+02  0.93493419747E+01 -0.13560415802E+02  0.22340787386E+02  0.51100000000E-03 0.  1.
        -12    1    3    3    0    0  0.88715999500E+01  0.50427620373E+01  0.20693044252E+01  0.10412336695E+02  0.00000000000E+00 0.  1.
</event>
<event>
 7    1  0.5417298E-010  0.4778725E+02  0.7816164E-02  0.1312668E+00
        -11   -1    0    0    0    0  0.00000000000E+00  0.00000000000E+00  0.45593999997E+02  0.45594000000E+02  0.51100000000E-03 0. -1.
         11   -1    0    0    0    0 -0.00000000000E+00 -0.00000000000E+00 -0.45593999997E+02  0.45594000000E+02  0.51100000000E-03 0.  1.
    9900012    2    1    2    0    0 -0.36836922653E+01  0.42635961904E+02  0.72270784649E+01  0.47787245406E+02  0.19999883103E+02 0.  0.
         12    1    1    2    0    0  0.36836922653E+01 -0.42635961904E+02 -0.72270784649E+01  0.43400754594E+02  0.00000000000E+00 0. -1.
         11    1    3    3    0    0  0.34229025954E+00  0.94525184519E+01 -0.39619372621E+01  0.10254960499E+02  0.51100000000E-03 0. -1.
        -11    1    3    3    0    0 -0.60741254262E+01  0.16359619391E+02  0.42712817932E+00  0.17456075878E+02  0.51100000000E-03 0.  1.
         12    1    3    3    0    0  0.20481429014E+01  0.16823824061E+02  0.10761887548E+02  0.20076209029E+02  0.00000000000E+00 0. -1.
</event>
<event>
 7    1  0.5417298E-010  0.4778728E+02  0.7816164E-02  0.1312668E+00
        -11   -1    0    0    0    0  0.00000000000E+00  0.00000000000E+00  0.45593999997E+02  0.45594000000E+02  0.51100000000E-03 0.  1.
         11   -1    0    0    0    0 -0.00000000000E+00 -0.00000000000E+00 -0.45593999997E+02  0.45594000000E+02  0.51100000000E-03 0. -1.
    9900012    2    1    2    0    0 -0.27029473732E+02 -0.33751561561E+02  0.37232153989E+01  0.47787277760E+02  0.20000030621E+02 0.  0.
         12    1    1    2    0    0  0.27029473732E+02  0.33751561561E+02 -0.37232153989E+01  0.43400722240E+02  0.00000000000E+00 0. -1.
         11    1    3    3    0    0 -0.27589189075E+01 -0.90662444547E+01  0.54267988446E+01  0.10920557129E+02  0.51100000000E-03 0.  1.
        -11    1    3    3    0    0 -0.15100603228E+02 -0.22120267482E+02  0.14872592240E+01  0.26824361904E+02  0.51100000000E-03 0. -1.
         12    1    3    3    0    0 -0.91699515965E+01 -0.25650496242E+01 -0.31908426697E+01  0.10042358727E+02  0.00000000000E+00 0. -1.
</event>
<event>
 7    1  0.5417298E-010  0.4778727E+02  0.7816164E-02  0.1312668E+00
        -11   -1    0    0    0    0  0.00000000000E+00  0.00000000000E+00  0.45593999997E+02  0.45594000000E+02  0.51100000000E-03 0. -1.
         11   -1    0    0    0    0 -0.00000000000E+00 -0.00000000000E+00 -0.45593999997E+02  0.45594000000E+02  0.51100000000E-03 0.  1.
    9900012    2    1    2    0    0 -0.18862038418E+02  0.20895550069E+02 -0.33033664255E+02  0.47787268669E+02  0.19999989168E+02 0.  0.
         12    1    1    2    0    0  0.18862038418E+02 -0.20895550069E+02  0.33033664255E+02  0.43400731331E+02  0.00000000000E+00 0. -1.
         11    1    3    3    0    0 -0.30987641215E+01  0.23256281375E+01  0.13865307404E+01  0.41150155613E+01  0.51100000000E-03 0. -1.
        -11    1    3    3    0    0  0.15198993111E+01  0.39841301038E+01 -0.54126459669E+01  0.68905822122E+01  0.51100000000E-03 0.  1.
         12    1    3    3    0    0 -0.17283173608E+02  0.14585791828E+02 -0.29007549028E+02  0.36781670895E+02  0.00000000000E+00 0. -1.
</event>
<event>
 7    1  0.5417298E-010  0.4778727E+02  0.7816164E-02  0.1312668E+00
        -11   -1    0    0    0    0  0.00000000000E+00  0.00000000000E+00  0.45593999997E+02  0.45594000000E+02  0.51100000000E-03 0.  1.
         11   -1    0    0    0    0 -0.00000000000E+00 -0.00000000000E+00 -0.45593999997E+02  0.45594000000E+02  0.51100000000E-03 0. -1.
    9900012    2    1    2    0    0 -0.36916908534E+02 -0.11091327904E+02  0.19943608389E+02  0.47787271827E+02  0.20000003569E+02 0.  0.
         12    1    1    2    0    0  0.36916908534E+02  0.11091327904E+02 -0.19943608389E+02  0.43400728173E+02  0.00000000000E+00 0. -1.
         11    1    3    3    0    0 -0.10908457111E+02 -0.56331616086E+01  0.10123731373E+02  0.15912789932E+02  0.51100000000E-03 0. -1.
        -11    1    3    3    0    0 -0.27447873029E+02 -0.68618585563E+01  0.94581894702E+01  0.29831664134E+02  0.51100000000E-03 0.  1.
         12    1    3    3    0    0  0.14394216068E+01  0.14036922605E+01  0.36168754562E+00  0.20428177611E+01  0.00000000000E+00 0. -1.
</event>
<event>
 7    1  0.5417298E-010  0.4778727E+02  0.7816164E-02  0.1312668E+00
        -11   -1    0    0    0    0  0.00000000000E+00  0.00000000000E+00  0.45593999997E+02  0.45594000000E+02  0.51100000000E-03 0.  1.
         11   -1    0    0    0    0 -0.00000000000E+00 -0.00000000000E+00 -0.45593999997E+02  0.45594000000E+02  0.51100000000E-03 0. -1.
    9900012    2    1    2    0    0 -0.28933211877E+02 -0.27081406204E+02  0.17694359698E+02  0.47787266405E+02  0.19999978845E+02 0.  0.
         12    1    1    2    0    0  0.28933211877E+02  0.27081406204E+02 -0.17694359698E+02  0.43400733595E+02  0.00000000000E+00 0. -1.
         11    1    3    3    0    0 -0.13028028399E+02 -0.99324472187E+01  0.13036717521E+02  0.20936547846E+02  0.51100000000E-03 0. -1.
        -11    1    3    3    0    0 -0.17086280586E+01 -0.12540578203E+01  0.51122001340E+01  0.55341360058E+01  0.51100000000E-03 0.  1.
         12    1    3    3    0    0 -0.14196555420E+02 -0.15894901165E+02 -0.45455795649E+00  0.21316582553E+02  0.00000000000E+00 0. -1.
</event>
<event>
 7    1  0.5417298E-010  0.4778727E+02  0.7816164E-02  0.1312668E+00
        -11   -1    0    0    0    0  0.00000000000E+00  0.00000000000E+00  0.45593999997E+02  0.45594000000E+02  0.51100000000E-03 0. -1.
         11   -1    0    0    0    0 -0.00000000000E+00 -0.00000000000E+00 -0.45593999997E+02  0.45594000000E+02  0.51100000000E-03 0.  1.
    9900012    2    1    2    0    0 -0.63005586923E+01  0.95320037792E+01 -0.41869646915E+02  0.47787268801E+02  0.19999989770E+02 0.  0.
         12    1    1    2    0    0  0.63005586923E+01 -0.95320037792E+01  0.41869646915E+02  0.43400731199E+02  0.00000000000E+00 0. -1.
         11    1    3    3    0    0  0.31846804228E+01  0.42646035100E+01 -0.90152061179E+01  0.10469143905E+02  0.51100000000E-03 0. -1.
        -11    1    3    3    0    0 -0.67630919734E+01  0.96287073119E+01 -0.17188525020E+02  0.20830189873E+02  0.51100000000E-03 0.  1.
         12    1    3    3    0    0 -0.27221471416E+01 -0.43613070426E+01 -0.15665915777E+02  0.16487935022E+02  0.00000000000E+00 0. -1.
</event>
<event>
 7    1  0.5417298E-010  0.4778728E+02  0.7816164E-02  0.1312668E+00
        -11   -1    0    0    0    0  0.00000000000E+00  0.00000000000E+00  0.45593999997E+02  0.45594000000E+02  0.51100000000E-03 0.  1.
         11   -1    0    0    0    0 -0.00000000000E+00 -0.00000000000E+00 -0.45593999997E+02  0.45594000000E+02  0.51100000000E-03 0. -1.
    9900012    2    1    2    0    0  0.31264847617E+02  0.28832943907E+02  0.86483017151E+01  0.47787280266E+02  0.20000042045E+02 0.  0.
         12    1    1    2    0    0 -0.31264847617E+02 -0.28832943907E+02 -0.86483017151E+01  0.43400719734E+02  0.00000000000E+00 0. -1.
         11    1    3    3    0    0  0.10626115038E+02  0.49816357817E+01 -0.19747406729E+01  0.11900866223E+02  0.51100000000E-03 0. -1.
        -11    1    3    3    0    0  0.10574591734E+02  0.31272915101E+01  0.15945739148E+01  0.11142019959E+02  0.51100000000E-03 0.  1.
        -12    1    3    3    0    0  0.10064140844E+02  0.20724016616E+02  0.90284684733E+01  0.24744394084E+02  0.00000000000E+00 0.  1.
</event>
<event>
 7    1  0.5417298E-010  0.4778727E+02  0.7816164E-02  0.1312668E+00
        -11   -1    0    0    0    0  0.00000000000E+00  0.00000000000E+00  0.45593999997E+02  0.45594000000E+02  0.51100000000E-03 0.  1.
         11   -1    0    0    0    0 -0.00000000000E+00 -0.00000000000E+00 -0.45593999997E+02  0.45594000000E+02  0.51100000000E-03 0. -1.
    9900012    2    1    2    0    0 -0.44494046808E+01  0.28472105840E+02  0.32452508462E+02  0.47787270531E+02  0.19999997660E+02 0.  0.
         12    1    1    2    0    0  0.44494046808E+01 -0.28472105840E+02 -0.32452508462E+02  0.43400729469E+02  0.00000000000E+00 0. -1.
         11    1    3    3    0    0  0.30570600742E+01  0.15036926333E+01  0.26821535852E+01  0.43359723187E+01  0.51100000000E-03 0. -1.
        -11    1    3    3    0    0 -0.78291284077E+00  0.55246701355E+01  0.16350185007E+02  0.17276095700E+02  0.51100000000E-03 0.  1.
        -12    1    3    3    0    0 -0.67235519142E+01  0.21443743071E+02  0.13420169870E+02  0.26175202512E+02  0.00000000000E+00 0.  1.
</event>
<event>
 7    1  0.5417298E-010  0.4778727E+02  0.7816164E-02  0.1312668E+00
        -11   -1    0    0    0    0  0.00000000000E+00  0.00000000000E+00  0.45593999997E+02  0.45594000000E+02  0.51100000000E-03 0.  1.
         11   -1    0    0    0    0 -0.00000000000E+00 -0.00000000000E+00 -0.45593999997E+02  0.45594000000E+02  0.51100000000E-03 0. -1.
    9900012    2    1    2    0    0 -0.24405698553E+02 -0.95969419240E+01  0.34581555389E+02  0.47787269715E+02  0.19999993938E+02 0.  0.
         12    1    1    2    0    0  0.24405698553E+02  0.95969419240E+01 -0.34581555389E+02  0.43400730285E+02  0.00000000000E+00 0. -1.
         11    1    3    3    0    0 -0.53032411773E+01 -0.32774190258E+01  0.21244511510E+01  0.65862838847E+01  0.51100000000E-03 0. -1.
        -11    1    3    3    0    0  0.24629912886E+01 -0.12913381144E+01  0.15618099826E+01  0.31895345893E+01  0.51100000000E-03 0.  1.
        -12    1    3    3    0    0 -0.21565448664E+02 -0.50281847838E+01  0.30895294255E+02  0.38011451241E+02  0.00000000000E+00 0.  1.
</event>
<event>
 7    1  0.5417298E-010  0.4778727E+02  0.7816164E-02  0.1312668E+00
        -11   -1    0    0    0    0  0.00000000000E+00  0.00000000000E+00  0.45593999997E+02  0.45594000000E+02  0.51100000000E-03 0. -1.
         11   -1    0    0    0    0 -0.00000000000E+00 -0.00000000000E+00 -0.45593999997E+02  0.45594000000E+02  0.51100000000E-03 0.  1.
    9900012    2    1    2    0    0 -0.34925207991E+02  0.13839763933E+01 -0.25728147409E+02  0.47787272898E+02  0.20000008451E+02 0.  0.
         12    1    1    2    0    0  0.34925207991E+02 -0.13839763933E+01  0.25728147409E+02  0.43400727102E+02  0.00000000000E+00 0. -1.
         11    1    3    3    0    0 -0.88209405896E+01  0.48596962072E+01 -0.91903241794E+01  0.13634063917E+02  0.51100000000E-03 0. -1.
        -11    1    3    3    0    0 -0.16136175480E+02  0.16729573725E+01 -0.16203802154E+02  0.22928980570E+02  0.51100000000E-03 0.  1.
         12    1    3    3    0    0 -0.99680919220E+01 -0.51486771863E+01 -0.33402107543E+00  0.11224228411E+02  0.00000000000E+00 0. -1.
</event>
<event>
 7    1  0.5417298E-010  0.4778727E+02  0.7816164E-02  0.1312668E+00
        -11   -1    0    0    0    0  0.00000000000E+00  0.00000000000E+00  0.45593999997E+02  0.45594000000E+02  0.51100000000E-03 0.  1.
         11   -1    0    0    0    0 -0.00000000000E+00 -0.00000000000E+00 -0.45593999997E+02  0.45594000000E+02  0.51100000000E-03 0. -1.
    9900012    2    1    2    0    0 -0.22799036798E+01 -0.33244680623E+02  0.27806771251E+02  0.47787270998E+02  0.19999999787E+02 0.  0.
         12    1    1    2    0    0  0.22799036798E+01  0.33244680623E+02 -0.27806771251E+02  0.43400729002E+02  0.00000000000E+00 0. -1.
         11    1    3    3    0    0  0.12925399720E+00 -0.11251754660E+02  0.22855573708E+01  0.11482267297E+02  0.51100000000E-03 0. -1.
        -11    1    3    3    0    0  0.19120105023E+01 -0.21272600754E+02  0.20036538672E+02  0.29285529007E+02  0.51100000000E-03 0.  1.
        -12    1    3    3    0    0 -0.43211681793E+01 -0.72032520961E+00  0.54846752084E+01  0.70194746942E+01  0.00000000000E+00 0.  1.
</event>
<event>
 7    1  0.5417298E-010  0.4778727E+02  0.7816164E-02  0.1312668E+00
        -11   -1    0    0    0    0  0.00000000000E+00  0.00000000000E+00  0.45593999997E+02  0.45594000000E+02  0.51100000000E-03 0.  1.
         11   -1    0    0    0    0 -0.00000000000E+00 -0.00000000000E+00 -0.45593999997E+02  0.45594000000E+02  0.51100000000E-03 0. -1.
    9900012    2    1    2    0    0 -0.17356165203E+02 -0.50667272445E+01  0.39455232445E+02  0.47787267716E+02  0.19999984823E+02 0.  0.
         12    1    1    2    0    0  0.17356165203E+02  0.50667272445E+01 -0.39455232445E+02  0.43400732284E+02  0.00000000000E+00 0. -1.
         11    1    3    3    0    0 -0.40449568840E+01 -0.26265878756E+01  0.32828171776E+01  0.58341690877E+01  0.51100000000E-03 0. -1.
        -11    1    3    3    0    0 -0.15110551829E+02  0.26016391518E+01  0.22110818396E+02  0.26906980381E+02  0.51100000000E-03 0.  1.
         12    1    3    3    0    0  0.17993435095E+01 -0.50417785207E+01  0.14061596871E+02  0.15046118247E+02  0.00000000000E+00 0. -1.
</event>
<event>
 7    1  0.5417298E-010  0.4778727E+02  0.7816164E-02  0.1312668E+00
        -11   -1    0    0    0    0  0.00000000000E+00  0.00000000000E+00  0.45593999997E+02  0.45594000000E+02  0.51100000000E-03 0.  1.
         11   -1    0    0    0    0 -0.00000000000E+00 -0.00000000000E+00 -0.45593999997E+02  0.45594000000E+02  0.51100000000E-03 0. -1.
    9900012    2    1    2    0    0  0.35671726017E+02  0.45838559285E+01  0.24292793317E+02  0.47787267526E+02  0.19999983957E+02 0.  0.
         12    1    1    2    0    0 -0.35671726017E+02 -0.45838559285E+01 -0.24292793317E+02  0.43400732474E+02  0.00000000000E+00 0. -1.
         11    1    3    3    0    0  0.15371520076E+02 -0.75447994176E+01  0.10899490094E+02  0.20297943548E+02  0.51100000000E-03 0. -1.
        -11    1    3    3    0    0  0.93995367124E+01  0.33162710815E+01  0.49978897767E+01  0.11150239763E+02  0.51100000000E-03 0.  1.
         12    1    3    3    0    0  0.10900669228E+02  0.88123842646E+01  0.83954134464E+01  0.16339084215E+02  0.00000000000E+00 0. -1.
</event>
<event>
 7    1  0.5417298E-010  0.4778727E+02  0.7816164E-02  0.1312668E+00
        -11   -1    0    0    0    0  0.00000000000E+00  0.00000000000E+00  0.45593999997E+02  0.45594000000E+02  0.51100000000E-03 0. -1.
         11   -1    0    0    0    0 -0.00000000000E+00 -0.00000000000E+00 -0.45593999997E+02  0.45594000000E+02  0.51100000000E-03 0.  1.
    9900012    2    1    2    0    0  0.13471458124E+02  0.40521434326E+02 -0.77560563376E+01  0.47787271507E+02  0.20000002109E+02 0.  0.
         12    1    1    2    0    0 -0.13471458124E+02 -0.40521434326E+02  0.77560563376E+01  0.43400728493E+02  0.00000000000E+00 0. -1.
         11    1    3    3    0    0 -0.15369852715E+00  0.17416244890E+01  0.12975955781E+01  0.21772996218E+01  0.51100000000E-03 0. -1.
        -11    1    3    3    0    0 -0.14541970629E+00  0.22521585925E+02 -0.91333464035E+01  0.24303518187E+02  0.51100000000E-03 0.  1.
        -12    1    3    3    0    0  0.13770576358E+02  0.16258223912E+02  0.79694487752E-01  0.21306453698E+02  0.00000000000E+00 0.  1.
</event>
<event>
 7    1  0.5417298E-010  0.4778728E+02  0.7816164E-02  0.1312668E+00
        -11   -1    0    0    0    0  0.00000000000E+00  0.00000000000E+00  0.45593999997E+02  0.45594000000E+02  0.51100000000E-03 0. -1.
         11   -1    0    0    0    0 -0.00000000000E+00 -0.00000000000E+00 -0.45593999997E+02  0.45594000000E+02  0.51100000000E-03 0.  1.
    9900012    2    1    2    0    0 -0.19550836424E+02 -0.31494061385E+02 -0.22572349455E+02  0.47787284944E+02  0.20000063373E+02 0.  0.
         12    1    1    2    0    0  0.19550836424E+02  0.31494061385E+02  0.22572349455E+02  0.43400715056E+02  0.00000000000E+00 0. -1.
         11    1    3    3    0    0 -0.61795944182E+01 -0.26480982286E+01  0.50970275107E+00  0.67423741039E+01  0.51100000000E-03 0. -1.
        -11    1    3    3    0    0 -0.39322868973E+01 -0.33682177841E+01 -0.91446782980E+01  0.10508706520E+02  0.51100000000E-03 0.  1.
         12    1    3    3    0    0 -0.94389551089E+01 -0.25477745373E+02 -0.13937373908E+02  0.30536204320E+02  0.00000000000E+00 0. -1.
</event>
<event>
 7    1  0.5417298E-010  0.4778727E+02  0.7816164E-02  0.1312668E+00
        -11   -1    0    0    0    0  0.00000000000E+00  0.00000000000E+00  0.45593999997E+02  0.45594000000E+02  0.51100000000E-03 0. -1.
         11   -1    0    0    0    0 -0.00000000000E+00 -0.00000000000E+00 -0.45593999997E+02  0.45594000000E+02  0.51100000000E-03 0.  1.
    9900012    2    1    2    0    0 -0.40126584691E+02  0.16068848533E+02  0.39080581651E+01  0.47787267163E+02  0.19999982304E+02 0.  0.
         12    1    1    2    0    0  0.40126584691E+02 -0.16068848533E+02 -0.39080581651E+01  0.43400732837E+02  0.00000000000E+00 0. -1.
         11    1    3    3    0    0 -0.48333630266E+01  0.72427397753E+01  0.46230899721E+01  0.98585819848E+01  0.51100000000E-03 0. -1.
        -11    1    3    3    0    0 -0.23297989857E+02  0.94739018556E+01  0.30617662383E+01  0.25336249929E+02  0.51100000000E-03 0.  1.
         12    1    3    3    0    0 -0.11995231808E+02 -0.64779309780E+00 -0.37767980453E+01  0.12592435249E+02  0.00000000000E+00 0. -1.
</event>
<event>
 7    1  0.5417298E-010  0.4778727E+02  0.7816164E-02  0.1312668E+00
        -11   -1    0    0    0    0  0.00000000000E+00  0.00000000000E+00  0.45593999997E+02  0.45594000000E+02  0.51100000000E-03 0.  1.
         11   -1    0    0    0    0 -0.00000000000E+00 -0.00000000000E+00 -0.45593999997E+02  0.45594000000E+02  0.51100000000E-03 0. -1.
    9900012    2    1    2    0    0 -0.30062886571E+02  0.26087533105E+02 -0.17299911443E+02  0.47787268803E+02  0.19999989779E+02 0.  0.
         12    1    1    2    0    0  0.30062886571E+02 -0.26087533105E+02  0.17299911443E+02  0.43400731197E+02  0.00000000000E+00 0. -1.
         11    1    3    3    0    0 -0.59782422413E+01  0.81539309591E+00 -0.10450396515E+02  0.12067105443E+02  0.51100000000E-03 0. -1.
        -11    1    3    3    0    0 -0.17783992069E+01  0.28119695630E+01 -0.13527782722E+01  0.35916411120E+01  0.51100000000E-03 0.  1.
        -12    1    3    3    0    0 -0.22306245123E+02  0.22460170446E+02 -0.54967366566E+01  0.32128522248E+02  0.00000000000E+00 0.  1.
</event>
<event>
 7    1  0.5417298E-010  0.4778728E+02  0.7816164E-02  0.1312668E+00
        -11   -1    0    0    0    0  0.00000000000E+00  0.00000000000E+00  0.45593999997E+02  0.45594000000E+02  0.51100000000E-03 0.  1.
         11   -1    0    0    0    0 -0.00000000000E+00 -0.00000000000E+00 -0.45593999997E+02  0.45594000000E+02  0.51100000000E-03 0. -1.
    9900012    2    1    2    0    0 -0.36286403155E+02  0.18720505027E+02  0.14712657664E+02  0.47787278140E+02  0.20000032353E+02 0.  0.
         12    1    1    2    0    0  0.36286403155E+02 -0.18720505027E+02 -0.14712657664E+02  0.43400721860E+02  0.00000000000E+00 0. -1.
         11    1    3    3    0    0 -0.12173231873E-01  0.42462974474E+01 -0.10194956267E+01  0.43669854355E+01  0.51100000000E-03 0. -1.
        -11    1    3    3    0    0  0.75697848585E+00  0.24860424178E+00  0.23018628074E+00  0.82934099261E+00  0.51100000000E-03 0.  1.
        -12    1    3    3    0    0 -0.37031208409E+02  0.14225603338E+02  0.15501967010E+02  0.42590951712E+02  0.00000000000E+00 0.  1.
</event>
<event>
 7    1  0.5417298E-010  0.4778726E+02  0.7816164E-02  0.1312668E+00
        -11   -1    0    0    0    0  0.00000000000E+00  0.00000000000E+00  0.45593999997E+02  0.45594000000E+02  0.51100000000E-03 0. -1.
         11   -1    0    0    0    0 -0.00000000000E+00 -0.00000000000E+00 -0.45593999997E+02  0.45594000000E+02  0.51100000000E-03 0.  1.
    9900012    2    1    2    0    0  0.41362771131E+02 -0.53576523040E+01 -0.12001689175E+02  0.47787264788E+02  0.19999971475E+02 0.  0.
         12    1    1    2    0    0 -0.41362771131E+02  0.53576523040E+01  0.12001689175E+02  0.43400735212E+02  0.00000000000E+00 0. -1.
         11    1    3    3    0    0  0.15755602367E+00 -0.16453898629E+01 -0.97427127923E+00  0.19186809240E+01  0.51100000000E-03 0. -1.
        -11    1    3    3    0    0  0.27235951393E+02  0.54984028117E+01 -0.72271756873E+01  0.28709955598E+02  0.51100000000E-03 0.  1.
        -12    1    3    3    0    0  0.13969263714E+02 -0.92106652528E+01 -0.38002422081E+01  0.17158628266E+02  0.00000000000E+00 0.  1.
</event>
<event>
 7    1  0.5417298E-010  0.4778727E+02  0.7816164E-02  0.1312668E+00
        -11   -1    0    0    0    0  0.00000000000E+00  0.00000000000E+00  0.45593999997E+02  0.45594000000E+02  0.51100000000E-03 0. -1.
         11   -1    0    0    0    0 -0.00000000000E+00 -0.00000000000E+00 -0.45593999997E+02  0.45594000000E+02  0.51100000000E-03 0.  1.
    9900012    2    1    2    0    0  0.41949191010E+02 -0.22562198631E+00 -0.11128241575E+02  0.47787270833E+02  0.19999999037E+02 0.  0.
         12    1    1    2    0    0 -0.41949191010E+02  0.22562198631E+00  0.11128241575E+02  0.43400729167E+02  0.00000000000E+00 0. -1.
         11    1    3    3    0    0  0.18734105141E+02 -0.56334860833E+01  0.15615236712E+01  0.19625015091E+02  0.51100000000E-03 0. -1.
        -11    1    3    3    0    0  0.72313962458E+01  0.45616607643E+00 -0.14211840391E+00  0.72471633799E+01  0.51100000000E-03 0.  1.
         12    1    3    3    0    0  0.15983689623E+02  0.49516980206E+01 -0.12547646842E+02  0.20915092362E+02  0.00000000000E+00 0. -1.
</event>
<event>
 7    1  0.5417298E-010  0.4778727E+02  0.7816164E-02  0.1312668E+00
        -11   -1    0    0    0    0  0.00000000000E+00  0.00000000000E+00  0.45593999997E+02  0.45594000000E+02  0.51100000000E-03 0.  1.
         11   -1    0    0    0    0 -0.00000000000E+00 -0.00000000000E+00 -0.45593999997E+02  0.45594000000E+02  0.51100000000E-03 0. -1.
    9900012    2    1    2    0    0 -0.39624741964E+02 -0.11693774273E+02  0.13295058278E+02  0.47787272966E+02  0.20000008761E+02 0.  0.
         12    1    1    2    0    0  0.39624741964E+02  0.11693774273E+02 -0.13295058278E+02  0.43400727034E+02  0.00000000000E+00 0. -1.
         11    1    3    3    0    0 -0.13633924776E+02 -0.31855255615E+01  0.10920779972E+02  0.17756545649E+02  0.51100000000E-03 0.  1.
        -11    1    3    3    0    0 -0.11461824325E+02 -0.82752488035E+01  0.54970848644E+01  0.15168094866E+02  0.51100000000E-03 0. -1.
         12    1    3    3    0    0 -0.14528992863E+02 -0.23299990807E+00 -0.31228065586E+01  0.14862632451E+02  0.00000000000E+00 0. -1.
</event>
<event>
 7    1  0.5417298E-010  0.4778727E+02  0.7816164E-02  0.1312668E+00
        -11   -1    0    0    0    0  0.00000000000E+00  0.00000000000E+00  0.45593999997E+02  0.45594000000E+02  0.51100000000E-03 0.  1.
         11   -1    0    0    0    0 -0.00000000000E+00 -0.00000000000E+00 -0.45593999997E+02  0.45594000000E+02  0.51100000000E-03 0. -1.
    9900012    2    1    2    0    0  0.54917121780E+01 -0.20241312712E+02  0.37996755288E+02  0.47787273562E+02  0.20000011477E+02 0.  0.
         12    1    1    2    0    0 -0.54917121780E+01  0.20241312712E+02 -0.37996755288E+02  0.43400726438E+02  0.00000000000E+00 0. -1.
         11    1    3    3    0    0  0.40286178222E+01 -0.14223855890E+01  0.27820822190E+01  0.50983256130E+01  0.51100000000E-03 0. -1.
        -11    1    3    3    0    0  0.53979045137E+01 -0.18623055622E+02  0.32696064063E+02  0.38013000136E+02  0.51100000000E-03 0.  1.
         12    1    3    3    0    0 -0.39348101580E+01 -0.19587150061E+00  0.25186090059E+01  0.46759478128E+01  0.00000000000E+00 0. -1.
</event>
<event>
 7    1  0.5417298E-010  0.4778727E+02  0.7816164E-02  0.1312668E+00
        -11   -1    0    0    0    0  0.00000000000E+00  0.00000000000E+00  0.45593999997E+02  0.45594000000E+02  0.51100000000E-03 0. -1.
         11   -1    0    0    0    0 -0.00000000000E+00 -0.00000000000E+00 -0.45593999997E+02  0.45594000000E+02  0.51100000000E-03 0.  1.
    9900012    2    1    2    0    0  0.29306526321E+02 -0.98608012343E+01 -0.30455139724E+02  0.47787269343E+02  0.19999992243E+02 0.  0.
         12    1    1    2    0    0 -0.29306526321E+02  0.98608012343E+01  0.30455139724E+02  0.43400730657E+02  0.00000000000E+00 0. -1.
         11    1    3    3    0    0  0.13755904387E+00 -0.22870572507E+01 -0.60385795299E+01  0.64586373453E+01  0.51100000000E-03 0. -1.
        -11    1    3    3    0    0  0.29958742310E+01  0.33976046371E+01 -0.59171338048E+01  0.74519428610E+01  0.51100000000E-03 0.  1.
        -12    1    3    3    0    0  0.26173093046E+02 -0.10971348621E+02 -0.18499426389E+02  0.33876689137E+02  0.00000000000E+00 0.  1.
</event>
<event>
 7    1  0.5417298E-010  0.4778727E+02  0.7816164E-02  0.1312668E+00
        -11   -1    0    0    0    0  0.00000000000E+00  0.00000000000E+00  0.45593999997E+02  0.45594000000E+02  0.51100000000E-03 0.  1.
         11   -1    0    0    0    0 -0.00000000000E+00 -0.00000000000E+00 -0.45593999997E+02  0.45594000000E+02  0.51100000000E-03 0. -1.
    9900012    2    1    2    0    0 -0.21009339401E+02 -0.29231570956E+01  0.37864047474E+02  0.47787270967E+02  0.19999999648E+02 0.  0.
         12    1    1    2    0    0  0.21009339401E+02  0.29231570956E+01 -0.37864047474E+02  0.43400729033E+02  0.00000000000E+00 0. -1.
         11    1    3    3    0    0 -0.79940282293E+01 -0.37864487733E+01  0.77148787869E+01  0.11737164760E+02  0.51100000000E-03 0. -1.
        -11    1    3    3    0    0 -0.15073609356E+02 -0.29957614330E+01  0.24165074748E+02  0.28638071224E+02  0.51100000000E-03 0.  1.
        -12    1    3    3    0    0  0.20582981845E+01  0.38590531107E+01  0.59840939393E+01  0.74120349838E+01  0.00000000000E+00 0.  1.
</event>
<event>
 7    1  0.5417298E-010  0.4778727E+02  0.7816164E-02  0.1312668E+00
        -11   -1    0    0    0    0  0.00000000000E+00  0.00000000000E+00  0.45593999997E+02  0.45594000000E+02  0.51100000000E-03 0. -1.
         11   -1    0    0    0    0 -0.00000000000E+00 -0.00000000000E+00 -0.45593999997E+02  0.45594000000E+02  0.51100000000E-03 0.  1.
    9900012    2    1    2    0    0  0.25680899647E+02  0.86630686327E+00 -0.34976622032E+02  0.47787272091E+02  0.20000004773E+02 0.  0.
         12    1    1    2    0    0 -0.25680899647E+02 -0.86630686327E+00  0.34976622032E+02  0.43400727909E+02  0.00000000000E+00 0. -1.
         11    1    3    3    0    0  0.28469250130E+01 -0.79197658459E+00 -0.79408923007E+01  0.84728967734E+01  0.51100000000E-03 0. -1.
        -11    1    3    3    0    0  0.96891076751E+01  0.37106831198E+01 -0.23284536110E+02  0.25491520137E+02  0.51100000000E-03 0.  1.
         12    1    3    3    0    0  0.13144866959E+02 -0.20523996720E+01 -0.37511936211E+01  0.13822855181E+02  0.00000000000E+00 0. -1.
</event>
<event>
 7    1  0.5417298E-010  0.4778727E+02  0.7816164E-02  0.1312668E+00
        -11   -1    0    0    0    0  0.00000000000E+00  0.00000000000E+00  0.45593999997E+02  0.45594000000E+02  0.51100000000E-03 0.  1.
         11   -1    0    0    0    0 -0.00000000000E+00 -0.00000000000E+00 -0.45593999997E+02  0.45594000000E+02  0.51100000000E-03 0. -1.
    9900012    2    1    2    0    0 -0.29388364729E+02  0.16328323466E+02  0.27446912707E+02  0.47787272519E+02  0.20000006725E+02 0.  0.
         12    1    1    2    0    0  0.29388364729E+02 -0.16328323466E+02 -0.27446912707E+02  0.43400727481E+02  0.00000000000E+00 0. -1.
         11    1    3    3    0    0 -0.99826332893E+01  0.65173309753E+01  0.25001295384E+01  0.12181100870E+02  0.51100000000E-03 0. -1.
        -11    1    3    3    0    0 -0.14285316452E+01 -0.21555175427E+01 -0.32148882090E-01  0.25861153010E+01  0.51100000000E-03 0.  1.
        -12    1    3    3    0    0 -0.17977199795E+02  0.11966510034E+02  0.24978932051E+02  0.33020056349E+02  0.00000000000E+00 0.  1.
</event>
<event>
 7    1  0.5417298E-010  0.4778727E+02  0.7816164E-02  0.1312668E+00
        -11   -1    0    0    0    0  0.00000000000E+00  0.00000000000E+00  0.45593999997E+02  0.45594000000E+02  0.51100000000E-03 0.  1.
         11   -1    0    0    0    0 -0.00000000000E+00 -0.00000000000E+00 -0.45593999997E+02  0.45594000000E+02  0.51100000000E-03 0. -1.
    9900012    2    1    2    0    0  0.33018554403E+01 -0.20315030800E+02  0.38210216052E+02  0.47787270323E+02  0.19999996710E+02 0.  0.
         12    1    1    2    0    0 -0.33018554403E+01  0.20315030800E+02 -0.38210216052E+02  0.43400729677E+02  0.00000000000E+00 0. -1.
         11    1    3    3    0    0  0.36883485767E+01 -0.82799139166E+01  0.54537163513E+01  0.10578464538E+02  0.51100000000E-03 0. -1.
        -11    1    3    3    0    0  0.41977270695E+01 -0.11248522583E+02  0.17229645920E+02  0.21000258847E+02  0.51100000000E-03 0.  1.
         12    1    3    3    0    0 -0.45842202059E+01 -0.78659430021E+00  0.15526853781E+02  0.16208546937E+02  0.00000000000E+00 0. -1.
</event>
<event>
 7    1  0.5417298E-010  0.4778727E+02  0.7816164E-02  0.1312668E+00
        -11   -1    0    0    0    0  0.00000000000E+00  0.00000000000E+00  0.45593999997E+02  0.45594000000E+02  0.51100000000E-03 0. -1.
         11   -1    0    0    0    0 -0.00000000000E+00 -0.00000000000E+00 -0.45593999997E+02  0.45594000000E+02  0.51100000000E-03 0.  1.
    9900012    2    1    2    0    0  0.89700914768E+01  0.33425293004E+02 -0.26189891964E+02  0.47787271958E+02  0.20000004167E+02 0.  0.
         12    1    1    2    0    0 -0.89700914768E+01 -0.33425293004E+02  0.26189891964E+02  0.43400728042E+02  0.00000000000E+00 0. -1.
         11    1    3    3    0    0 -0.84723313863E+00  0.61788019553E+00  0.18959703528E+01  0.21666295870E+01  0.51100000000E-03 0. -1.
        -11    1    3    3    0    0  0.75804018875E+01  0.81614046590E+01 -0.74743207250E+01  0.13414040754E+02  0.51100000000E-03 0.  1.
        -12    1    3    3    0    0  0.22369227280E+01  0.24646008149E+02 -0.20611541591E+02  0.32206601618E+02  0.00000000000E+00 0.  1.
</event>
<event>
 7    1  0.5417298E-010  0.4778727E+02  0.7816164E-02  0.1312668E+00
        -11   -1    0    0    0    0  0.00000000000E+00  0.00000000000E+00  0.45593999997E+02  0.45594000000E+02  0.51100000000E-03 0. -1.
         11   -1    0    0    0    0 -0.00000000000E+00 -0.00000000000E+00 -0.45593999997E+02  0.45594000000E+02  0.51100000000E-03 0.  1.
    9900012    2    1    2    0    0 -0.54260923710E+01  0.38285975849E+02 -0.19706969088E+02  0.47787273557E+02  0.20000011455E+02 0.  0.
         12    1    1    2    0    0  0.54260923710E+01 -0.38285975849E+02  0.19706969088E+02  0.43400726443E+02  0.00000000000E+00 0. -1.
         11    1    3    3    0    0  0.48434591707E+01  0.99118460959E+01 -0.85790405695E+01  0.13975110988E+02  0.51100000000E-03 0. -1.
        -11    1    3    3    0    0  0.55536654623E+00  0.13261098378E+02 -0.35682946412E+01  0.13744012846E+02  0.51100000000E-03 0.  1.
         12    1    3    3    0    0 -0.10824918088E+02  0.15113031375E+02 -0.75596338772E+01  0.20068149723E+02  0.00000000000E+00 0. -1.
</event>
<event>
 7    1  0.5417298E-010  0.4778727E+02  0.7816164E-02  0.1312668E+00
        -11   -1    0    0    0    0  0.00000000000E+00  0.00000000000E+00  0.45593999997E+02  0.45594000000E+02  0.51100000000E-03 0.  1.
         11   -1    0    0    0    0 -0.00000000000E+00 -0.00000000000E+00 -0.45593999997E+02  0.45594000000E+02  0.51100000000E-03 0. -1.
    9900012    2    1    2    0    0  0.41221853172E+02 -0.11910566421E+02  0.65207840843E+01  0.47787269632E+02  0.19999993560E+02 0.  0.
         12    1    1    2    0    0 -0.41221853172E+02  0.11910566421E+02 -0.65207840843E+01  0.43400730368E+02  0.00000000000E+00 0. -1.
         11    1    3    3    0    0  0.27649729463E+01  0.27526486380E+01  0.28362496992E+01  0.48235321638E+01  0.51100000000E-03 0. -1.
        -11    1    3    3    0    0  0.24517639868E+02 -0.46295029819E+01  0.59210132895E+01  0.25643817212E+02  0.51100000000E-03 0.  1.
        -12    1    3    3    0    0  0.13939240358E+02 -0.10033712077E+02 -0.22364789045E+01  0.17319920256E+02  0.00000000000E+00 0.  1.
</event>
<event>
 7    1  0.5417298E-010  0.4778727E+02  0.7816164E-02  0.1312668E+00
        -11   -1    0    0    0    0  0.00000000000E+00  0.00000000000E+00  0.45593999997E+02  0.45594000000E+02  0.51100000000E-03 0.  1.
         11   -1    0    0    0    0 -0.00000000000E+00 -0.00000000000E+00 -0.45593999997E+02  0.45594000000E+02  0.51100000000E-03 0. -1.
    9900012    2    1    2    0    0  0.20826219334E+02  0.50536253378E+01  0.37740595916E+02  0.47787272807E+02  0.20000008036E+02 0.  0.
         12    1    1    2    0    0 -0.20826219334E+02 -0.50536253378E+01 -0.37740595916E+02  0.43400727193E+02  0.00000000000E+00 0. -1.
         11    1    3    3    0    0 -0.92314287866E+00  0.25391938808E+01  0.13364934191E+00  0.27050990271E+01  0.51100000000E-03 0. -1.
        -11    1    3    3    0    0  0.40815593690E+01 -0.29024930176E+01  0.15389306193E+02  0.16183767731E+02  0.51100000000E-03 0.  1.
        -12    1    3    3    0    0  0.17667802843E+02  0.54169244746E+01  0.22217640381E+02  0.28898406049E+02  0.00000000000E+00 0.  1.
</event>
<event>
 7    1  0.5417298E-010  0.4778727E+02  0.7816164E-02  0.1312668E+00
        -11   -1    0    0    0    0  0.00000000000E+00  0.00000000000E+00  0.45593999997E+02  0.45594000000E+02  0.51100000000E-03 0.  1.
         11   -1    0    0    0    0 -0.00000000000E+00 -0.00000000000E+00 -0.45593999997E+02  0.45594000000E+02  0.51100000000E-03 0. -1.
    9900012    2    1    2    0    0 -0.18578692718E+01  0.40742485058E+02  0.14839869659E+02  0.47787268458E+02  0.19999988205E+02 0.  0.
         12    1    1    2    0    0  0.18578692718E+01 -0.40742485058E+02 -0.14839869659E+02  0.43400731542E+02  0.00000000000E+00 0. -1.
         11    1    3    3    0    0 -0.13278232151E+01  0.91700254022E+01 -0.41799702396E+01  0.10164872446E+02  0.51100000000E-03 0. -1.
        -11    1    3    3    0    0 -0.14879453771E+00  0.11818954024E+02  0.30211645453E+01  0.12199887275E+02  0.51100000000E-03 0.  1.
        -12    1    3    3    0    0 -0.38125151901E+00  0.19753505631E+02  0.15998675353E+02  0.25422508737E+02  0.00000000000E+00 0.  1.
</event>
<event>
 7    1  0.5417298E-010  0.4778727E+02  0.7816164E-02  0.1312668E+00
        -11   -1    0    0    0    0  0.00000000000E+00  0.00000000000E+00  0.45593999997E+02  0.45594000000E+02  0.51100000000E-03 0.  1.
         11   -1    0    0    0    0 -0.00000000000E+00 -0.00000000000E+00 -0.45593999997E+02  0.45594000000E+02  0.51100000000E-03 0. -1.
    9900012    2    1    2    0    0 -0.38665411428E+02 -0.19291653820E+02  0.40547939853E+01  0.47787270718E+02  0.19999998510E+02 0.  0.
         12    1    1    2    0    0  0.38665411428E+02  0.19291653820E+02 -0.40547939853E+01  0.43400729282E+02  0.00000000000E+00 0. -1.
         11    1    3    3    0    0 -0.24340432298E+02 -0.11049732838E+02 -0.50117519943E+01  0.27196891340E+02  0.51100000000E-03 0. -1.
        -11    1    3    3    0    0 -0.49196595211E+01  0.88133480274E+00  0.70717096411E+00  0.50477610751E+01  0.51100000000E-03 0.  1.
        -12    1    3    3    0    0 -0.94053196081E+01 -0.91232557845E+01  0.83593750155E+01  0.15542618302E+02  0.00000000000E+00 0.  1.
</event>
<event>
 7    1  0.5417298E-010  0.4778725E+02  0.7816164E-02  0.1312668E+00
        -11   -1    0    0    0    0  0.00000000000E+00  0.00000000000E+00  0.45593999997E+02  0.45594000000E+02  0.51100000000E-03 0.  1.
         11   -1    0    0    0    0 -0.00000000000E+00 -0.00000000000E+00 -0.45593999997E+02  0.45594000000E+02  0.51100000000E-03 0. -1.
    9900012    2    1    2    0    0 -0.28803388651E+02 -0.47541229659E+01  0.32115232848E+02  0.47787250423E+02  0.19999905978E+02 0.  0.
         12    1    1    2    0    0  0.28803388651E+02  0.47541229659E+01 -0.32115232848E+02  0.43400749577E+02  0.00000000000E+00 0. -1.
         11    1    3    3    0    0  0.80523127233E+00 -0.44764767201E+01  0.20703013307E+01  0.49973382003E+01  0.51100000000E-03 0. -1.
        -11    1    3    3    0    0 -0.52795850365E+01  0.26938206300E+01  0.66305207180E+01  0.88935084752E+01  0.51100000000E-03 0.  1.
        -12    1    3    3    0    0 -0.24329034887E+02 -0.29714668758E+01  0.23414410800E+02  0.33896403747E+02  0.00000000000E+00 0.  1.
</event>
<event>
 7    1  0.5417298E-010  0.4778727E+02  0.7816164E-02  0.1312668E+00
        -11   -1    0    0    0    0  0.00000000000E+00  0.00000000000E+00  0.45593999997E+02  0.45594000000E+02  0.51100000000E-03 0. -1.
         11   -1    0    0    0    0 -0.00000000000E+00 -0.00000000000E+00 -0.45593999997E+02  0.45594000000E+02  0.51100000000E-03 0.  1.
    9900012    2    1    2    0    0  0.35340758545E+02  0.60604819014E+01 -0.24452497649E+02  0.47787270781E+02  0.19999998801E+02 0.  0.
         12    1    1    2    0    0 -0.35340758545E+02 -0.60604819014E+01  0.24452497649E+02  0.43400729219E+02  0.00000000000E+00 0. -1.
         11    1    3    3    0    0  0.44193628265E+01 -0.22279558384E+01  0.15109830686E+00  0.49515034050E+01  0.51100000000E-03 0. -1.
        -11    1    3    3    0    0  0.11906483071E+02 -0.38393012285E+01 -0.85740253190E+01  0.15166360258E+02  0.51100000000E-03 0.  1.
         12    1    3    3    0    0  0.19014912648E+02  0.12127738968E+02 -0.16029570637E+02  0.27669407119E+02  0.00000000000E+00 0. -1.
</event>
<event>
 7    1  0.5417298E-010  0.4778728E+02  0.7816164E-02  0.1312668E+00
        -11   -1    0    0    0    0  0.00000000000E+00  0.00000000000E+00  0.45593999997E+02  0.45594000000E+02  0.51100000000E-03 0.  1.
         11   -1    0    0    0    0 -0.00000000000E+00 -0.00000000000E+00 -0.45593999997E+02  0.45594000000E+02  0.51100000000E-03 0. -1.
    9900012    2    1    2    0    0  0.41434419392E+02  0.11873612889E+02  0.50822226993E+01  0.47787276723E+02  0.20000025892E+02 0.  0.
         12    1    1    2    0    0 -0.41434419392E+02 -0.11873612889E+02 -0.50822226993E+01  0.43400723277E+02  0.00000000000E+00 0. -1.
         11    1    3    3    0    0  0.34802087339E+02  0.11023286129E+02 -0.14046876531E+01  0.36533152997E+02  0.51100000000E-03 0.  1.
        -11    1    3    3    0    0  0.21690385628E+01 -0.14464947764E+01 -0.49639205146E+00  0.26539556807E+01  0.51100000000E-03 0. -1.
        -12    1    3    3    0    0  0.44632934899E+01  0.22968215369E+01  0.69833024039E+01  0.86001680456E+01  0.00000000000E+00 0.  1.
</event>
<event>
 7    1  0.5417298E-010  0.4778727E+02  0.7816164E-02  0.1312668E+00
        -11   -1    0    0    0    0  0.00000000000E+00  0.00000000000E+00  0.45593999997E+02  0.45594000000E+02  0.51100000000E-03 0. -1.
         11   -1    0    0    0    0 -0.00000000000E+00 -0.00000000000E+00 -0.45593999997E+02  0.45594000000E+02  0.51100000000E-03 0.  1.
    9900012    2    1    2    0    0  0.22921609156E+02 -0.12868982155E+02 -0.34534221779E+02  0.47787270261E+02  0.19999996427E+02 0.  0.
         12    1    1    2    0    0 -0.22921609156E+02  0.12868982155E+02  0.34534221779E+02  0.43400729739E+02  0.00000000000E+00 0. -1.
         11    1    3    3    0    0  0.41568817890E+01 -0.76102194961E+01 -0.18674283989E+02  0.20589414507E+02  0.51100000000E-03 0. -1.
        -11    1    3    3    0    0 -0.10236449631E+01  0.87130826266E+00 -0.62257318118E+00  0.14814265848E+01  0.51100000000E-03 0.  1.
        -12    1    3    3    0    0  0.19788372330E+02 -0.61300709216E+01 -0.15237364609E+02  0.25716429169E+02  0.00000000000E+00 0.  1.
</event>
<event>
 7    1  0.5417298E-010  0.4778727E+02  0.7816164E-02  0.1312668E+00
        -11   -1    0    0    0    0  0.00000000000E+00  0.00000000000E+00  0.45593999997E+02  0.45594000000E+02  0.51100000000E-03 0.  1.
         11   -1    0    0    0    0 -0.00000000000E+00 -0.00000000000E+00 -0.45593999997E+02  0.45594000000E+02  0.51100000000E-03 0. -1.
    9900012    2    1    2    0    0 -0.23707127050E+02 -0.33560807734E+00  0.36352202728E+02  0.47787272484E+02  0.20000006564E+02 0.  0.
         12    1    1    2    0    0  0.23707127050E+02  0.33560807734E+00 -0.36352202728E+02  0.43400727516E+02  0.00000000000E+00 0. -1.
         11    1    3    3    0    0 -0.34863001434E+00  0.27838567481E+01  0.24766975292E+01  0.37423832237E+01  0.51100000000E-03 0. -1.
        -11    1    3    3    0    0 -0.15677083998E+02  0.54875748997E+01  0.20337319955E+02  0.26258161097E+02  0.51100000000E-03 0.  1.
         12    1    3    3    0    0 -0.76814130378E+01 -0.86070397251E+01  0.13538185243E+02  0.17786728164E+02  0.00000000000E+00 0. -1.
</event>
<event>
 7    1  0.5417298E-010  0.4778727E+02  0.7816164E-02  0.1312668E+00
        -11   -1    0    0    0    0  0.00000000000E+00  0.00000000000E+00  0.45593999997E+02  0.45594000000E+02  0.51100000000E-03 0. -1.
         11   -1    0    0    0    0 -0.00000000000E+00 -0.00000000000E+00 -0.45593999997E+02  0.45594000000E+02  0.51100000000E-03 0.  1.
    9900012    2    1    2    0    0 -0.23247713529E+02 -0.24291562912E+02 -0.27442431324E+02  0.47787271319E+02  0.20000001252E+02 0.  0.
         12    1    1    2    0    0  0.23247713529E+02  0.24291562912E+02  0.27442431324E+02  0.43400728681E+02  0.00000000000E+00 0. -1.
         11    1    3    3    0    0 -0.49874467388E+01 -0.12989109423E+02 -0.13713136150E+02  0.19535651816E+02  0.51100000000E-03 0. -1.
        -11    1    3    3    0    0 -0.96998061894E+00 -0.45701789477E+01 -0.71973169304E+01  0.85807207898E+01  0.51100000000E-03 0.  1.
        -12    1    3    3    0    0 -0.17290286171E+02 -0.67322745420E+01 -0.65319782438E+01  0.19670898713E+02  0.00000000000E+00 0.  1.
</event>
<event>
 7    1  0.5417298E-010  0.4778723E+02  0.7816164E-02  0.1312668E+00
        -11   -1    0    0    0    0  0.00000000000E+00  0.00000000000E+00  0.45593999997E+02  0.45594000000E+02  0.51100000000E-03 0.  1.
         11   -1    0    0    0    0 -0.00000000000E+00 -0.00000000000E+00 -0.45593999997E+02  0.45594000000E+02  0.51100000000E-03 0. -1.
    9900012    2    1    2    0    0 -0.12351303403E+01 -0.43255374336E+02  0.33276962678E+01  0.47787233666E+02  0.19999829578E+02 0.  0.
         12    1    1    2    0    0  0.12351303403E+01  0.43255374336E+02 -0.33276962678E+01  0.43400766334E+02  0.00000000000E+00 0. -1.
         11    1    3    3    0    0  0.37617933911E+01 -0.73120804926E+01 -0.30569112460E+01  0.87728169521E+01  0.51100000000E-03 0. -1.
        -11    1    3    3    0    0  0.33099494302E+01 -0.43788968628E+01  0.28486340688E+01  0.61842719284E+01  0.51100000000E-03 0.  1.
        -12    1    3    3    0    0 -0.83068731616E+01 -0.31564396980E+02  0.35359734450E+01  0.32830144786E+02  0.00000000000E+00 0.  1.
</event>
<event>
 7    1  0.5417298E-010  0.4778727E+02  0.7816164E-02  0.1312668E+00
        -11   -1    0    0    0    0  0.00000000000E+00  0.00000000000E+00  0.45593999997E+02  0.45594000000E+02  0.51100000000E-03 0.  1.
         11   -1    0    0    0    0 -0.00000000000E+00 -0.00000000000E+00 -0.45593999997E+02  0.45594000000E+02  0.51100000000E-03 0. -1.
    9900012    2    1    2    0    0  0.63269745910E+01  0.34423357662E+02  0.25663689641E+02  0.47787272746E+02  0.20000007759E+02 0.  0.
         12    1    1    2    0    0 -0.63269745910E+01 -0.34423357662E+02 -0.25663689641E+02  0.43400727254E+02  0.00000000000E+00 0. -1.
         11    1    3    3    0    0 -0.20558145476E+01  0.82102668883E-01  0.39700262269E+00  0.20954058428E+01  0.51100000000E-03 0. -1.
        -11    1    3    3    0    0  0.72394036300E+01  0.12421706621E+02  0.16933788279E+02  0.22213980869E+02  0.51100000000E-03 0.  1.
         12    1    3    3    0    0  0.11433855087E+01  0.21919548372E+02  0.83328987387E+01  0.23477886034E+02  0.00000000000E+00 0. -1.
</event>
<event>
 7    1  0.5417298E-010  0.4778728E+02  0.7816164E-02  0.1312668E+00
        -11   -1    0    0    0    0  0.00000000000E+00  0.00000000000E+00  0.45593999997E+02  0.45594000000E+02  0.51100000000E-03 0. -1.
         11   -1    0    0    0    0 -0.00000000000E+00 -0.00000000000E+00 -0.45593999997E+02  0.45594000000E+02  0.51100000000E-03 0.  1.
    9900012    2    1    2    0    0  0.54777298522E+01  0.22687724855E+02 -0.36590770493E+02  0.47787275713E+02  0.20000021284E+02 0.  0.
         12    1    1    2    0    0 -0.54777298522E+01 -0.22687724855E+02  0.36590770493E+02  0.43400724287E+02  0.00000000000E+00 0. -1.
         11    1    3    3    0    0  0.37180098326E+01  0.75590888062E+01 -0.48572560447E+01  0.97240093192E+01  0.51100000000E-03 0. -1.
        -11    1    3    3    0    0  0.18857601150E+01  0.17392966218E+02 -0.22206902623E+02  0.28270441975E+02  0.51100000000E-03 0.  1.
        -12    1    3    3    0    0 -0.12604009535E+00 -0.22643301698E+01 -0.95266118253E+01  0.97928244186E+01  0.00000000000E+00 0.  1.
</event>
<event>
 7    1  0.5417298E-010  0.4778727E+02  0.7816164E-02  0.1312668E+00
        -11   -1    0    0    0    0  0.00000000000E+00  0.00000000000E+00  0.45593999997E+02  0.45594000000E+02  0.51100000000E-03 0.  1.
         11   -1    0    0    0    0 -0.00000000000E+00 -0.00000000000E+00 -0.45593999997E+02  0.45594000000E+02  0.51100000000E-03 0. -1.
    9900012    2    1    2    0    0  0.29006739112E+02 -0.22071410209E+02  0.23560242307E+02  0.47787273277E+02  0.20000010179E+02 0.  0.
         12    1    1    2    0    0 -0.29006739112E+02  0.22071410209E+02 -0.23560242307E+02  0.43400726723E+02  0.00000000000E+00 0. -1.
         11    1    3    3    0    0  0.72427747376E-01 -0.25866753412E+01 -0.77554840725E+00  0.27014090199E+01  0.51100000000E-03 0. -1.
        -11    1    3    3    0    0  0.14358358609E+02 -0.99497040510E+00  0.98896098330E+01  0.17463012654E+02  0.51100000000E-03 0.  1.
         12    1    3    3    0    0  0.14575952755E+02 -0.18489764463E+02  0.14446180881E+02  0.27622851603E+02  0.00000000000E+00 0. -1.
</event>
<event>
 7    1  0.5417298E-010  0.4778727E+02  0.7816164E-02  0.1312668E+00
        -11   -1    0    0    0    0  0.00000000000E+00  0.00000000000E+00  0.45593999997E+02  0.45594000000E+02  0.51100000000E-03 0.  1.
         11   -1    0    0    0    0 -0.00000000000E+00 -0.00000000000E+00 -0.45593999997E+02  0.45594000000E+02  0.51100000000E-03 0. -1.
    9900012    2    1    2    0    0 -0.91332119113E+01  0.40599575541E+02  0.12324043280E+02  0.47787272625E+02  0.20000007207E+02 0.  0.
         12    1    1    2    0    0  0.91332119113E+01 -0.40599575541E+02 -0.12324043280E+02  0.43400727375E+02  0.00000000000E+00 0. -1.
         11    1    3    3    0    0 -0.87370363710E+01  0.12608868668E+02  0.57052369269E+01  0.16366707130E+02  0.51100000000E-03 0. -1.
        -11    1    3    3    0    0 -0.55825310872E+00  0.14831445105E+02  0.99208652708E+01  0.17852366185E+02  0.51100000000E-03 0.  1.
         12    1    3    3    0    0  0.16207756851E+00  0.13159261768E+02 -0.33020589174E+01  0.13568199309E+02  0.00000000000E+00 0. -1.
</event>
<event>
 7    1  0.5417298E-010  0.4778727E+02  0.7816164E-02  0.1312668E+00
        -11   -1    0    0    0    0  0.00000000000E+00  0.00000000000E+00  0.45593999997E+02  0.45594000000E+02  0.51100000000E-03 0.  1.
         11   -1    0    0    0    0 -0.00000000000E+00 -0.00000000000E+00 -0.45593999997E+02  0.45594000000E+02  0.51100000000E-03 0. -1.
    9900012    2    1    2    0    0  0.39434958737E+02 -0.17795396326E+02  0.34396658447E+01  0.47787269567E+02  0.19999993266E+02 0.  0.
         12    1    1    2    0    0 -0.39434958737E+02  0.17795396326E+02 -0.34396658447E+01  0.43400730433E+02  0.00000000000E+00 0. -1.
         11    1    3    3    0    0  0.27706633443E+01 -0.33304324779E+01 -0.25241046735E+01  0.50139266569E+01  0.51100000000E-03 0. -1.
        -11    1    3    3    0    0  0.13730590662E+02  0.23296278520E+01  0.22065218249E+01  0.14100532780E+02  0.51100000000E-03 0.  1.
         12    1    3    3    0    0  0.22933704730E+02 -0.16794591700E+02  0.37572486933E+01  0.28672810130E+02  0.00000000000E+00 0. -1.
</event>
<event>
 7    1  0.5417298E-010  0.4778728E+02  0.7816164E-02  0.1312668E+00
        -11   -1    0    0    0    0  0.00000000000E+00  0.00000000000E+00  0.45593999997E+02  0.45594000000E+02  0.51100000000E-03 0. -1.
         11   -1    0    0    0    0 -0.00000000000E+00 -0.00000000000E+00 -0.45593999997E+02  0.45594000000E+02  0.51100000000E-03 0.  1.
    9900012    2    1    2    0    0 -0.21022505954E+02 -0.49471860847E+01 -0.37645749401E+02  0.47787275874E+02  0.20000022019E+02 0.  0.
         12    1    1    2    0    0  0.21022505954E+02  0.49471860847E+01  0.37645749401E+02  0.43400724126E+02  0.00000000000E+00 0. -1.
         11    1    3    3    0    0 -0.11921328964E+02 -0.10849210519E+01 -0.24092713954E+02  0.26902676520E+02  0.51100000000E-03 0. -1.
        -11    1    3    3    0    0 -0.11013149863E+02 -0.16276754455E+00 -0.12354008832E+02  0.16551057298E+02  0.51100000000E-03 0.  1.
         12    1    3    3    0    0  0.19119728737E+01 -0.36994974882E+01 -0.11990266139E+01  0.43335420565E+01  0.00000000000E+00 0. -1.
</event>
<event>
 7    1  0.5417298E-010  0.4778727E+02  0.7816164E-02  0.1312668E+00
        -11   -1    0    0    0    0  0.00000000000E+00  0.00000000000E+00  0.45593999997E+02  0.45594000000E+02  0.51100000000E-03 0. -1.
         11   -1    0    0    0    0 -0.00000000000E+00 -0.00000000000E+00 -0.45593999997E+02  0.45594000000E+02  0.51100000000E-03 0.  1.
    9900012    2    1    2    0    0  0.37195783212E+02  0.21834890661E+02 -0.48306168603E+01  0.47787267308E+02  0.19999982962E+02 0.  0.
         12    1    1    2    0    0 -0.37195783212E+02 -0.21834890661E+02  0.48306168603E+01  0.43400732692E+02  0.00000000000E+00 0. -1.
         11    1    3    3    0    0  0.30786619309E+02  0.15759261761E+02 -0.54660763371E+00  0.34590013586E+02  0.51100000000E-03 0. -1.
        -11    1    3    3    0    0  0.46486018842E+01 -0.13423241615E+01 -0.13004715412E+01  0.50102455153E+01  0.51100000000E-03 0.  1.
        -12    1    3    3    0    0  0.17605620198E+01  0.74179530618E+01 -0.29835376853E+01  0.81870082064E+01  0.00000000000E+00 0.  1.
</event>
<event>
 7    1  0.5417298E-010  0.4778727E+02  0.7816164E-02  0.1312668E+00
        -11   -1    0    0    0    0  0.00000000000E+00  0.00000000000E+00  0.45593999997E+02  0.45594000000E+02  0.51100000000E-03 0.  1.
         11   -1    0    0    0    0 -0.00000000000E+00 -0.00000000000E+00 -0.45593999997E+02  0.45594000000E+02  0.51100000000E-03 0. -1.
    9900012    2    1    2    0    0  0.33693567264E+02 -0.18700078805E+02  0.19966829427E+02  0.47787266139E+02  0.19999977633E+02 0.  0.
         12    1    1    2    0    0 -0.33693567264E+02  0.18700078805E+02 -0.19966829427E+02  0.43400733861E+02  0.00000000000E+00 0. -1.
         11    1    3    3    0    0  0.16301978288E+02 -0.11051497353E+02  0.10228930432E+02  0.22192816583E+02  0.51100000000E-03 0. -1.
        -11    1    3    3    0    0  0.12852760663E+02 -0.10621205043E+02  0.11062387449E+02  0.20009494486E+02  0.51100000000E-03 0.  1.
         12    1    3    3    0    0  0.45388283130E+01  0.29726235907E+01 -0.13244884547E+01  0.55849550699E+01  0.00000000000E+00 0. -1.
</event>
<event>
 7    1  0.5417298E-010  0.4778732E+02  0.7816164E-02  0.1312668E+00
        -11   -1    0    0    0    0  0.00000000000E+00  0.00000000000E+00  0.45593999997E+02  0.45594000000E+02  0.51100000000E-03 0.  1.
         11   -1    0    0    0    0 -0.00000000000E+00 -0.00000000000E+00 -0.45593999997E+02  0.45594000000E+02  0.51100000000E-03 0. -1.
    9900012    2    1    2    0    0 -0.27616966644E+02  0.19473404115E+02  0.27234332770E+02  0.47787318025E+02  0.20000214203E+02 0.  0.
         12    1    1    2    0    0  0.27616966644E+02 -0.19473404115E+02 -0.27234332770E+02  0.43400681975E+02  0.00000000000E+00 0. -1.
         11    1    3    3    0    0 -0.11012862456E+02  0.15742179335E+02  0.83756367387E+01  0.20958307201E+02  0.51100000000E-03 0. -1.
        -11    1    3    3    0    0 -0.10817540158E+02  0.46251526486E+01  0.72284624839E+01  0.13808036871E+02  0.51100000000E-03 0.  1.
         12    1    3    3    0    0 -0.57865640305E+01 -0.89392786899E+00  0.11630233547E+02  0.13020973953E+02  0.00000000000E+00 0. -1.
</event>
<event>
 7    1  0.5417298E-010  0.4778727E+02  0.7816164E-02  0.1312668E+00
        -11   -1    0    0    0    0  0.00000000000E+00  0.00000000000E+00  0.45593999997E+02  0.45594000000E+02  0.51100000000E-03 0.  1.
         11   -1    0    0    0    0 -0.00000000000E+00 -0.00000000000E+00 -0.45593999997E+02  0.45594000000E+02  0.51100000000E-03 0. -1.
    9900012    2    1    2    0    0  0.18184269892E+02 -0.16858416223E+02  0.35619506590E+02  0.47787272832E+02  0.20000008149E+02 0.  0.
         12    1    1    2    0    0 -0.18184269892E+02  0.16858416223E+02 -0.35619506590E+02  0.43400727168E+02  0.00000000000E+00 0. -1.
         11    1    3    3    0    0  0.36978247307E+01 -0.86401109796E+01  0.17453512906E+02  0.19822980061E+02  0.51100000000E-03 0. -1.
        -11    1    3    3    0    0 -0.24051738221E+01 -0.15698076285E+00  0.31634246800E+01  0.39770290471E+01  0.51100000000E-03 0.  1.
         12    1    3    3    0    0  0.16891618983E+02 -0.80613244805E+01  0.15002569004E+02  0.23987263724E+02  0.00000000000E+00 0. -1.
</event>
<event>
 7    1  0.5417298E-010  0.4778727E+02  0.7816164E-02  0.1312668E+00
        -11   -1    0    0    0    0  0.00000000000E+00  0.00000000000E+00  0.45593999997E+02  0.45594000000E+02  0.51100000000E-03 0.  1.
         11   -1    0    0    0    0 -0.00000000000E+00 -0.00000000000E+00 -0.45593999997E+02  0.45594000000E+02  0.51100000000E-03 0. -1.
    9900012    2    1    2    0    0  0.14515262420E+02 -0.35039192190E+02  0.21099423769E+02  0.47787268257E+02  0.19999987290E+02 0.  0.
         12    1    1    2    0    0 -0.14515262420E+02  0.35039192190E+02 -0.21099423769E+02  0.43400731743E+02  0.00000000000E+00 0. -1.
         11    1    3    3    0    0  0.59365872299E+01 -0.78932649844E+01  0.39551058988E+01  0.10639058369E+02  0.51100000000E-03 0.  1.
        -11    1    3    3    0    0  0.96948731897E+01 -0.28128948293E+02  0.12500714490E+02  0.32272219652E+02  0.51100000000E-03 0. -1.
         12    1    3    3    0    0 -0.11161979994E+01  0.98302108724E+00  0.46436033795E+01  0.48759902356E+01  0.00000000000E+00 0. -1.
</event>
<event>
 7    1  0.5417298E-010  0.4778727E+02  0.7816164E-02  0.1312668E+00
        -11   -1    0    0    0    0  0.00000000000E+00  0.00000000000E+00  0.45593999997E+02  0.45594000000E+02  0.51100000000E-03 0. -1.
         11   -1    0    0    0    0 -0.00000000000E+00 -0.00000000000E+00 -0.45593999997E+02  0.45594000000E+02  0.51100000000E-03 0.  1.
    9900012    2    1    2    0    0 -0.27523699889E+02 -0.33545486330E+02 -0.87737740743E+00  0.47787268441E+02  0.19999988130E+02 0.  0.
         12    1    1    2    0    0  0.27523699889E+02  0.33545486330E+02  0.87737740743E+00  0.43400731559E+02  0.00000000000E+00 0. -1.
         11    1    3    3    0    0 -0.19283644399E+02 -0.94643247546E+01  0.28101497124E+01  0.21664009925E+02  0.51100000000E-03 0. -1.
        -11    1    3    3    0    0 -0.21434183662E-01 -0.27921191588E+01 -0.15738553608E+01  0.32052160269E+01  0.51100000000E-03 0.  1.
         12    1    3    3    0    0 -0.82186213063E+01 -0.21289042417E+02 -0.21136717590E+01  0.22918042489E+02  0.00000000000E+00 0. -1.
</event>
<event>
 7    1  0.5417298E-010  0.4778726E+02  0.7816164E-02  0.1312668E+00
        -11   -1    0    0    0    0  0.00000000000E+00  0.00000000000E+00  0.45593999997E+02  0.45594000000E+02  0.51100000000E-03 0.  1.
         11   -1    0    0    0    0 -0.00000000000E+00 -0.00000000000E+00 -0.45593999997E+02  0.45594000000E+02  0.51100000000E-03 0. -1.
    9900012    2    1    2    0    0  0.32834641743E+01 -0.25512765385E+02  0.34956284641E+02  0.47787260715E+02  0.19999952903E+02 0.  0.
         12    1    1    2    0    0 -0.32834641743E+01  0.25512765385E+02 -0.34956284641E+02  0.43400739285E+02  0.00000000000E+00 0. -1.
         11    1    3    3    0    0 -0.83434592096E+00 -0.18261442091E+01  0.16345104703E+02  0.16467950200E+02  0.51100000000E-03 0.  1.
        -11    1    3    3    0    0 -0.14682093771E+01 -0.87669607926E+01  0.93084159561E+01  0.12870969201E+02  0.51100000000E-03 0. -1.
        -12    1    3    3    0    0  0.55860194723E+01 -0.14919660383E+02  0.93027639824E+01  0.18448341313E+02  0.00000000000E+00 0.  1.
</event>
<event>
 7    1  0.5417298E-010  0.4778727E+02  0.7816164E-02  0.1312668E+00
        -11   -1    0    0    0    0  0.00000000000E+00  0.00000000000E+00  0.45593999997E+02  0.45594000000E+02  0.51100000000E-03 0.  1.
         11   -1    0    0    0    0 -0.00000000000E+00 -0.00000000000E+00 -0.45593999997E+02  0.45594000000E+02  0.51100000000E-03 0. -1.
    9900012    2    1    2    0    0  0.15362187411E+02  0.28900073024E+02  0.28502845138E+02  0.47787271852E+02  0.20000003680E+02 0.  0.
         12    1    1    2    0    0 -0.15362187411E+02 -0.28900073024E+02 -0.28502845138E+02  0.43400728148E+02  0.00000000000E+00 0. -1.
         11    1    3    3    0    0 -0.41287823818E+01  0.77410562543E+01  0.49239618402E+01  0.10060626042E+02  0.51100000000E-03 0. -1.
        -11    1    3    3    0    0  0.34239740536E+01  0.76316052835E+01  0.54678676956E+01  0.99931263837E+01  0.51100000000E-03 0.  1.
         12    1    3    3    0    0  0.16066995739E+02  0.13527411486E+02  0.18111015603E+02  0.27733519426E+02  0.00000000000E+00 0. -1.
</event>
<event>
 7    1  0.5417298E-010  0.4778727E+02  0.7816164E-02  0.1312668E+00
        -11   -1    0    0    0    0  0.00000000000E+00  0.00000000000E+00  0.45593999997E+02  0.45594000000E+02  0.51100000000E-03 0.  1.
         11   -1    0    0    0    0 -0.00000000000E+00 -0.00000000000E+00 -0.45593999997E+02  0.45594000000E+02  0.51100000000E-03 0. -1.
    9900012    2    1    2    0    0 -0.63241341710E+01  0.19181871857E+02  0.38414639816E+02  0.47787269209E+02  0.19999991633E+02 0.  0.
         12    1    1    2    0    0  0.63241341710E+01 -0.19181871857E+02 -0.38414639816E+02  0.43400730791E+02  0.00000000000E+00 0. -1.
         11    1    3    3    0    0 -0.58465314551E+01  0.59428288547E+01  0.46205825090E+01  0.95314703920E+01  0.51100000000E-03 0. -1.
        -11    1    3    3    0    0 -0.57595699747E+01  0.37723434854E+01  0.16017811046E+02  0.17434835607E+02  0.51100000000E-03 0.  1.
         12    1    3    3    0    0  0.52819672588E+01  0.94666995167E+01  0.17776246261E+02  0.20820963210E+02  0.00000000000E+00 0. -1.
</event>
<event>
 7    1  0.5417298E-010  0.4778727E+02  0.7816164E-02  0.1312668E+00
        -11   -1    0    0    0    0  0.00000000000E+00  0.00000000000E+00  0.45593999997E+02  0.45594000000E+02  0.51100000000E-03 0. -1.
         11   -1    0    0    0    0 -0.00000000000E+00 -0.00000000000E+00 -0.45593999997E+02  0.45594000000E+02  0.51100000000E-03 0.  1.
    9900012    2    1    2    0    0 -0.91105071057E+00 -0.17772834934E+02 -0.39584337490E+02  0.47787269021E+02  0.19999990775E+02 0.  0.
         12    1    1    2    0    0  0.91105071057E+00  0.17772834934E+02  0.39584337490E+02  0.43400730979E+02  0.00000000000E+00 0. -1.
         11    1    3    3    0    0 -0.16272310226E+01  0.24939643196E+01 -0.55622400899E+01  0.63092197542E+01  0.51100000000E-03 0. -1.
        -11    1    3    3    0    0  0.34853319506E+01 -0.19897878103E+01 -0.12388192660E+02  0.13022062508E+02  0.51100000000E-03 0.  1.
        -12    1    3    3    0    0 -0.27691516385E+01 -0.18277011444E+02 -0.21633904740E+02  0.28455986759E+02  0.00000000000E+00 0.  1.
</event>
<event>
 7    1  0.5417298E-010  0.4778727E+02  0.7816164E-02  0.1312668E+00
        -11   -1    0    0    0    0  0.00000000000E+00  0.00000000000E+00  0.45593999997E+02  0.45594000000E+02  0.51100000000E-03 0. -1.
         11   -1    0    0    0    0 -0.00000000000E+00 -0.00000000000E+00 -0.45593999997E+02  0.45594000000E+02  0.51100000000E-03 0.  1.
    9900012    2    1    2    0    0  0.41826661291E+02  0.40562377804E+01  0.10848993656E+02  0.47787270478E+02  0.19999997418E+02 0.  0.
         12    1    1    2    0    0 -0.41826661291E+02 -0.40562377804E+01 -0.10848993656E+02  0.43400729522E+02  0.00000000000E+00 0. -1.
         11    1    3    3    0    0  0.79284764628E-01 -0.11740135685E+00 -0.10373833783E+01  0.10470117894E+01  0.51100000000E-03 0. -1.
        -11    1    3    3    0    0  0.13205497430E+02  0.52219022466E+01 -0.30276968672E+01  0.14519654749E+02  0.51100000000E-03 0.  1.
         12    1    3    3    0    0  0.28541879097E+02 -0.10482631093E+01  0.14914073902E+02  0.32220603940E+02  0.00000000000E+00 0. -1.
</event>
<event>
 7    1  0.5417298E-010  0.4778727E+02  0.7816164E-02  0.1312668E+00
        -11   -1    0    0    0    0  0.00000000000E+00  0.00000000000E+00  0.45593999997E+02  0.45594000000E+02  0.51100000000E-03 0. -1.
         11   -1    0    0    0    0 -0.00000000000E+00 -0.00000000000E+00 -0.45593999997E+02  0.45594000000E+02  0.51100000000E-03 0.  1.
    9900012    2    1    2    0    0 -0.28204438967E+02  0.27200056125E+02 -0.18662528734E+02  0.47787269483E+02  0.19999992881E+02 0.  0.
         12    1    1    2    0    0  0.28204438967E+02 -0.27200056125E+02  0.18662528734E+02  0.43400730517E+02  0.00000000000E+00 0. -1.
         11    1    3    3    0    0 -0.39236633582E-01 -0.35007839371E+00  0.94243614175E+00  0.10061215322E+01  0.51100000000E-03 0. -1.
        -11    1    3    3    0    0 -0.19801079024E+02  0.27714977089E+02 -0.14845926611E+02  0.37156482917E+02  0.51100000000E-03 0.  1.
         12    1    3    3    0    0 -0.83641233093E+01 -0.16484257049E+00 -0.47590382645E+01  0.96246650336E+01  0.00000000000E+00 0. -1.
</event>
<event>
 7    1  0.5417298E-010  0.4778727E+02  0.7816164E-02  0.1312668E+00
        -11   -1    0    0    0    0  0.00000000000E+00  0.00000000000E+00  0.45593999997E+02  0.45594000000E+02  0.51100000000E-03 0. -1.
         11   -1    0    0    0    0 -0.00000000000E+00 -0.00000000000E+00 -0.45593999997E+02  0.45594000000E+02  0.51100000000E-03 0.  1.
    9900012    2    1    2    0    0 -0.18021445119E+02  0.15962661748E+02 -0.36111552956E+02  0.47787270615E+02  0.19999998042E+02 0.  0.
         12    1    1    2    0    0  0.18021445119E+02 -0.15962661748E+02  0.36111552956E+02  0.43400729385E+02  0.00000000000E+00 0. -1.
         11    1    3    3    0    0  0.52147754978E+00  0.45852283921E+00 -0.64374183971E+01  0.64747616102E+01  0.51100000000E-03 0. -1.
        -11    1    3    3    0    0  0.23822370957E+01 -0.30364297377E+00 -0.36297823552E+01  0.43523066118E+01  0.51100000000E-03 0.  1.
        -12    1    3    3    0    0 -0.20925159764E+02  0.15807781882E+02 -0.26044352204E+02  0.36960202393E+02  0.00000000000E+00 0.  1.
</event>
<event>
 7    1  0.5417298E-010  0.4778727E+02  0.7816164E-02  0.1312668E+00
        -11   -1    0    0    0    0  0.00000000000E+00  0.00000000000E+00  0.45593999997E+02  0.45594000000E+02  0.51100000000E-03 0. -1.
         11   -1    0    0    0    0 -0.00000000000E+00 -0.00000000000E+00 -0.45593999997E+02  0.45594000000E+02  0.51100000000E-03 0.  1.
    9900012    2    1    2    0    0  0.11038926306E+02 -0.41283596155E+02  0.75782662424E+01  0.47787270458E+02  0.19999997327E+02 0.  0.
         12    1    1    2    0    0 -0.11038926306E+02  0.41283596155E+02 -0.75782662424E+01  0.43400729542E+02  0.00000000000E+00 0. -1.
         11    1    3    3    0    0  0.69619894109E+01 -0.10182158346E+02  0.54704466253E+01  0.13493384738E+02  0.51100000000E-03 0. -1.
        -11    1    3    3    0    0  0.17722049792E+01 -0.40383943852E+00 -0.25789932430E+01  0.31551550183E+01  0.51100000000E-03 0.  1.
        -12    1    3    3    0    0  0.23047319162E+01 -0.30697598371E+02  0.46868128601E+01  0.31138730702E+02  0.00000000000E+00 0.  1.
</event>
<event>
 7    1  0.5417298E-010  0.4778727E+02  0.7816164E-02  0.1312668E+00
        -11   -1    0    0    0    0  0.00000000000E+00  0.00000000000E+00  0.45593999997E+02  0.45594000000E+02  0.51100000000E-03 0.  1.
         11   -1    0    0    0    0 -0.00000000000E+00 -0.00000000000E+00 -0.45593999997E+02  0.45594000000E+02  0.51100000000E-03 0. -1.
    9900012    2    1    2    0    0 -0.24934504555E+02  0.82580716746E+01  0.34549932111E+02  0.47787273347E+02  0.20000010496E+02 0.  0.
         12    1    1    2    0    0  0.24934504555E+02 -0.82580716746E+01 -0.34549932111E+02  0.43400726653E+02  0.00000000000E+00 0. -1.
         11    1    3    3    0    0 -0.41508889248E+01  0.52797623921E+01  0.13538457550E+02  0.15112762913E+02  0.51100000000E-03 0. -1.
        -11    1    3    3    0    0 -0.62303121008E+01 -0.27436199960E+01  0.13937385159E+02  0.15511123263E+02  0.51100000000E-03 0.  1.
        -12    1    3    3    0    0 -0.14553303529E+02  0.57219292784E+01  0.70740894023E+01  0.17163387170E+02  0.00000000000E+00 0.  1.
</event>
<event>
 7    1  0.5417298E-010  0.4778726E+02  0.7816164E-02  0.1312668E+00
        -11   -1    0    0    0    0  0.00000000000E+00  0.00000000000E+00  0.45593999997E+02  0.45594000000E+02  0.51100000000E-03 0.  1.
         11   -1    0    0    0    0 -0.00000000000E+00 -0.00000000000E+00 -0.45593999997E+02  0.45594000000E+02  0.51100000000E-03 0. -1.
    9900012    2    1    2    0    0  0.12766100605E+02  0.14595938990E+02  0.38827947383E+02  0.47787259711E+02  0.19999948327E+02 0.  0.
         12    1    1    2    0    0 -0.12766100605E+02 -0.14595938990E+02 -0.38827947383E+02  0.43400740289E+02  0.00000000000E+00 0. -1.
         11    1    3    3    0    0  0.35994264057E+01  0.17453357467E+01  0.65020183481E+01  0.76340231975E+01  0.51100000000E-03 0. -1.
        -11    1    3    3    0    0  0.12289070193E+01 -0.25169363813E+01 -0.68672586367E+00  0.28838817387E+01  0.51100000000E-03 0.  1.
         12    1    3    3    0    0  0.79377671803E+01  0.15367539624E+02  0.33012654898E+02  0.37269354775E+02  0.00000000000E+00 0. -1.
</event>
<event>
 7    1  0.5417298E-010  0.4778728E+02  0.7816164E-02  0.1312668E+00
        -11   -1    0    0    0    0  0.00000000000E+00  0.00000000000E+00  0.45593999997E+02  0.45594000000E+02  0.51100000000E-03 0.  1.
         11   -1    0    0    0    0 -0.00000000000E+00 -0.00000000000E+00 -0.45593999997E+02  0.45594000000E+02  0.51100000000E-03 0. -1.
    9900012    2    1    2    0    0  0.60281089562E+01  0.13699764476E+02  0.40738204036E+02  0.47787275209E+02  0.20000018989E+02 0.  0.
         12    1    1    2    0    0 -0.60281089562E+01 -0.13699764476E+02 -0.40738204036E+02  0.43400724791E+02  0.00000000000E+00 0. -1.
         11    1    3    3    0    0  0.27754236409E+01  0.18051612735E+02  0.28318163902E+02  0.33696915374E+02  0.51100000000E-03 0. -1.
        -11    1    3    3    0    0  0.13939217562E+01 -0.94557975726E+00  0.84952229482E+00  0.18864854440E+01  0.51100000000E-03 0.  1.
         12    1    3    3    0    0  0.18587635591E+01 -0.34062685019E+01  0.11570517839E+02  0.12203874391E+02  0.00000000000E+00 0. -1.
</event>
<event>
 7    1  0.5417298E-010  0.4778727E+02  0.7816164E-02  0.1312668E+00
        -11   -1    0    0    0    0  0.00000000000E+00  0.00000000000E+00  0.45593999997E+02  0.45594000000E+02  0.51100000000E-03 0.  1.
         11   -1    0    0    0    0 -0.00000000000E+00 -0.00000000000E+00 -0.45593999997E+02  0.45594000000E+02  0.51100000000E-03 0. -1.
    9900012    2    1    2    0    0 -0.14109211421E+02 -0.13064426462E+02  0.38908538294E+02  0.47787269155E+02  0.19999991385E+02 0.  0.
         12    1    1    2    0    0  0.14109211421E+02  0.13064426462E+02 -0.38908538294E+02  0.43400730845E+02  0.00000000000E+00 0. -1.
         11    1    3    3    0    0 -0.75522804160E+00 -0.43591640485E+01  0.41745057904E+01  0.60826950812E+01  0.51100000000E-03 0. -1.
        -11    1    3    3    0    0  0.72846988782E+00 -0.55127086922E+01  0.21187956174E+02  0.21905481336E+02  0.51100000000E-03 0.  1.
         12    1    3    3    0    0 -0.14082453267E+02 -0.31925537218E+01  0.13546076330E+02  0.19799092737E+02  0.00000000000E+00 0. -1.
</event>
<event>
 7    1  0.5417298E-010  0.4778727E+02  0.7816164E-02  0.1312668E+00
        -11   -1    0    0    0    0  0.00000000000E+00  0.00000000000E+00  0.45593999997E+02  0.45594000000E+02  0.51100000000E-03 0.  1.
         11   -1    0    0    0    0 -0.00000000000E+00 -0.00000000000E+00 -0.45593999997E+02  0.45594000000E+02  0.51100000000E-03 0. -1.
    9900012    2    1    2    0    0 -0.37597835956E+02 -0.80389062197E+01  0.20134593242E+02  0.47787272738E+02  0.20000007723E+02 0.  0.
         12    1    1    2    0    0  0.37597835956E+02  0.80389062197E+01 -0.20134593242E+02  0.43400727262E+02  0.00000000000E+00 0. -1.
         11    1    3    3    0    0 -0.15367887527E+02 -0.26426564469E+01  0.13163618355E+02  0.20406774577E+02  0.51100000000E-03 0.  1.
        -11    1    3    3    0    0 -0.16508186276E+02 -0.89005884362E+01  0.83517488778E+01  0.20530280033E+02  0.51100000000E-03 0. -1.
         12    1    3    3    0    0 -0.57217621528E+01  0.35043386634E+01 -0.13807739912E+01  0.68502181291E+01  0.00000000000E+00 0. -1.
</event>
<event>
 7    1  0.5417298E-010  0.4778727E+02  0.7816164E-02  0.1312668E+00
        -11   -1    0    0    0    0  0.00000000000E+00  0.00000000000E+00  0.45593999997E+02  0.45594000000E+02  0.51100000000E-03 0.  1.
         11   -1    0    0    0    0 -0.00000000000E+00 -0.00000000000E+00 -0.45593999997E+02  0.45594000000E+02  0.51100000000E-03 0. -1.
    9900012    2    1    2    0    0 -0.79141183346E+01  0.42434637276E+02 -0.45046162711E+01  0.47787271003E+02  0.19999999810E+02 0.  0.
         12    1    1    2    0    0  0.79141183346E+01 -0.42434637276E+02  0.45046162711E+01  0.43400728997E+02  0.00000000000E+00 0. -1.
         11    1    3    3    0    0 -0.12959493879E+02  0.18896049462E+02 -0.31493426572E+01  0.23128500304E+02  0.51100000000E-03 0. -1.
        -11    1    3    3    0    0 -0.20679648295E+00  0.11268986601E+02 -0.39526858530E+00  0.11277812790E+02  0.51100000000E-03 0.  1.
         12    1    3    3    0    0  0.52521720272E+01  0.12269601212E+02 -0.96000502869E+00  0.13380957909E+02  0.00000000000E+00 0. -1.
</event>
<event>
 7    1  0.5417298E-010  0.4778726E+02  0.7816164E-02  0.1312668E+00
        -11   -1    0    0    0    0  0.00000000000E+00  0.00000000000E+00  0.45593999997E+02  0.45594000000E+02  0.51100000000E-03 0.  1.
         11   -1    0    0    0    0 -0.00000000000E+00 -0.00000000000E+00 -0.45593999997E+02  0.45594000000E+02  0.51100000000E-03 0. -1.
    9900012    2    1    2    0    0  0.34599548204E+02 -0.25423277623E+02  0.63365762338E+01  0.47787262917E+02  0.19999962942E+02 0.  0.
         12    1    1    2    0    0 -0.34599548204E+02  0.25423277623E+02 -0.63365762338E+01  0.43400737083E+02  0.00000000000E+00 0. -1.
         11    1    3    3    0    0  0.78496178069E+01 -0.10903834335E+02  0.47832912301E+01  0.14261485833E+02  0.51100000000E-03 0. -1.
        -11    1    3    3    0    0  0.71353127334E+01 -0.43278848872E+01  0.68490081442E+01  0.10795933874E+02  0.51100000000E-03 0.  1.
         12    1    3    3    0    0  0.19614617663E+02 -0.10191558401E+02 -0.52957231404E+01  0.22729843209E+02  0.00000000000E+00 0. -1.
</event>
<event>
 7    1  0.5417298E-010  0.4778727E+02  0.7816164E-02  0.1312668E+00
        -11   -1    0    0    0    0  0.00000000000E+00  0.00000000000E+00  0.45593999997E+02  0.45594000000E+02  0.51100000000E-03 0.  1.
         11   -1    0    0    0    0 -0.00000000000E+00 -0.00000000000E+00 -0.45593999997E+02  0.45594000000E+02  0.51100000000E-03 0. -1.
    9900012    2    1    2    0    0 -0.26943336168E+02 -0.83004571524E+01 -0.32996706998E+02  0.47787266993E+02  0.19999981528E+02 0.  0.
         12    1    1    2    0    0  0.26943336168E+02  0.83004571524E+01  0.32996706998E+02  0.43400733007E+02  0.00000000000E+00 0. -1.
         11    1    3    3    0    0 -0.51530526726E+01  0.28798122028E+00 -0.71133681218E-01  0.51615836030E+01  0.51100000000E-03 0. -1.
        -11    1    3    3    0    0 -0.11482550224E+02 -0.64530750916E+01 -0.76175163583E+01  0.15215705488E+02  0.51100000000E-03 0.  1.
         12    1    3    3    0    0 -0.10307733272E+02 -0.21353632811E+01 -0.25308056959E+02  0.27409977902E+02  0.00000000000E+00 0. -1.
</event>
<event>
 7    1  0.5417298E-010  0.4778726E+02  0.7816164E-02  0.1312668E+00
        -11   -1    0    0    0    0  0.00000000000E+00  0.00000000000E+00  0.45593999997E+02  0.45594000000E+02  0.51100000000E-03 0.  1.
         11   -1    0    0    0    0 -0.00000000000E+00 -0.00000000000E+00 -0.45593999997E+02  0.45594000000E+02  0.51100000000E-03 0. -1.
    9900012    2    1    2    0    0  0.19333329598E+02 -0.38836285485E+02  0.12608243618E+01  0.47787258282E+02  0.19999941811E+02 0.  0.
         12    1    1    2    0    0 -0.19333329598E+02  0.38836285485E+02 -0.12608243618E+01  0.43400741718E+02  0.00000000000E+00 0. -1.
         11    1    3    3    0    0 -0.26438230542E+01 -0.41523312331E+01  0.14888080293E+01  0.51427817979E+01  0.51100000000E-03 0. -1.
        -11    1    3    3    0    0  0.34390643952E+01 -0.41610859509E+00 -0.12153088688E+01  0.36711423542E+01  0.51100000000E-03 0.  1.
        -12    1    3    3    0    0  0.18538088257E+02 -0.34267845657E+02  0.98732520128E+00  0.38973334130E+02  0.00000000000E+00 0.  1.
</event>
<event>
 7    1  0.5417298E-010  0.4778727E+02  0.7816164E-02  0.1312668E+00
        -11   -1    0    0    0    0  0.00000000000E+00  0.00000000000E+00  0.45593999997E+02  0.45594000000E+02  0.51100000000E-03 0.  1.
         11   -1    0    0    0    0 -0.00000000000E+00 -0.00000000000E+00 -0.45593999997E+02  0.45594000000E+02  0.51100000000E-03 0. -1.
    9900012    2    1    2    0    0 -0.81166477056E+01  0.29691413751E+02  0.30596790856E+02  0.47787266928E+02  0.19999981233E+02 0.  0.
         12    1    1    2    0    0  0.81166477056E+01 -0.29691413751E+02 -0.30596790856E+02  0.43400733072E+02  0.00000000000E+00 0. -1.
         11    1    3    3    0    0 -0.95416762407E+00  0.15762486112E+00 -0.20451906366E+01  0.22623188221E+01  0.51100000000E-03 0. -1.
        -11    1    3    3    0    0 -0.75408107256E+00  0.12141336505E+02  0.75068831239E+01  0.14294543885E+02  0.51100000000E-03 0.  1.
        -12    1    3    3    0    0 -0.64083990090E+01  0.17392452385E+02  0.25135098368E+02  0.31230404221E+02  0.00000000000E+00 0.  1.
</event>
<event>
 7    1  0.5417298E-010  0.4778727E+02  0.7816164E-02  0.1312668E+00
        -11   -1    0    0    0    0  0.00000000000E+00  0.00000000000E+00  0.45593999997E+02  0.45594000000E+02  0.51100000000E-03 0. -1.
         11   -1    0    0    0    0 -0.00000000000E+00 -0.00000000000E+00 -0.45593999997E+02  0.45594000000E+02  0.51100000000E-03 0.  1.
    9900012    2    1    2    0    0 -0.16370362891E+02 -0.40168447209E+02 -0.14595796648E+01  0.47787270684E+02  0.19999998356E+02 0.  0.
         12    1    1    2    0    0  0.16370362891E+02  0.40168447209E+02  0.14595796648E+01  0.43400729316E+02  0.00000000000E+00 0. -1.
         11    1    3    3    0    0 -0.64601373234E+01 -0.18247036744E+02 -0.42895336713E+01  0.19826442534E+02  0.51100000000E-03 0. -1.
        -11    1    3    3    0    0 -0.11446885792E+02 -0.22935892623E+02  0.37430431419E+01  0.25905534871E+02  0.51100000000E-03 0.  1.
         12    1    3    3    0    0  0.15366602244E+01  0.10144821573E+01 -0.91308913537E+00  0.20552932788E+01  0.00000000000E+00 0. -1.
</event>
<event>
 7    1  0.5417298E-010  0.4778727E+02  0.7816164E-02  0.1312668E+00
        -11   -1    0    0    0    0  0.00000000000E+00  0.00000000000E+00  0.45593999997E+02  0.45594000000E+02  0.51100000000E-03 0.  1.
         11   -1    0    0    0    0 -0.00000000000E+00 -0.00000000000E+00 -0.45593999997E+02  0.45594000000E+02  0.51100000000E-03 0. -1.
    9900012    2    1    2    0    0 -0.39252946364E+02 -0.18511791735E+02 -0.37798965710E+00  0.47787272959E+02  0.20000008729E+02 0.  0.
         12    1    1    2    0    0  0.39252946364E+02  0.18511791735E+02  0.37798965710E+00  0.43400727041E+02  0.00000000000E+00 0. -1.
         11    1    3    3    0    0 -0.15511684273E+02 -0.21801810094E+01 -0.71216524875E+01  0.17207076237E+02  0.51100000000E-03 0. -1.
        -11    1    3    3    0    0 -0.10579182965E+02 -0.48827779340E+01 -0.56740879550E+00  0.11665444079E+02  0.51100000000E-03 0.  1.
        -12    1    3    3    0    0 -0.13162079127E+02 -0.11448832791E+02  0.73110716259E+01  0.18914752643E+02  0.00000000000E+00 0.  1.
</event>
<event>
 7    1  0.5417298E-010  0.4778727E+02  0.7816164E-02  0.1312668E+00
        -11   -1    0    0    0    0  0.00000000000E+00  0.00000000000E+00  0.45593999997E+02  0.45594000000E+02  0.51100000000E-03 0.  1.
         11   -1    0    0    0    0 -0.00000000000E+00 -0.00000000000E+00 -0.45593999997E+02  0.45594000000E+02  0.51100000000E-03 0. -1.
    9900012    2    1    2    0    0 -0.33025039148E+02 -0.10698578555E+02  0.26048239875E+02  0.47787267352E+02  0.19999983165E+02 0.  0.
         12    1    1    2    0    0  0.33025039148E+02  0.10698578555E+02 -0.26048239875E+02  0.43400732648E+02  0.00000000000E+00 0. -1.
         11    1    3    3    0    0  0.88985445933E+00 -0.97424816743E+00  0.70139071657E+01  0.71369387303E+01  0.51100000000E-03 0. -1.
        -11    1    3    3    0    0 -0.10873186963E+02 -0.17823404004E+01  0.92549909135E+01  0.14389502740E+02  0.51100000000E-03 0.  1.
         12    1    3    3    0    0 -0.23041706644E+02 -0.79419899874E+01  0.97793417954E+01  0.26260825882E+02  0.00000000000E+00 0. -1.
</event>
<event>
 7    1  0.5417298E-010  0.4778730E+02  0.7816164E-02  0.1312668E+00
        -11   -1    0    0    0    0  0.00000000000E+00  0.00000000000E+00  0.45593999997E+02  0.45594000000E+02  0.51100000000E-03 0.  1.
         11   -1    0    0    0    0 -0.00000000000E+00 -0.00000000000E+00 -0.45593999997E+02  0.45594000000E+02  0.51100000000E-03 0. -1.
    9900012    2    1    2    0    0 -0.21795642775E+02  0.28667764176E+02  0.24222518829E+02  0.47787295337E+02  0.20000110758E+02 0.  0.
         12    1    1    2    0    0  0.21795642775E+02 -0.28667764176E+02 -0.24222518829E+02  0.43400704663E+02  0.00000000000E+00 0. -1.
         11    1    3    3    0    0 -0.52173212424E+00  0.51191029173E+01  0.10507622691E+02  0.11699895468E+02  0.51100000000E-03 0. -1.
        -11    1    3    3    0    0 -0.79863418910E+01  0.52142953459E+01  0.86691818469E+01  0.12888958333E+02  0.51100000000E-03 0.  1.
         12    1    3    3    0    0 -0.13287568760E+02  0.18334365913E+02  0.50457142912E+01  0.23198441535E+02  0.00000000000E+00 0. -1.
</event>
<event>
 7    1  0.5417298E-010  0.4778727E+02  0.7816164E-02  0.1312668E+00
        -11   -1    0    0    0    0  0.00000000000E+00  0.00000000000E+00  0.45593999997E+02  0.45594000000E+02  0.51100000000E-03 0. -1.
         11   -1    0    0    0    0 -0.00000000000E+00 -0.00000000000E+00 -0.45593999997E+02  0.45594000000E+02  0.51100000000E-03 0.  1.
    9900012    2    1    2    0    0 -0.38259357863E+02 -0.20438679043E+02  0.14510348179E+01  0.47787267666E+02  0.19999984597E+02 0.  0.
         12    1    1    2    0    0  0.38259357863E+02  0.20438679043E+02 -0.14510348179E+01  0.43400732334E+02  0.00000000000E+00 0. -1.
         11    1    3    3    0    0  0.11418284282E+01 -0.85392672354E+00 -0.22182973644E+01  0.26370071040E+01  0.51100000000E-03 0. -1.
        -11    1    3    3    0    0 -0.21322622240E+02 -0.15369524580E+02  0.39802284209E+01  0.26584181830E+02  0.51100000000E-03 0.  1.
        -12    1    3    3    0    0 -0.18078564051E+02 -0.42152277390E+01 -0.31089623854E+00  0.18566078733E+02  0.00000000000E+00 0.  1.
</event>
<event>
 7    1  0.5417298E-010  0.4778727E+02  0.7816164E-02  0.1312668E+00
        -11   -1    0    0    0    0  0.00000000000E+00  0.00000000000E+00  0.45593999997E+02  0.45594000000E+02  0.51100000000E-03 0. -1.
         11   -1    0    0    0    0 -0.00000000000E+00 -0.00000000000E+00 -0.45593999997E+02  0.45594000000E+02  0.51100000000E-03 0.  1.
    9900012    2    1    2    0    0  0.35642683084E+02  0.14860343286E+00 -0.24762877237E+02  0.47787273860E+02  0.20000012838E+02 0.  0.
         12    1    1    2    0    0 -0.35642683084E+02 -0.14860343286E+00  0.24762877237E+02  0.43400726140E+02  0.00000000000E+00 0. -1.
         11    1    3    3    0    0  0.14661032939E+02 -0.15144985349E+01 -0.14802972706E+02  0.20889413439E+02  0.51100000000E-03 0. -1.
        -11    1    3    3    0    0  0.19046886905E+02  0.61702120524E+01 -0.87254250371E+01  0.21840065473E+02  0.51100000000E-03 0.  1.
         12    1    3    3    0    0  0.19347632411E+01 -0.45071100847E+01 -0.12344794937E+01  0.50577949479E+01  0.00000000000E+00 0. -1.
</event>
<event>
 7    1  0.5417298E-010  0.4778727E+02  0.7816164E-02  0.1312668E+00
        -11   -1    0    0    0    0  0.00000000000E+00  0.00000000000E+00  0.45593999997E+02  0.45594000000E+02  0.51100000000E-03 0.  1.
         11   -1    0    0    0    0 -0.00000000000E+00 -0.00000000000E+00 -0.45593999997E+02  0.45594000000E+02  0.51100000000E-03 0. -1.
    9900012    2    1    2    0    0  0.35364449057E+02  0.15640354379E+02  0.19706807444E+02  0.47787271874E+02  0.20000003784E+02 0.  0.
         12    1    1    2    0    0 -0.35364449057E+02 -0.15640354379E+02 -0.19706807444E+02  0.43400728126E+02  0.00000000000E+00 0. -1.
         11    1    3    3    0    0  0.21138504773E+02  0.12480564709E+02  0.20539754026E+02  0.32007536225E+02  0.51100000000E-03 0. -1.
        -11    1    3    3    0    0  0.62958146096E+01 -0.50850163794E+00  0.19488393883E+01  0.66101309168E+01  0.51100000000E-03 0.  1.
         12    1    3    3    0    0  0.79301296746E+01  0.36682913076E+01 -0.27817859702E+01  0.91696047329E+01  0.00000000000E+00 0. -1.
</event>
<event>
 7    1  0.5417298E-010  0.4778727E+02  0.7816164E-02  0.1312668E+00
        -11   -1    0    0    0    0  0.00000000000E+00  0.00000000000E+00  0.45593999997E+02  0.45594000000E+02  0.51100000000E-03 0. -1.
         11   -1    0    0    0    0 -0.00000000000E+00 -0.00000000000E+00 -0.45593999997E+02  0.45594000000E+02  0.51100000000E-03 0.  1.
    9900012    2    1    2    0    0  0.39127989784E+02 -0.11197972957E+02 -0.15074120306E+02  0.47787270907E+02  0.19999999371E+02 0.  0.
         12    1    1    2    0    0 -0.39127989784E+02  0.11197972957E+02  0.15074120306E+02  0.43400729093E+02  0.00000000000E+00 0. -1.
         11    1    3    3    0    0  0.69203860118E+01 -0.41918922465E+01 -0.69451239437E+01  0.10662947529E+02  0.51100000000E-03 0. -1.
        -11    1    3    3    0    0  0.33255113983E+02 -0.69157571576E+01 -0.96175051878E+01  0.35301936341E+02  0.51100000000E-03 0.  1.
         12    1    3    3    0    0 -0.10475102117E+01 -0.90323552669E-01  0.14885088252E+01  0.18223870364E+01  0.00000000000E+00 0. -1.
</event>
<event>
 7    1  0.5417298E-010  0.4778727E+02  0.7816164E-02  0.1312668E+00
        -11   -1    0    0    0    0  0.00000000000E+00  0.00000000000E+00  0.45593999997E+02  0.45594000000E+02  0.51100000000E-03 0. -1.
         11   -1    0    0    0    0 -0.00000000000E+00 -0.00000000000E+00 -0.45593999997E+02  0.45594000000E+02  0.51100000000E-03 0.  1.
    9900012    2    1    2    0    0 -0.41283999629E+02 -0.75176842066E+01  0.11078773024E+02  0.47787269443E+02  0.19999992699E+02 0.  0.
         12    1    1    2    0    0  0.41283999629E+02  0.75176842066E+01 -0.11078773024E+02  0.43400730557E+02  0.00000000000E+00 0. -1.
         11    1    3    3    0    0 -0.13127113109E+02 -0.37735129207E+00  0.65279957217E+01  0.14665545369E+02  0.51100000000E-03 0.  1.
        -11    1    3    3    0    0 -0.92555082343E+01 -0.36348149651E+01  0.89755043327E+01  0.13395371992E+02  0.51100000000E-03 0. -1.
        -12    1    3    3    0    0 -0.18901378286E+02 -0.35055179494E+01 -0.44247270309E+01  0.19726352083E+02  0.00000000000E+00 0.  1.
</event>
<event>
 7    1  0.5417298E-010  0.4778727E+02  0.7816164E-02  0.1312668E+00
        -11   -1    0    0    0    0  0.00000000000E+00  0.00000000000E+00  0.45593999997E+02  0.45594000000E+02  0.51100000000E-03 0. -1.
         11   -1    0    0    0    0 -0.00000000000E+00 -0.00000000000E+00 -0.45593999997E+02  0.45594000000E+02  0.51100000000E-03 0.  1.
    9900012    2    1    2    0    0  0.10977021473E+02  0.31463012262E+02 -0.27806599735E+02  0.47787272704E+02  0.20000007566E+02 0.  0.
         12    1    1    2    0    0 -0.10977021473E+02 -0.31463012262E+02  0.27806599735E+02  0.43400727296E+02  0.00000000000E+00 0. -1.
         11    1    3    3    0    0  0.77137388426E+01  0.23574063851E+02 -0.18731757555E+02  0.31082422601E+02  0.51100000000E-03 0. -1.
        -11    1    3    3    0    0  0.32121720726E+01  0.10345180828E+02 -0.92464378926E+01  0.14242100609E+02  0.51100000000E-03 0.  1.
         12    1    3    3    0    0  0.51110558053E-01 -0.24562324180E+01  0.17159571213E+00  0.24627494937E+01  0.00000000000E+00 0. -1.
</event>
<event>
 7    1  0.5417298E-010  0.4778728E+02  0.7816164E-02  0.1312668E+00
        -11   -1    0    0    0    0  0.00000000000E+00  0.00000000000E+00  0.45593999997E+02  0.45594000000E+02  0.51100000000E-03 0.  1.
         11   -1    0    0    0    0 -0.00000000000E+00 -0.00000000000E+00 -0.45593999997E+02  0.45594000000E+02  0.51100000000E-03 0. -1.
    9900012    2    1    2    0    0  0.17996485970E+02 -0.25233565082E+02  0.30381180449E+02  0.47787280657E+02  0.20000043829E+02 0.  0.
         12    1    1    2    0    0 -0.17996485970E+02  0.25233565082E+02 -0.30381180449E+02  0.43400719343E+02  0.00000000000E+00 0. -1.
         11    1    3    3    0    0  0.89491297711E+01 -0.40209316270E+01  0.85530782998E+01  0.13015758275E+02  0.51100000000E-03 0. -1.
        -11    1    3    3    0    0  0.10700810160E+01 -0.30485268083E+00  0.88150743970E+01  0.88850180317E+01  0.51100000000E-03 0.  1.
        -12    1    3    3    0    0  0.79772751830E+01 -0.20907780774E+02  0.13013027752E+02  0.25886504351E+02  0.00000000000E+00 0.  1.
</event>
<event>
 7    1  0.5417298E-010  0.4778731E+02  0.7816164E-02  0.1312668E+00
        -11   -1    0    0    0    0  0.00000000000E+00  0.00000000000E+00  0.45593999997E+02  0.45594000000E+02  0.51100000000E-03 0.  1.
         11   -1    0    0    0    0 -0.00000000000E+00 -0.00000000000E+00 -0.45593999997E+02  0.45594000000E+02  0.51100000000E-03 0. -1.
    9900012    2    1    2    0    0  0.17598847005E+02 -0.39214751341E+02 -0.60086594645E+01  0.47787307296E+02  0.20000165283E+02 0.  0.
         12    1    1    2    0    0 -0.17598847005E+02  0.39214751341E+02  0.60086594645E+01  0.43400692704E+02  0.00000000000E+00 0. -1.
         11    1    3    3    0    0 -0.75078339445E+00 -0.16156938529E+02 -0.16753117900E+01  0.16260904285E+02  0.51100000000E-03 0. -1.
        -11    1    3    3    0    0  0.88695342180E+01 -0.18643069446E+02 -0.41980120556E+01  0.21067889811E+02  0.51100000000E-03 0.  1.
         12    1    3    3    0    0  0.94800961817E+01 -0.44147433665E+01 -0.13533561885E+00  0.10458513199E+02  0.00000000000E+00 0. -1.
</event>
<event>
 7    1  0.5417298E-010  0.4778727E+02  0.7816164E-02  0.1312668E+00
        -11   -1    0    0    0    0  0.00000000000E+00  0.00000000000E+00  0.45593999997E+02  0.45594000000E+02  0.51100000000E-03 0. -1.
         11   -1    0    0    0    0 -0.00000000000E+00 -0.00000000000E+00 -0.45593999997E+02  0.45594000000E+02  0.51100000000E-03 0.  1.
    9900012    2    1    2    0    0  0.21009285319E+02  0.33357709505E+02 -0.18152038815E+02  0.47787269981E+02  0.19999995151E+02 0.  0.
         12    1    1    2    0    0 -0.21009285319E+02 -0.33357709505E+02  0.18152038815E+02  0.43400730019E+02  0.00000000000E+00 0. -1.
         11    1    3    3    0    0  0.32578798749E+00  0.21624717633E+01 -0.31333256119E+01  0.38210144715E+01  0.51100000000E-03 0. -1.
        -11    1    3    3    0    0  0.13865404567E+02  0.19937619436E+02 -0.18292933611E+02  0.30403774979E+02  0.51100000000E-03 0.  1.
         12    1    3    3    0    0  0.68180927645E+01  0.11257618306E+02  0.32742204082E+01  0.13562480531E+02  0.00000000000E+00 0. -1.
</event>
<event>
 7    1  0.5417298E-010  0.4778727E+02  0.7816164E-02  0.1312668E+00
        -11   -1    0    0    0    0  0.00000000000E+00  0.00000000000E+00  0.45593999997E+02  0.45594000000E+02  0.51100000000E-03 0. -1.
         11   -1    0    0    0    0 -0.00000000000E+00 -0.00000000000E+00 -0.45593999997E+02  0.45594000000E+02  0.51100000000E-03 0.  1.
    9900012    2    1    2    0    0 -0.15723276989E+02 -0.34859291132E+02 -0.20523925991E+02  0.47787272407E+02  0.20000006212E+02 0.  0.
         12    1    1    2    0    0  0.15723276989E+02  0.34859291132E+02  0.20523925991E+02  0.43400727593E+02  0.00000000000E+00 0. -1.
         11    1    3    3    0    0 -0.33710599614E+01 -0.13479967902E+02 -0.66280626620E+01  0.15394960046E+02  0.51100000000E-03 0. -1.
        -11    1    3    3    0    0 -0.81937497101E+01 -0.20085350908E+02 -0.46688388043E+01  0.22189116960E+02  0.51100000000E-03 0.  1.
         12    1    3    3    0    0 -0.41584673173E+01 -0.12939723215E+01 -0.92270245250E+01  0.10203195401E+02  0.00000000000E+00 0. -1.
</event>
<event>
 7    1  0.5417298E-010  0.4778727E+02  0.7816164E-02  0.1312668E+00
        -11   -1    0    0    0    0  0.00000000000E+00  0.00000000000E+00  0.45593999997E+02  0.45594000000E+02  0.51100000000E-03 0. -1.
         11   -1    0    0    0    0 -0.00000000000E+00 -0.00000000000E+00 -0.45593999997E+02  0.45594000000E+02  0.51100000000E-03 0.  1.
    9900012    2    1    2    0    0  0.79545542428E+01  0.18819040644E+02 -0.38290886817E+02  0.47787271467E+02  0.20000001926E+02 0.  0.
         12    1    1    2    0    0 -0.79545542428E+01 -0.18819040644E+02  0.38290886817E+02  0.43400728533E+02  0.00000000000E+00 0. -1.
         11    1    3    3    0    0  0.35829333854E+01 -0.32840094537E+01 -0.58634407438E+01  0.76159088331E+01  0.51100000000E-03 0. -1.
        -11    1    3    3    0    0  0.99053588060E+00  0.53025573346E+01 -0.14017146986E+02  0.15019277130E+02  0.51100000000E-03 0.  1.
        -12    1    3    3    0    0  0.33810849768E+01  0.16800492763E+02 -0.18410299087E+02  0.25152085504E+02  0.00000000000E+00 0.  1.
</event>
<event>
 7    1  0.5417298E-010  0.4778726E+02  0.7816164E-02  0.1312668E+00
        -11   -1    0    0    0    0  0.00000000000E+00  0.00000000000E+00  0.45593999997E+02  0.45594000000E+02  0.51100000000E-03 0.  1.
         11   -1    0    0    0    0 -0.00000000000E+00 -0.00000000000E+00 -0.45593999997E+02  0.45594000000E+02  0.51100000000E-03 0. -1.
    9900012    2    1    2    0    0 -0.13371176037E+02  0.12741356767E+02  0.39274588594E+02  0.47787264637E+02  0.19999970784E+02 0.  0.
         12    1    1    2    0    0  0.13371176037E+02 -0.12741356767E+02 -0.39274588594E+02  0.43400735363E+02  0.00000000000E+00 0. -1.
         11    1    3    3    0    0 -0.37209771504E+01 -0.36567514205E+01  0.92589563837E+01  0.10627595000E+02  0.51100000000E-03 0. -1.
        -11    1    3    3    0    0 -0.41586686319E+01  0.39976409023E+00  0.10689522156E+02  0.11476942986E+02  0.51100000000E-03 0.  1.
         12    1    3    3    0    0 -0.54915302542E+01  0.15998344098E+02  0.19326110054E+02  0.25682726651E+02  0.00000000000E+00 0. -1.
</event>
<event>
 7    1  0.5417298E-010  0.4778727E+02  0.7816164E-02  0.1312668E+00
        -11   -1    0    0    0    0  0.00000000000E+00  0.00000000000E+00  0.45593999997E+02  0.45594000000E+02  0.51100000000E-03 0.  1.
         11   -1    0    0    0    0 -0.00000000000E+00 -0.00000000000E+00 -0.45593999997E+02  0.45594000000E+02  0.51100000000E-03 0. -1.
    9900012    2    1    2    0    0 -0.37893518712E+02 -0.14056828196E+02  0.15814866963E+02  0.47787271937E+02  0.20000004069E+02 0.  0.
         12    1    1    2    0    0  0.37893518712E+02  0.14056828196E+02 -0.15814866963E+02  0.43400728063E+02  0.00000000000E+00 0. -1.
         11    1    3    3    0    0 -0.24546640519E+01  0.78081201426E-01 -0.94810027000E+00  0.26325589575E+01  0.51100000000E-03 0.  1.
        -11    1    3    3    0    0 -0.23383974545E+02 -0.37810278609E+01  0.17174077189E+02  0.29258423826E+02  0.51100000000E-03 0. -1.
         12    1    3    3    0    0 -0.12054880115E+02 -0.10353881536E+02 -0.41110995558E+00  0.15896289154E+02  0.00000000000E+00 0. -1.
</event>
<event>
 7    1  0.5417298E-010  0.4778727E+02  0.7816164E-02  0.1312668E+00
        -11   -1    0    0    0    0  0.00000000000E+00  0.00000000000E+00  0.45593999997E+02  0.45594000000E+02  0.51100000000E-03 0. -1.
         11   -1    0    0    0    0 -0.00000000000E+00 -0.00000000000E+00 -0.45593999997E+02  0.45594000000E+02  0.51100000000E-03 0.  1.
    9900012    2    1    2    0    0 -0.37266571763E+01  0.18124388299E+02 -0.39258655085E+02  0.47787269315E+02  0.19999992115E+02 0.  0.
         12    1    1    2    0    0  0.37266571763E+01 -0.18124388299E+02  0.39258655085E+02  0.43400730685E+02  0.00000000000E+00 0. -1.
         11    1    3    3    0    0  0.28828607529E+01  0.31820068007E+01 -0.11843591137E+02  0.12597884929E+02  0.51100000000E-03 0. -1.
        -11    1    3    3    0    0 -0.36360846331E+01 -0.23241529198E+01 -0.75957888804E+01  0.87360636004E+01  0.51100000000E-03 0.  1.
         12    1    3    3    0    0 -0.29734332961E+01  0.17266534419E+02 -0.19819275067E+02  0.26453320785E+02  0.00000000000E+00 0. -1.
</event>
<event>
 7    1  0.5417298E-010  0.4778727E+02  0.7816164E-02  0.1312668E+00
        -11   -1    0    0    0    0  0.00000000000E+00  0.00000000000E+00  0.45593999997E+02  0.45594000000E+02  0.51100000000E-03 0.  1.
         11   -1    0    0    0    0 -0.00000000000E+00 -0.00000000000E+00 -0.45593999997E+02  0.45594000000E+02  0.51100000000E-03 0. -1.
    9900012    2    1    2    0    0 -0.93462876923E+01 -0.95695093338E+01  0.41287945781E+02  0.47787273401E+02  0.20000010743E+02 0.  0.
         12    1    1    2    0    0  0.93462876923E+01  0.95695093338E+01 -0.41287945781E+02  0.43400726599E+02  0.00000000000E+00 0. -1.
         11    1    3    3    0    0  0.33530302151E+01 -0.59995232899E-01  0.80183390534E+01  0.86913849579E+01  0.51100000000E-03 0. -1.
        -11    1    3    3    0    0 -0.66677659380E+01  0.21711230881E+01  0.82069445099E+01  0.10794758752E+02  0.51100000000E-03 0.  1.
         12    1    3    3    0    0 -0.60315519694E+01 -0.11680637189E+02  0.25062662218E+02  0.28301129690E+02  0.00000000000E+00 0. -1.
</event>
<event>
 7    1  0.5417298E-010  0.4778727E+02  0.7816164E-02  0.1312668E+00
        -11   -1    0    0    0    0  0.00000000000E+00  0.00000000000E+00  0.45593999997E+02  0.45594000000E+02  0.51100000000E-03 0.  1.
         11   -1    0    0    0    0 -0.00000000000E+00 -0.00000000000E+00 -0.45593999997E+02  0.45594000000E+02  0.51100000000E-03 0. -1.
    9900012    2    1    2    0    0  0.37097230497E+02  0.83502667366E+01  0.20921091516E+02  0.47787268032E+02  0.19999986267E+02 0.  0.
         12    1    1    2    0    0 -0.37097230497E+02 -0.83502667366E+01 -0.20921091516E+02  0.43400731968E+02  0.00000000000E+00 0. -1.
         11    1    3    3    0    0  0.24889028948E+01 -0.28331781151E+01  0.29300809310E+01  0.47756581091E+01  0.51100000000E-03 0. -1.
        -11    1    3    3    0    0  0.30882553620E+02  0.43091751224E+01  0.15377698781E+02  0.34767437760E+02  0.51100000000E-03 0.  1.
         12    1    3    3    0    0  0.37257739821E+01  0.68742697293E+01  0.26133118046E+01  0.82441721637E+01  0.00000000000E+00 0. -1.
</event>
<event>
 7    1  0.5417298E-010  0.4778727E+02  0.7816164E-02  0.1312668E+00
        -11   -1    0    0    0    0  0.00000000000E+00  0.00000000000E+00  0.45593999997E+02  0.45594000000E+02  0.51100000000E-03 0.  1.
         11   -1    0    0    0    0 -0.00000000000E+00 -0.00000000000E+00 -0.45593999997E+02  0.45594000000E+02  0.51100000000E-03 0. -1.
    9900012    2    1    2    0    0  0.17562650606E+02  0.27584256160E+02  0.28535684937E+02  0.47787271907E+02  0.20000003932E+02 0.  0.
         12    1    1    2    0    0 -0.17562650606E+02 -0.27584256160E+02 -0.28535684937E+02  0.43400728093E+02  0.00000000000E+00 0. -1.
         11    1    3    3    0    0  0.48457066546E+01  0.21682617889E+01  0.84839671300E+00  0.53760589107E+01  0.51100000000E-03 0. -1.
        -11    1    3    3    0    0 -0.33329096863E+01  0.49456915529E+01  0.36423438151E+01  0.69881915144E+01  0.51100000000E-03 0.  1.
         12    1    3    3    0    0  0.16049853638E+02  0.20470302818E+02  0.24044944409E+02  0.35423021482E+02  0.00000000000E+00 0. -1.
</event>
<event>
 7    1  0.5417298E-010  0.4778728E+02  0.7816164E-02  0.1312668E+00
        -11   -1    0    0    0    0  0.00000000000E+00  0.00000000000E+00  0.45593999997E+02  0.45594000000E+02  0.51100000000E-03 0.  1.
         11   -1    0    0    0    0 -0.00000000000E+00 -0.00000000000E+00 -0.45593999997E+02  0.45594000000E+02  0.51100000000E-03 0. -1.
    9900012    2    1    2    0    0  0.54669747029E+01  0.15315223615E+02  0.40239023821E+02  0.47787275066E+02  0.20000018334E+02 0.  0.
         12    1    1    2    0    0 -0.54669747029E+01 -0.15315223615E+02 -0.40239023821E+02  0.43400724934E+02  0.00000000000E+00 0. -1.
         11    1    3    3    0    0  0.47026679232E+01  0.52021769098E+00  0.77883514994E+01  0.91128552815E+01  0.51100000000E-03 0.  1.
        -11    1    3    3    0    0  0.32503930039E+01 -0.21233432649E+01  0.49523518792E+01  0.62928078548E+01  0.51100000000E-03 0. -1.
         12    1    3    3    0    0 -0.24860862242E+01  0.16918349189E+02  0.27498320442E+02  0.32381611929E+02  0.00000000000E+00 0. -1.
</event>
<event>
 7    1  0.5417298E-010  0.4778727E+02  0.7816164E-02  0.1312668E+00
        -11   -1    0    0    0    0  0.00000000000E+00  0.00000000000E+00  0.45593999997E+02  0.45594000000E+02  0.51100000000E-03 0. -1.
         11   -1    0    0    0    0 -0.00000000000E+00 -0.00000000000E+00 -0.45593999997E+02  0.45594000000E+02  0.51100000000E-03 0.  1.
    9900012    2    1    2    0    0 -0.86313868020E+01  0.29346078951E+02 -0.30788477862E+02  0.47787267783E+02  0.19999985128E+02 0.  0.
         12    1    1    2    0    0  0.86313868020E+01 -0.29346078951E+02  0.30788477862E+02  0.43400732217E+02  0.00000000000E+00 0. -1.
         11    1    3    3    0    0  0.15750196476E+01  0.31485348969E+01  0.14963902585E+01  0.38253291302E+01  0.51100000000E-03 0. -1.
        -11    1    3    3    0    0  0.16332089853E+01  0.58934129437E+01 -0.46437606009E+01  0.76788150450E+01  0.51100000000E-03 0.  1.
        -12    1    3    3    0    0 -0.11839615435E+02  0.20304131111E+02 -0.27641107520E+02  0.36283123607E+02  0.00000000000E+00 0.  1.
</event>
<event>
 7    1  0.5417298E-010  0.4778726E+02  0.7816164E-02  0.1312668E+00
        -11   -1    0    0    0    0  0.00000000000E+00  0.00000000000E+00  0.45593999997E+02  0.45594000000E+02  0.51100000000E-03 0. -1.
         11   -1    0    0    0    0 -0.00000000000E+00 -0.00000000000E+00 -0.45593999997E+02  0.45594000000E+02  0.51100000000E-03 0.  1.
    9900012    2    1    2    0    0 -0.17085331964E+02  0.24282070796E+02 -0.31655906627E+02  0.47787263199E+02  0.19999964231E+02 0.  0.
         12    1    1    2    0    0  0.17085331964E+02 -0.24282070796E+02  0.31655906627E+02  0.43400736801E+02  0.00000000000E+00 0. -1.
         11    1    3    3    0    0 -0.17503700827E+01  0.54544924625E+01 -0.72159294457E+01  0.92133013343E+01  0.51100000000E-03 0. -1.
        -11    1    3    3    0    0 -0.13017042666E+02  0.12491264208E+02 -0.26002764323E+02  0.31648362264E+02  0.51100000000E-03 0.  1.
         12    1    3    3    0    0 -0.23179192157E+01  0.63363141256E+01  0.15627871418E+01  0.69255996014E+01  0.00000000000E+00 0. -1.
</event>
<event>
 7    1  0.5417298E-010  0.4778728E+02  0.7816164E-02  0.1312668E+00
        -11   -1    0    0    0    0  0.00000000000E+00  0.00000000000E+00  0.45593999997E+02  0.45594000000E+02  0.51100000000E-03 0.  1.
         11   -1    0    0    0    0 -0.00000000000E+00 -0.00000000000E+00 -0.45593999997E+02  0.45594000000E+02  0.51100000000E-03 0. -1.
    9900012    2    1    2    0    0 -0.21367397965E+01  0.21487117182E+02  0.37647853950E+02  0.47787276863E+02  0.20000026530E+02 0.  0.
         12    1    1    2    0    0  0.21367397965E+01 -0.21487117182E+02 -0.37647853950E+02  0.43400723137E+02  0.00000000000E+00 0. -1.
         11    1    3    3    0    0 -0.46276609047E+00  0.54260398951E+01  0.53932159175E+00  0.54723787733E+01  0.51100000000E-03 0. -1.
        -11    1    3    3    0    0  0.11080846851E+01  0.53208131037E+01  0.25204476072E+01  0.59909565309E+01  0.51100000000E-03 0.  1.
        -12    1    3    3    0    0 -0.27820583911E+01  0.10740264183E+02  0.34588084751E+02  0.36323941559E+02  0.00000000000E+00 0.  1.
</event>
<event>
 7    1  0.5417298E-010  0.4778727E+02  0.7816164E-02  0.1312668E+00
        -11   -1    0    0    0    0  0.00000000000E+00  0.00000000000E+00  0.45593999997E+02  0.45594000000E+02  0.51100000000E-03 0.  1.
         11   -1    0    0    0    0 -0.00000000000E+00 -0.00000000000E+00 -0.45593999997E+02  0.45594000000E+02  0.51100000000E-03 0. -1.
    9900012    2    1    2    0    0 -0.11229748170E+02 -0.41706811911E+02  0.42494703730E+01  0.47787269566E+02  0.19999993260E+02 0.  0.
         12    1    1    2    0    0  0.11229748170E+02  0.41706811911E+02 -0.42494703730E+01  0.43400730434E+02  0.00000000000E+00 0. -1.
         11    1    3    3    0    0  0.19327093452E+01 -0.36399378413E+01 -0.13501529914E+01  0.43367529631E+01  0.51100000000E-03 0. -1.
        -11    1    3    3    0    0 -0.38603913999E+01 -0.15820897104E+02 -0.51081444552E+01  0.17067411841E+02  0.51100000000E-03 0.  1.
        -12    1    3    3    0    0 -0.93020661156E+01 -0.22245976966E+02  0.10707767820E+02  0.26383104762E+02  0.00000000000E+00 0.  1.
</event>
<event>
 7    1  0.5417298E-010  0.4778727E+02  0.7816164E-02  0.1312668E+00
        -11   -1    0    0    0    0  0.00000000000E+00  0.00000000000E+00  0.45593999997E+02  0.45594000000E+02  0.51100000000E-03 0. -1.
         11   -1    0    0    0    0 -0.00000000000E+00 -0.00000000000E+00 -0.45593999997E+02  0.45594000000E+02  0.51100000000E-03 0.  1.
    9900012    2    1    2    0    0 -0.28007164291E+02 -0.17618503053E+02 -0.28085763756E+02  0.47787273886E+02  0.20000012957E+02 0.  0.
         12    1    1    2    0    0  0.28007164291E+02  0.17618503053E+02  0.28085763756E+02  0.43400726114E+02  0.00000000000E+00 0. -1.
         11    1    3    3    0    0 -0.22078791306E+01  0.30050661855E+01 -0.16436548795E+01  0.40751386060E+01  0.51100000000E-03 0. -1.
        -11    1    3    3    0    0 -0.14059276658E+02 -0.61726495146E+01 -0.16746257544E+02  0.22720079317E+02  0.51100000000E-03 0.  1.
        -12    1    3    3    0    0 -0.11740008503E+02 -0.14450919724E+02 -0.96958513316E+01  0.20992055963E+02  0.00000000000E+00 0.  1.
</event>
<event>
 7    1  0.5417298E-010  0.4778727E+02  0.7816164E-02  0.1312668E+00
        -11   -1    0    0    0    0  0.00000000000E+00  0.00000000000E+00  0.45593999997E+02  0.45594000000E+02  0.51100000000E-03 0. -1.
         11   -1    0    0    0    0 -0.00000000000E+00 -0.00000000000E+00 -0.45593999997E+02  0.45594000000E+02  0.51100000000E-03 0.  1.
    9900012    2    1    2    0    0 -0.42795233006E+02 -0.35393163366E+01 -0.62979855287E+01  0.47787270169E+02  0.19999996009E+02 0.  0.
         12    1    1    2    0    0  0.42795233006E+02  0.35393163366E+01  0.62979855287E+01  0.43400729831E+02  0.00000000000E+00 0. -1.
         11    1    3    3    0    0 -0.29371934000E+02 -0.39118200129E+01  0.31159055132E+01  0.29794659088E+02  0.51100000000E-03 0. -1.
        -11    1    3    3    0    0 -0.10814457809E+02  0.43947217762E+00 -0.32528066944E+01  0.11301609848E+02  0.51100000000E-03 0.  1.
         12    1    3    3    0    0 -0.26088411955E+01 -0.66968501373E-01 -0.61610843474E+01  0.66910012330E+01  0.00000000000E+00 0. -1.
</event>
<event>
 7    1  0.5417298E-010  0.4778727E+02  0.7816164E-02  0.1312668E+00
        -11   -1    0    0    0    0  0.00000000000E+00  0.00000000000E+00  0.45593999997E+02  0.45594000000E+02  0.51100000000E-03 0. -1.
         11   -1    0    0    0    0 -0.00000000000E+00 -0.00000000000E+00 -0.45593999997E+02  0.45594000000E+02  0.51100000000E-03 0.  1.
    9900012    2    1    2    0    0 -0.26461131349E+02  0.29097601831E+02  0.18351050260E+02  0.47787274773E+02  0.20000017000E+02 0.  0.
         12    1    1    2    0    0  0.26461131349E+02 -0.29097601831E+02 -0.18351050260E+02  0.43400725227E+02  0.00000000000E+00 0. -1.
         11    1    3    3    0    0  0.87852787939E-01  0.47963472924E+01  0.23140467737E+01  0.53261128597E+01  0.51100000000E-03 0. -1.
        -11    1    3    3    0    0 -0.12316564329E+02  0.46635737217E+01  0.12112213914E+02  0.17892803103E+02  0.51100000000E-03 0.  1.
        -12    1    3    3    0    0 -0.14232419808E+02  0.19637680817E+02  0.39247895728E+01  0.24568358810E+02  0.00000000000E+00 0.  1.
</event>
<event>
 7    1  0.5417298E-010  0.4778727E+02  0.7816164E-02  0.1312668E+00
        -11   -1    0    0    0    0  0.00000000000E+00  0.00000000000E+00  0.45593999997E+02  0.45594000000E+02  0.51100000000E-03 0. -1.
         11   -1    0    0    0    0 -0.00000000000E+00 -0.00000000000E+00 -0.45593999997E+02  0.45594000000E+02  0.51100000000E-03 0.  1.
    9900012    2    1    2    0    0  0.43237324369E+02  0.37275754339E+01 -0.51256217812E+00  0.47787265476E+02  0.19999974612E+02 0.  0.
         12    1    1    2    0    0 -0.43237324369E+02 -0.37275754339E+01  0.51256217812E+00  0.43400734524E+02  0.00000000000E+00 0. -1.
         11    1    3    3    0    0  0.23239512517E+02 -0.24963488813E+01  0.74475318347E+01  0.24531050333E+02  0.51100000000E-03 0. -1.
        -11    1    3    3    0    0  0.10485649436E+02  0.10090045999E+01 -0.15267840700E+01  0.10644153524E+02  0.51100000000E-03 0.  1.
         12    1    3    3    0    0  0.95121624163E+01  0.52149197152E+01 -0.64333099428E+01  0.12612061619E+02  0.00000000000E+00 0. -1.
</event>
<event>
 7    1  0.5417298E-010  0.4778727E+02  0.7816164E-02  0.1312668E+00
        -11   -1    0    0    0    0  0.00000000000E+00  0.00000000000E+00  0.45593999997E+02  0.45594000000E+02  0.51100000000E-03 0. -1.
         11   -1    0    0    0    0 -0.00000000000E+00 -0.00000000000E+00 -0.45593999997E+02  0.45594000000E+02  0.51100000000E-03 0.  1.
    9900012    2    1    2    0    0  0.22102798154E+02  0.36499143292E+02  0.79310906839E+01  0.47787270205E+02  0.19999996174E+02 0.  0.
         12    1    1    2    0    0 -0.22102798154E+02 -0.36499143292E+02 -0.79310906839E+01  0.43400729795E+02  0.00000000000E+00 0. -1.
         11    1    3    3    0    0  0.32190403501E+01  0.37689005873E+01 -0.65388443454E+00  0.49994397213E+01  0.51100000000E-03 0. -1.
        -11    1    3    3    0    0  0.19833495202E+02  0.22755052294E+02  0.96765340877E+00  0.30200931943E+02  0.51100000000E-03 0.  1.
         12    1    3    3    0    0 -0.94973739799E+00  0.99751904108E+01  0.76173217097E+01  0.12586898541E+02  0.00000000000E+00 0. -1.
</event>
<event>
 7    1  0.5417298E-010  0.4778725E+02  0.7816164E-02  0.1312668E+00
        -11   -1    0    0    0    0  0.00000000000E+00  0.00000000000E+00  0.45593999997E+02  0.45594000000E+02  0.51100000000E-03 0.  1.
         11   -1    0    0    0    0 -0.00000000000E+00 -0.00000000000E+00 -0.45593999997E+02  0.45594000000E+02  0.51100000000E-03 0. -1.
    9900012    2    1    2    0    0 -0.15683930681E+02  0.56958567337E+01  0.40064907331E+02  0.47787248106E+02  0.19999895415E+02 0.  0.
         12    1    1    2    0    0  0.15683930681E+02 -0.56958567337E+01 -0.40064907331E+02  0.43400751894E+02  0.00000000000E+00 0. -1.
         11    1    3    3    0    0  0.49342115397E+00  0.54569762863E+01  0.44216604995E+01  0.70408193031E+01  0.51100000000E-03 0. -1.
        -11    1    3    3    0    0 -0.15734457413E+01  0.42231176213E+01  0.65506297494E+01  0.79511762853E+01  0.51100000000E-03 0.  1.
         12    1    3    3    0    0 -0.14603906094E+02 -0.39842371739E+01  0.29092617082E+02  0.32795252518E+02  0.00000000000E+00 0. -1.
</event>
<event>
 7    1  0.5417298E-010  0.4778726E+02  0.7816164E-02  0.1312668E+00
        -11   -1    0    0    0    0  0.00000000000E+00  0.00000000000E+00  0.45593999997E+02  0.45594000000E+02  0.51100000000E-03 0. -1.
         11   -1    0    0    0    0 -0.00000000000E+00 -0.00000000000E+00 -0.45593999997E+02  0.45594000000E+02  0.51100000000E-03 0.  1.
    9900012    2    1    2    0    0  0.24226276110E+02  0.22632136691E+01 -0.35938688128E+02  0.47787263893E+02  0.19999967392E+02 0.  0.
         12    1    1    2    0    0 -0.24226276110E+02 -0.22632136691E+01  0.35938688128E+02  0.43400736107E+02  0.00000000000E+00 0. -1.
         11    1    3    3    0    0  0.10486904485E+02 -0.16181531139E+01 -0.91233516239E+01  0.13993896179E+02  0.51100000000E-03 0. -1.
        -11    1    3    3    0    0  0.14754813198E+02  0.25158883092E+01 -0.12856785196E+02  0.19731475675E+02  0.51100000000E-03 0.  1.
         12    1    3    3    0    0 -0.10154415725E+01  0.13654784738E+01 -0.13958551309E+02  0.14061892038E+02  0.00000000000E+00 0. -1.
</event>
<event>
 7    1  0.5417298E-010  0.4778727E+02  0.7816164E-02  0.1312668E+00
        -11   -1    0    0    0    0  0.00000000000E+00  0.00000000000E+00  0.45593999997E+02  0.45594000000E+02  0.51100000000E-03 0.  1.
         11   -1    0    0    0    0 -0.00000000000E+00 -0.00000000000E+00 -0.45593999997E+02  0.45594000000E+02  0.51100000000E-03 0. -1.
    9900012    2    1    2    0    0 -0.28917253716E+01  0.43295572556E+02  0.86872221527E+00  0.47787270089E+02  0.19999995643E+02 0.  0.
         12    1    1    2    0    0  0.28917253716E+01 -0.43295572556E+02 -0.86872221527E+00  0.43400729911E+02  0.00000000000E+00 0. -1.
         11    1    3    3    0    0 -0.61370285311E+01  0.70261616636E+01  0.23573857882E+00  0.93319687019E+01  0.51100000000E-03 0. -1.
        -11    1    3    3    0    0 -0.88212255776E+00  0.82522838432E+01  0.51652794403E+01  0.97753997766E+01  0.51100000000E-03 0.  1.
         12    1    3    3    0    0  0.41274257173E+01  0.28017127049E+02 -0.45322958038E+01  0.28679901610E+02  0.00000000000E+00 0. -1.
</event>
<event>
 7    1  0.5417298E-010  0.4778727E+02  0.7816164E-02  0.1312668E+00
        -11   -1    0    0    0    0  0.00000000000E+00  0.00000000000E+00  0.45593999997E+02  0.45594000000E+02  0.51100000000E-03 0. -1.
         11   -1    0    0    0    0 -0.00000000000E+00 -0.00000000000E+00 -0.45593999997E+02  0.45594000000E+02  0.51100000000E-03 0.  1.
    9900012    2    1    2    0    0  0.41626682972E+02 -0.12246147964E+02 -0.93506146489E+00  0.47787271721E+02  0.20000003084E+02 0.  0.
         12    1    1    2    0    0 -0.41626682972E+02  0.12246147964E+02  0.93506146489E+00  0.43400728279E+02  0.00000000000E+00 0. -1.
         11    1    3    3    0    0  0.42429244225E+01 -0.26861425945E+01 -0.20917286444E+01  0.54399539222E+01  0.51100000000E-03 0. -1.
        -11    1    3    3    0    0  0.38848163033E+02 -0.99233256041E+01  0.27033881211E+01  0.40186570763E+02  0.51100000000E-03 0.  1.
         12    1    3    3    0    0 -0.14644044830E+01  0.36332023475E+00 -0.15467209416E+01  0.21607470361E+01  0.00000000000E+00 0. -1.
</event>
<event>
 7    1  0.5417298E-010  0.4778727E+02  0.7816164E-02  0.1312668E+00
        -11   -1    0    0    0    0  0.00000000000E+00  0.00000000000E+00  0.45593999997E+02  0.45594000000E+02  0.51100000000E-03 0.  1.
         11   -1    0    0    0    0 -0.00000000000E+00 -0.00000000000E+00 -0.45593999997E+02  0.45594000000E+02  0.51100000000E-03 0. -1.
    9900012    2    1    2    0    0  0.21146060597E+02  0.22556151478E+01  0.37833577434E+02  0.47787271205E+02  0.20000000731E+02 0.  0.
         12    1    1    2    0    0 -0.21146060597E+02 -0.22556151478E+01 -0.37833577434E+02  0.43400728795E+02  0.00000000000E+00 0. -1.
         11    1    3    3    0    0  0.38649881216E+01 -0.58527138930E+01  0.20103626760E+02  0.21291975067E+02  0.51100000000E-03 0.  1.
        -11    1    3    3    0    0  0.76424137264E+01  0.46826706696E+01  0.11259584978E+02  0.14391391396E+02  0.51100000000E-03 0. -1.
        -12    1    3    3    0    0  0.96386587491E+01  0.34256583712E+01  0.64703656964E+01  0.12103904742E+02  0.00000000000E+00 0.  1.
</event>
<event>
 7    1  0.5417298E-010  0.4778727E+02  0.7816164E-02  0.1312668E+00
        -11   -1    0    0    0    0  0.00000000000E+00  0.00000000000E+00  0.45593999997E+02  0.45594000000E+02  0.51100000000E-03 0.  1.
         11   -1    0    0    0    0 -0.00000000000E+00 -0.00000000000E+00 -0.45593999997E+02  0.45594000000E+02  0.51100000000E-03 0. -1.
    9900012    2    1    2    0    0  0.10240143782E+02 -0.36784746466E+02 -0.20631168041E+02  0.47787271758E+02  0.20000003251E+02 0.  0.
         12    1    1    2    0    0 -0.10240143782E+02  0.36784746466E+02  0.20631168041E+02  0.43400728242E+02  0.00000000000E+00 0. -1.
         11    1    3    3    0    0  0.14496685827E+02 -0.24965740974E+02 -0.10740234992E+02  0.30802512402E+02  0.51100000000E-03 0. -1.
        -11    1    3    3    0    0 -0.16210201021E+00 -0.56465399129E+01 -0.16085397370E+01  0.58734223751E+01  0.51100000000E-03 0.  1.
         12    1    3    3    0    0 -0.40944400343E+01 -0.61724655793E+01 -0.82823933118E+01  0.11111336980E+02  0.00000000000E+00 0. -1.
</event>
<event>
 7    1  0.5417298E-010  0.4778728E+02  0.7816164E-02  0.1312668E+00
        -11   -1    0    0    0    0  0.00000000000E+00  0.00000000000E+00  0.45593999997E+02  0.45594000000E+02  0.51100000000E-03 0.  1.
         11   -1    0    0    0    0 -0.00000000000E+00 -0.00000000000E+00 -0.45593999997E+02  0.45594000000E+02  0.51100000000E-03 0. -1.
    9900012    2    1    2    0    0  0.41666316932E+01  0.34969261047E+02  0.25365583525E+02  0.47787275750E+02  0.20000021455E+02 0.  0.
         12    1    1    2    0    0 -0.41666316932E+01 -0.34969261047E+02 -0.25365583525E+02  0.43400724250E+02  0.00000000000E+00 0. -1.
         11    1    3    3    0    0  0.96894974524E+00 -0.29029941250E+00  0.12794536841E+01  0.16309933625E+01  0.51100000000E-03 0.  1.
        -11    1    3    3    0    0 -0.55139627373E+00  0.35405853340E+02  0.23093895736E+02  0.42275365275E+02  0.51100000000E-03 0. -1.
         12    1    3    3    0    0  0.37490782217E+01 -0.14629288040E+00  0.99223410479E+00  0.38809171130E+01  0.00000000000E+00 0. -1.
</event>
<event>
 7    1  0.5417298E-010  0.4778727E+02  0.7816164E-02  0.1312668E+00
        -11   -1    0    0    0    0  0.00000000000E+00  0.00000000000E+00  0.45593999997E+02  0.45594000000E+02  0.51100000000E-03 0.  1.
         11   -1    0    0    0    0 -0.00000000000E+00 -0.00000000000E+00 -0.45593999997E+02  0.45594000000E+02  0.51100000000E-03 0. -1.
    9900012    2    1    2    0    0 -0.31726107856E+02  0.86679244747E+01  0.28318630350E+02  0.47787266604E+02  0.19999979755E+02 0.  0.
         12    1    1    2    0    0  0.31726107856E+02 -0.86679244747E+01 -0.28318630350E+02  0.43400733396E+02  0.00000000000E+00 0. -1.
         11    1    3    3    0    0 -0.12477053214E+02 -0.40219885285E+01  0.14367464460E+02  0.19449351760E+02  0.51100000000E-03 0. -1.
        -11    1    3    3    0    0 -0.13327118917E+02  0.50625589952E+01  0.11650359665E+02  0.18411205359E+02  0.51100000000E-03 0.  1.
        -12    1    3    3    0    0 -0.59219357259E+01  0.76273540080E+01  0.23008062244E+01  0.99267094844E+01  0.00000000000E+00 0.  1.
</event>
<event>
 7    1  0.5417298E-010  0.4778727E+02  0.7816164E-02  0.1312668E+00
        -11   -1    0    0    0    0  0.00000000000E+00  0.00000000000E+00  0.45593999997E+02  0.45594000000E+02  0.51100000000E-03 0.  1.
         11   -1    0    0    0    0 -0.00000000000E+00 -0.00000000000E+00 -0.45593999997E+02  0.45594000000E+02  0.51100000000E-03 0. -1.
    9900012    2    1    2    0    0 -0.99388908275E+01 -0.85662903885E+01  0.41369803704E+02  0.47787267974E+02  0.19999986000E+02 0.  0.
         12    1    1    2    0    0  0.99388908275E+01  0.85662903885E+01 -0.41369803704E+02  0.43400732026E+02  0.00000000000E+00 0. -1.
         11    1    3    3    0    0 -0.49919932256E+00 -0.28896044460E+01 -0.55870799799E+00  0.29851580706E+01  0.51100000000E-03 0. -1.
        -11    1    3    3    0    0 -0.17498417641E+01 -0.71116547022E+01  0.14015246988E+02  0.15813435023E+02  0.51100000000E-03 0.  1.
        -12    1    3    3    0    0 -0.76898497408E+01  0.14349687597E+01  0.27913264713E+02  0.28988674881E+02  0.00000000000E+00 0.  1.
</event>
<event>
 7    1  0.5417298E-010  0.4778727E+02  0.7816164E-02  0.1312668E+00
        -11   -1    0    0    0    0  0.00000000000E+00  0.00000000000E+00  0.45593999997E+02  0.45594000000E+02  0.51100000000E-03 0.  1.
         11   -1    0    0    0    0 -0.00000000000E+00 -0.00000000000E+00 -0.45593999997E+02  0.45594000000E+02  0.51100000000E-03 0. -1.
    9900012    2    1    2    0    0 -0.20355948141E+02 -0.35336384304E+02  0.14852556050E+02  0.47787273029E+02  0.20000009049E+02 0.  0.
         12    1    1    2    0    0  0.20355948141E+02  0.35336384304E+02 -0.14852556050E+02  0.43400726971E+02  0.00000000000E+00 0. -1.
         11    1    3    3    0    0 -0.15446037630E+02 -0.20533917060E+02  0.80707411888E+01  0.26932483954E+02  0.51100000000E-03 0. -1.
        -11    1    3    3    0    0 -0.88803952871E+01 -0.10143828863E+02  0.35904050836E+01  0.13951691416E+02  0.51100000000E-03 0.  1.
         12    1    3    3    0    0  0.39704847763E+01 -0.46586383807E+01  0.31914097773E+01  0.69030976589E+01  0.00000000000E+00 0. -1.
</event>
<event>
 7    1  0.5417298E-010  0.4778727E+02  0.7816164E-02  0.1312668E+00
        -11   -1    0    0    0    0  0.00000000000E+00  0.00000000000E+00  0.45593999997E+02  0.45594000000E+02  0.51100000000E-03 0. -1.
         11   -1    0    0    0    0 -0.00000000000E+00 -0.00000000000E+00 -0.45593999997E+02  0.45594000000E+02  0.51100000000E-03 0.  1.
    9900012    2    1    2    0    0 -0.34112630753E+02  0.18905352205E+02 -0.19040462713E+02  0.47787272596E+02  0.20000007073E+02 0.  0.
         12    1    1    2    0    0  0.34112630753E+02 -0.18905352205E+02  0.19040462713E+02  0.43400727404E+02  0.00000000000E+00 0. -1.
         11    1    3    3    0    0  0.40675329620E-01  0.65699611495E+01 -0.18452271296E+01  0.68242880515E+01  0.51100000000E-03 0. -1.
        -11    1    3    3    0    0 -0.94880746446E+00  0.84690205809E+00  0.78427273963E+00  0.14941762586E+01  0.51100000000E-03 0.  1.
        -12    1    3    3    0    0 -0.33204498619E+02  0.11488488997E+02 -0.17979508323E+02  0.39468808286E+02  0.00000000000E+00 0.  1.
</event>
<event>
 7    1  0.5417298E-010  0.4778728E+02  0.7816164E-02  0.1312668E+00
        -11   -1    0    0    0    0  0.00000000000E+00  0.00000000000E+00  0.45593999997E+02  0.45594000000E+02  0.51100000000E-03 0.  1.
         11   -1    0    0    0    0 -0.00000000000E+00 -0.00000000000E+00 -0.45593999997E+02  0.45594000000E+02  0.51100000000E-03 0. -1.
    9900012    2    1    2    0    0 -0.75683502750E+01 -0.41184712041E+02  0.11408871252E+02  0.47787276792E+02  0.20000026204E+02 0.  0.
         12    1    1    2    0    0  0.75683502750E+01  0.41184712041E+02 -0.11408871252E+02  0.43400723208E+02  0.00000000000E+00 0. -1.
         11    1    3    3    0    0  0.33467621683E+00 -0.13232302097E+02 -0.88450262468E+00  0.13266053374E+02  0.51100000000E-03 0. -1.
        -11    1    3    3    0    0  0.34662106622E+00 -0.17219177966E+02  0.16512398099E+01  0.17301642383E+02  0.51100000000E-03 0.  1.
         12    1    3    3    0    0 -0.82496475581E+01 -0.10733231978E+02  0.10642134067E+02  0.17219581035E+02  0.00000000000E+00 0. -1.
</event>
<event>
 7    1  0.5417298E-010  0.4778728E+02  0.7816164E-02  0.1312668E+00
        -11   -1    0    0    0    0  0.00000000000E+00  0.00000000000E+00  0.45593999997E+02  0.45594000000E+02  0.51100000000E-03 0. -1.
         11   -1    0    0    0    0 -0.00000000000E+00 -0.00000000000E+00 -0.45593999997E+02  0.45594000000E+02  0.51100000000E-03 0.  1.
    9900012    2    1    2    0    0 -0.21557360224E+02 -0.13667943661E+02 -0.35101144174E+02  0.47787276664E+02  0.20000025621E+02 0.  0.
         12    1    1    2    0    0  0.21557360224E+02  0.13667943661E+02  0.35101144174E+02  0.43400723336E+02  0.00000000000E+00 0. -1.
         11    1    3    3    0    0  0.11300317729E+01 -0.12949612655E+01 -0.14219551046E+01  0.22306620245E+01  0.51100000000E-03 0. -1.
        -11    1    3    3    0    0 -0.10000487308E+02  0.31049344213E+01 -0.92095023674E+01  0.13945081508E+02  0.51100000000E-03 0.  1.
        -12    1    3    3    0    0 -0.12686904689E+02 -0.15477916817E+02 -0.24469686702E+02  0.31611533131E+02  0.00000000000E+00 0.  1.
</event>
<event>
 7    1  0.5417298E-010  0.4778726E+02  0.7816164E-02  0.1312668E+00
        -11   -1    0    0    0    0  0.00000000000E+00  0.00000000000E+00  0.45593999997E+02  0.45594000000E+02  0.51100000000E-03 0. -1.
         11   -1    0    0    0    0 -0.00000000000E+00 -0.00000000000E+00 -0.45593999997E+02  0.45594000000E+02  0.51100000000E-03 0.  1.
    9900012    2    1    2    0    0 -0.75988243229E+01 -0.30088058256E+02 -0.30341235061E+02  0.47787263534E+02  0.19999965759E+02 0.  0.
         12    1    1    2    0    0  0.75988243229E+01  0.30088058256E+02  0.30341235061E+02  0.43400736466E+02  0.00000000000E+00 0. -1.
         11    1    3    3    0    0  0.25052826079E+01 -0.22967852593E+02 -0.17090969908E+02  0.28738475018E+02  0.51100000000E-03 0. -1.
        -11    1    3    3    0    0 -0.26750318616E+00 -0.26623566798E+01 -0.14153148794E+01  0.30270146207E+01  0.51100000000E-03 0.  1.
         12    1    3    3    0    0 -0.98366037446E+01 -0.44578489828E+01 -0.11834950274E+02  0.16021773896E+02  0.00000000000E+00 0. -1.
</event>
<event>
 7    1  0.5417298E-010  0.4778727E+02  0.7816164E-02  0.1312668E+00
        -11   -1    0    0    0    0  0.00000000000E+00  0.00000000000E+00  0.45593999997E+02  0.45594000000E+02  0.51100000000E-03 0.  1.
         11   -1    0    0    0    0 -0.00000000000E+00 -0.00000000000E+00 -0.45593999997E+02  0.45594000000E+02  0.51100000000E-03 0. -1.
    9900012    2    1    2    0    0 -0.41657284704E+02  0.10314071198E+02  0.64741169987E+01  0.47787267005E+02  0.19999981584E+02 0.  0.
         12    1    1    2    0    0  0.41657284704E+02 -0.10314071198E+02 -0.64741169987E+01  0.43400732995E+02  0.00000000000E+00 0. -1.
         11    1    3    3    0    0 -0.41042754068E+02  0.10734677570E+02  0.22008549170E+01  0.42480404031E+02  0.51100000000E-03 0. -1.
        -11    1    3    3    0    0 -0.16283678677E+01  0.29035917083E-01  0.11532677632E+01  0.19956081258E+01  0.51100000000E-03 0.  1.
         12    1    3    3    0    0  0.10138372321E+01 -0.44964228941E+00  0.31199943185E+01  0.33112548481E+01  0.00000000000E+00 0. -1.
</event>
<event>
 7    1  0.5417298E-010  0.4778727E+02  0.7816164E-02  0.1312668E+00
        -11   -1    0    0    0    0  0.00000000000E+00  0.00000000000E+00  0.45593999997E+02  0.45594000000E+02  0.51100000000E-03 0.  1.
         11   -1    0    0    0    0 -0.00000000000E+00 -0.00000000000E+00 -0.45593999997E+02  0.45594000000E+02  0.51100000000E-03 0. -1.
    9900012    2    1    2    0    0  0.80071900114E+01 -0.49161548848E+01  0.42371449152E+02  0.47787269891E+02  0.19999994742E+02 0.  0.
         12    1    1    2    0    0 -0.80071900114E+01  0.49161548848E+01 -0.42371449152E+02  0.43400730109E+02  0.00000000000E+00 0. -1.
         11    1    3    3    0    0  0.74697187243E+00 -0.32550301392E+01  0.13864525790E+00  0.33425156625E+01  0.51100000000E-03 0. -1.
        -11    1    3    3    0    0  0.41919659106E+01 -0.64954266030E+01  0.18905358246E+02  0.20424879819E+02  0.51100000000E-03 0.  1.
         12    1    3    3    0    0  0.30682522283E+01  0.48343018574E+01  0.23327445649E+02  0.24019874410E+02  0.00000000000E+00 0. -1.
</event>
<event>
 7    1  0.5417298E-010  0.4778728E+02  0.7816164E-02  0.1312668E+00
        -11   -1    0    0    0    0  0.00000000000E+00  0.00000000000E+00  0.45593999997E+02  0.45594000000E+02  0.51100000000E-03 0.  1.
         11   -1    0    0    0    0 -0.00000000000E+00 -0.00000000000E+00 -0.45593999997E+02  0.45594000000E+02  0.51100000000E-03 0. -1.
    9900012    2    1    2    0    0 -0.28947216758E+02 -0.12190571369E+02  0.29951142944E+02  0.47787281665E+02  0.20000048422E+02 0.  0.
         12    1    1    2    0    0  0.28947216758E+02  0.12190571369E+02 -0.29951142944E+02  0.43400718335E+02  0.00000000000E+00 0. -1.
         11    1    3    3    0    0 -0.48942267201E+01 -0.48220723839E+01  0.17623684852E+01  0.70930797402E+01  0.51100000000E-03 0. -1.
        -11    1    3    3    0    0 -0.20882494298E+02 -0.45511166825E+01  0.13207919661E+02  0.25124497472E+02  0.51100000000E-03 0.  1.
         12    1    3    3    0    0 -0.31704957402E+01 -0.28173823022E+01  0.14980854798E+02  0.15569704453E+02  0.00000000000E+00 0. -1.
</event>
<event>
 7    1  0.5417298E-010  0.4778727E+02  0.7816164E-02  0.1312668E+00
        -11   -1    0    0    0    0  0.00000000000E+00  0.00000000000E+00  0.45593999997E+02  0.45594000000E+02  0.51100000000E-03 0. -1.
         11   -1    0    0    0    0 -0.00000000000E+00 -0.00000000000E+00 -0.45593999997E+02  0.45594000000E+02  0.51100000000E-03 0.  1.
    9900012    2    1    2    0    0  0.37041280373E+02 -0.19915472689E+02 -0.10721035606E+02  0.47787272949E+02  0.20000008683E+02 0.  0.
         12    1    1    2    0    0 -0.37041280373E+02  0.19915472689E+02  0.10721035606E+02  0.43400727051E+02  0.00000000000E+00 0. -1.
         11    1    3    3    0    0  0.41202978882E+01 -0.20457012950E+01  0.28080038173E+01  0.53894929423E+01  0.51100000000E-03 0. -1.
        -11    1    3    3    0    0  0.88840414708E+00 -0.10671206587E+01  0.24793580545E+01  0.28416940462E+01  0.51100000000E-03 0.  1.
        -12    1    3    3    0    0  0.32032578338E+02 -0.16802650735E+02 -0.16008397478E+02  0.39556085960E+02  0.00000000000E+00 0.  1.
</event>
<event>
 7    1  0.5417298E-010  0.4778731E+02  0.7816164E-02  0.1312668E+00
        -11   -1    0    0    0    0  0.00000000000E+00  0.00000000000E+00  0.45593999997E+02  0.45594000000E+02  0.51100000000E-03 0.  1.
         11   -1    0    0    0    0 -0.00000000000E+00 -0.00000000000E+00 -0.45593999997E+02  0.45594000000E+02  0.51100000000E-03 0. -1.
    9900012    2    1    2    0    0  0.19452380267E+02  0.19796703238E+02  0.33366379621E+02  0.47787310534E+02  0.20000180046E+02 0.  0.
         12    1    1    2    0    0 -0.19452380267E+02 -0.19796703238E+02 -0.33366379621E+02  0.43400689466E+02  0.00000000000E+00 0. -1.
         11    1    3    3    0    0 -0.14578377480E+01 -0.26664292089E+00  0.62153301962E+00  0.16070758857E+01  0.51100000000E-03 0. -1.
        -11    1    3    3    0    0  0.41001737702E+01  0.64468582219E+01  0.91500380494E+00  0.76948449044E+01  0.51100000000E-03 0.  1.
        -12    1    3    3    0    0  0.16810044245E+02  0.13616487937E+02  0.31829842797E+02  0.38485389743E+02  0.00000000000E+00 0.  1.
</event>
<event>
 7    1  0.5417298E-010  0.4778727E+02  0.7816164E-02  0.1312668E+00
        -11   -1    0    0    0    0  0.00000000000E+00  0.00000000000E+00  0.45593999997E+02  0.45594000000E+02  0.51100000000E-03 0.  1.
         11   -1    0    0    0    0 -0.00000000000E+00 -0.00000000000E+00 -0.45593999997E+02  0.45594000000E+02  0.51100000000E-03 0. -1.
    9900012    2    1    2    0    0 -0.73536138521E+00 -0.11061205029E+02  0.41961077739E+02  0.47787273530E+02  0.20000011334E+02 0.  0.
         12    1    1    2    0    0  0.73536138521E+00  0.11061205029E+02 -0.41961077739E+02  0.43400726470E+02  0.00000000000E+00 0. -1.
         11    1    3    3    0    0  0.21866103203E+01  0.25462773421E+01  0.15415785535E+01  0.36934073284E+01  0.51100000000E-03 0. -1.
        -11    1    3    3    0    0  0.28766356921E+01 -0.34222162897E+01  0.20503179884E+02  0.20984922751E+02  0.51100000000E-03 0.  1.
         12    1    3    3    0    0 -0.57986073976E+01 -0.10185266081E+02  0.19916319302E+02  0.23108943451E+02  0.00000000000E+00 0. -1.
</event>
<event>
 7    1  0.5417298E-010  0.4778727E+02  0.7816164E-02  0.1312668E+00
        -11   -1    0    0    0    0  0.00000000000E+00  0.00000000000E+00  0.45593999997E+02  0.45594000000E+02  0.51100000000E-03 0. -1.
         11   -1    0    0    0    0 -0.00000000000E+00 -0.00000000000E+00 -0.45593999997E+02  0.45594000000E+02  0.51100000000E-03 0.  1.
    9900012    2    1    2    0    0 -0.12623936500E+02  0.24650913462E+02 -0.33415444592E+02  0.47787271382E+02  0.20000001541E+02 0.  0.
         12    1    1    2    0    0  0.12623936500E+02 -0.24650913462E+02  0.33415444592E+02  0.43400728618E+02  0.00000000000E+00 0. -1.
         11    1    3    3    0    0 -0.19364068078E+00 -0.98592909126E-01  0.76341496364E-01  0.23031621778E+00  0.51100000000E-03 0. -1.
        -11    1    3    3    0    0  0.24897833270E+01 -0.11990256133E+01 -0.72191654879E+01  0.77300086701E+01  0.51100000000E-03 0.  1.
        -12    1    3    3    0    0 -0.14920079146E+02  0.25948531985E+02 -0.26272620600E+02  0.39826946495E+02  0.00000000000E+00 0.  1.
</event>
<event>
 7    1  0.5417298E-010  0.4778727E+02  0.7816164E-02  0.1312668E+00
        -11   -1    0    0    0    0  0.00000000000E+00  0.00000000000E+00  0.45593999997E+02  0.45594000000E+02  0.51100000000E-03 0.  1.
         11   -1    0    0    0    0 -0.00000000000E+00 -0.00000000000E+00 -0.45593999997E+02  0.45594000000E+02  0.51100000000E-03 0. -1.
    9900012    2    1    2    0    0  0.35364852090E+02  0.24840765362E+01  0.25035571671E+02  0.47787271337E+02  0.20000001334E+02 0.  0.
         12    1    1    2    0    0 -0.35364852090E+02 -0.24840765362E+01 -0.25035571671E+02  0.43400728663E+02  0.00000000000E+00 0. -1.
         11    1    3    3    0    0  0.18365953494E+02  0.22504925879E+01  0.90304853678E+01  0.20589381508E+02  0.51100000000E-03 0.  1.
        -11    1    3    3    0    0  0.67839271989E+01  0.28548113373E+01 -0.75203323540E+00  0.73984572892E+01  0.51100000000E-03 0. -1.
         12    1    3    3    0    0  0.10214971397E+02 -0.26212273889E+01  0.16757119539E+02  0.19799432540E+02  0.00000000000E+00 0. -1.
</event>
<event>
 7    1  0.5417298E-010  0.4778727E+02  0.7816164E-02  0.1312668E+00
        -11   -1    0    0    0    0  0.00000000000E+00  0.00000000000E+00  0.45593999997E+02  0.45594000000E+02  0.51100000000E-03 0. -1.
         11   -1    0    0    0    0 -0.00000000000E+00 -0.00000000000E+00 -0.45593999997E+02  0.45594000000E+02  0.51100000000E-03 0.  1.
    9900012    2    1    2    0    0 -0.11042477537E+02 -0.36211243951E+02 -0.21223406038E+02  0.47787268871E+02  0.19999990091E+02 0.  0.
         12    1    1    2    0    0  0.11042477537E+02  0.36211243951E+02  0.21223406038E+02  0.43400731129E+02  0.00000000000E+00 0. -1.
         11    1    3    3    0    0  0.84641376919E+00 -0.21239029810E+01 -0.25552342190E+01  0.34287902118E+01  0.51100000000E-03 0. -1.
        -11    1    3    3    0    0 -0.11519079323E+02 -0.11842712739E+02 -0.21737904565E+01  0.16663264947E+02  0.51100000000E-03 0.  1.
        -12    1    3    3    0    0 -0.36981198264E+00 -0.22244628231E+02 -0.16494381363E+02  0.27695213712E+02  0.00000000000E+00 0.  1.
</event>
<event>
 7    1  0.5417298E-010  0.4778728E+02  0.7816164E-02  0.1312668E+00
        -11   -1    0    0    0    0  0.00000000000E+00  0.00000000000E+00  0.45593999997E+02  0.45594000000E+02  0.51100000000E-03 0.  1.
         11   -1    0    0    0    0 -0.00000000000E+00 -0.00000000000E+00 -0.45593999997E+02  0.45594000000E+02  0.51100000000E-03 0. -1.
    9900012    2    1    2    0    0 -0.38393544669E+02  0.18236565940E+02 -0.87741723574E+01  0.47787277540E+02  0.20000029614E+02 0.  0.
         12    1    1    2    0    0  0.38393544669E+02 -0.18236565940E+02  0.87741723574E+01  0.43400722460E+02  0.00000000000E+00 0. -1.
         11    1    3    3    0    0 -0.16445530790E+01  0.47807619178E+01 -0.25602265382E+01  0.56670097523E+01  0.51100000000E-03 0. -1.
        -11    1    3    3    0    0 -0.40884839044E+01  0.52953964571E+01  0.28270113920E+01  0.72628450311E+01  0.51100000000E-03 0.  1.
        -12    1    3    3    0    0 -0.32660507686E+02  0.81604075653E+01 -0.90409572112E+01  0.34857422756E+02  0.00000000000E+00 0.  1.
</event>
<event>
 7    1  0.5417298E-010  0.4778727E+02  0.7816164E-02  0.1312668E+00
        -11   -1    0    0    0    0  0.00000000000E+00  0.00000000000E+00  0.45593999997E+02  0.45594000000E+02  0.51100000000E-03 0.  1.
         11   -1    0    0    0    0 -0.00000000000E+00 -0.00000000000E+00 -0.45593999997E+02  0.45594000000E+02  0.51100000000E-03 0. -1.
    9900012    2    1    2    0    0  0.55237469640E+01  0.35726305347E+02  0.24015466429E+02  0.47787270719E+02  0.19999998517E+02 0.  0.
         12    1    1    2    0    0 -0.55237469640E+01 -0.35726305347E+02 -0.24015466429E+02  0.43400729281E+02  0.00000000000E+00 0. -1.
         11    1    3    3    0    0 -0.28548036396E+01  0.70084414751E+01 -0.21163025548E+00  0.75705312467E+01  0.51100000000E-03 0. -1.
        -11    1    3    3    0    0  0.34717188557E+01  0.26202189600E+02  0.21466200297E+02  0.34050041514E+02  0.51100000000E-03 0.  1.
         12    1    3    3    0    0  0.49068317480E+01  0.25156742724E+01  0.27608963876E+01  0.61666979585E+01  0.00000000000E+00 0. -1.
</event>
<event>
 7    1  0.5417298E-010  0.4778727E+02  0.7816164E-02  0.1312668E+00
        -11   -1    0    0    0    0  0.00000000000E+00  0.00000000000E+00  0.45593999997E+02  0.45594000000E+02  0.51100000000E-03 0.  1.
         11   -1    0    0    0    0 -0.00000000000E+00 -0.00000000000E+00 -0.45593999997E+02  0.45594000000E+02  0.51100000000E-03 0. -1.
    9900012    2    1    2    0    0  0.20802276942E+02 -0.57469278685E+01  0.37654499722E+02  0.47787271259E+02  0.20000000979E+02 0.  0.
         12    1    1    2    0    0 -0.20802276942E+02  0.57469278685E+01 -0.37654499722E+02  0.43400728741E+02  0.00000000000E+00 0. -1.
         11    1    3    3    0    0  0.50008362818E+01  0.89118561926E+00  0.24052288589E+01  0.56202937156E+01  0.51100000000E-03 0. -1.
        -11    1    3    3    0    0  0.12457119206E+02  0.33670158300E-02  0.10396136710E+02  0.16225273157E+02  0.51100000000E-03 0.  1.
        -12    1    3    3    0    0  0.33443214543E+01 -0.66414805035E+01  0.24853134153E+02  0.25941704387E+02  0.00000000000E+00 0.  1.
</event>
<event>
 7    1  0.5417298E-010  0.4778727E+02  0.7816164E-02  0.1312668E+00
        -11   -1    0    0    0    0  0.00000000000E+00  0.00000000000E+00  0.45593999997E+02  0.45594000000E+02  0.51100000000E-03 0.  1.
         11   -1    0    0    0    0 -0.00000000000E+00 -0.00000000000E+00 -0.45593999997E+02  0.45594000000E+02  0.51100000000E-03 0. -1.
    9900012    2    1    2    0    0 -0.16712713156E+01  0.94813494033E+01  0.42319429739E+02  0.47787271115E+02  0.20000000322E+02 0.  0.
         12    1    1    2    0    0  0.16712713156E+01 -0.94813494033E+01 -0.42319429739E+02  0.43400728885E+02  0.00000000000E+00 0. -1.
         11    1    3    3    0    0  0.18304350041E-01  0.36652489469E+01  0.10632663386E+02  0.11246684660E+02  0.51100000000E-03 0. -1.
        -11    1    3    3    0    0 -0.84157417319E+01 -0.11526723281E+01  0.15624383134E+02  0.17784114006E+02  0.51100000000E-03 0.  1.
        -12    1    3    3    0    0  0.67261660663E+01  0.69687727845E+01  0.16062383218E+02  0.18756472449E+02  0.00000000000E+00 0.  1.
</event>
<event>
 7    1  0.5417298E-010  0.4778727E+02  0.7816164E-02  0.1312668E+00
        -11   -1    0    0    0    0  0.00000000000E+00  0.00000000000E+00  0.45593999997E+02  0.45594000000E+02  0.51100000000E-03 0.  1.
         11   -1    0    0    0    0 -0.00000000000E+00 -0.00000000000E+00 -0.45593999997E+02  0.45594000000E+02  0.51100000000E-03 0. -1.
    9900012    2    1    2    0    0 -0.15389702362E+02 -0.40466214502E+02 -0.30439890828E+01  0.47787270462E+02  0.19999997343E+02 0.  0.
         12    1    1    2    0    0  0.15389702362E+02  0.40466214502E+02  0.30439890828E+01  0.43400729538E+02  0.00000000000E+00 0. -1.
         11    1    3    3    0    0  0.26278148904E+00 -0.43470635236E+01  0.29724397443E+01  0.52727045890E+01  0.51100000000E-03 0. -1.
        -11    1    3    3    0    0  0.20684388039E+01 -0.65204709286E+01  0.19409449073E+01  0.71107135796E+01  0.51100000000E-03 0.  1.
        -12    1    3    3    0    0 -0.17720922655E+02 -0.29598680050E+02 -0.79573737344E+01  0.35403852293E+02  0.00000000000E+00 0.  1.
</event>
<event>
 7    1  0.5417298E-010  0.4778728E+02  0.7816164E-02  0.1312668E+00
        -11   -1    0    0    0    0  0.00000000000E+00  0.00000000000E+00  0.45593999997E+02  0.45594000000E+02  0.51100000000E-03 0. -1.
         11   -1    0    0    0    0 -0.00000000000E+00 -0.00000000000E+00 -0.45593999997E+02  0.45594000000E+02  0.51100000000E-03 0.  1.
    9900012    2    1    2    0    0  0.50172935638E+01 -0.43049732581E+02 -0.22738032013E+01  0.47787275455E+02  0.20000020111E+02 0.  0.
         12    1    1    2    0    0 -0.50172935638E+01  0.43049732581E+02  0.22738032013E+01  0.43400724545E+02  0.00000000000E+00 0. -1.
         11    1    3    3    0    0  0.61921612797E+00 -0.17419484771E+02  0.53950195683E+01  0.18246317840E+02  0.51100000000E-03 0. -1.
        -11    1    3    3    0    0  0.27035260494E+01 -0.41711948874E+00  0.86478467108E+00  0.28689535647E+01  0.51100000000E-03 0.  1.
        -12    1    3    3    0    0  0.16945513863E+01 -0.25213128321E+02 -0.85336074407E+01  0.26672004051E+02  0.00000000000E+00 0.  1.
</event>
<event>
 7    1  0.5417298E-010  0.4778727E+02  0.7816164E-02  0.1312668E+00
        -11   -1    0    0    0    0  0.00000000000E+00  0.00000000000E+00  0.45593999997E+02  0.45594000000E+02  0.51100000000E-03 0. -1.
         11   -1    0    0    0    0 -0.00000000000E+00 -0.00000000000E+00 -0.45593999997E+02  0.45594000000E+02  0.51100000000E-03 0.  1.
    9900012    2    1    2    0    0  0.26481550858E+02 -0.39101262102E+01 -0.34162285024E+02  0.47787270273E+02  0.19999996482E+02 0.  0.
         12    1    1    2    0    0 -0.26481550858E+02  0.39101262102E+01  0.34162285024E+02  0.43400729727E+02  0.00000000000E+00 0. -1.
         11    1    3    3    0    0  0.20876176324E+02 -0.19194540770E+01 -0.17675483768E+02  0.27421191961E+02  0.51100000000E-03 0. -1.
        -11    1    3    3    0    0  0.76401976116E+01 -0.43080622616E+01 -0.10965502250E+02  0.14041875225E+02  0.51100000000E-03 0.  1.
        -12    1    3    3    0    0 -0.20348230779E+01  0.23173901284E+01 -0.55212990058E+01  0.63242030863E+01  0.00000000000E+00 0.  1.
</event>
<event>
 7    1  0.5417298E-010  0.4778727E+02  0.7816164E-02  0.1312668E+00
        -11   -1    0    0    0    0  0.00000000000E+00  0.00000000000E+00  0.45593999997E+02  0.45594000000E+02  0.51100000000E-03 0.  1.
         11   -1    0    0    0    0 -0.00000000000E+00 -0.00000000000E+00 -0.45593999997E+02  0.45594000000E+02  0.51100000000E-03 0. -1.
    9900012    2    1    2    0    0 -0.32782747158E+01  0.14585972356E+02  0.40744640428E+02  0.47787269612E+02  0.19999993467E+02 0.  0.
         12    1    1    2    0    0  0.32782747158E+01 -0.14585972356E+02 -0.40744640428E+02  0.43400730388E+02  0.00000000000E+00 0. -1.
         11    1    3    3    0    0  0.24156879650E+01  0.59759234382E+00  0.19251272620E+01  0.31462326980E+01  0.51100000000E-03 0. -1.
        -11    1    3    3    0    0 -0.10009766439E+02  0.97463335637E+01  0.17033304053E+02  0.22029977062E+02  0.51100000000E-03 0.  1.
         12    1    3    3    0    0  0.43158037584E+01  0.42420464482E+01  0.21786209112E+02  0.22611059852E+02  0.00000000000E+00 0. -1.
</event>
<event>
 7    1  0.5417298E-010  0.4778724E+02  0.7816164E-02  0.1312668E+00
        -11   -1    0    0    0    0  0.00000000000E+00  0.00000000000E+00  0.45593999997E+02  0.45594000000E+02  0.51100000000E-03 0.  1.
         11   -1    0    0    0    0 -0.00000000000E+00 -0.00000000000E+00 -0.45593999997E+02  0.45594000000E+02  0.51100000000E-03 0. -1.
    9900012    2    1    2    0    0  0.23758591956E+02 -0.21131302282E+02  0.29540194835E+02  0.47787242648E+02  0.19999870527E+02 0.  0.
         12    1    1    2    0    0 -0.23758591956E+02  0.21131302282E+02 -0.29540194835E+02  0.43400757352E+02  0.00000000000E+00 0. -1.
         11    1    3    3    0    0  0.11984350241E+02 -0.41592810395E+01  0.73790145497E+01  0.14675630325E+02  0.51100000000E-03 0. -1.
        -11    1    3    3    0    0  0.11968226193E+02 -0.12374078406E+02  0.95489554452E+01  0.19686005307E+02  0.51100000000E-03 0.  1.
        -12    1    3    3    0    0 -0.19398447731E+00 -0.45979428361E+01  0.12612224840E+02  0.13425607015E+02  0.00000000000E+00 0.  1.
</event>
<event>
 7    1  0.5417298E-010  0.4778728E+02  0.7816164E-02  0.1312668E+00
        -11   -1    0    0    0    0  0.00000000000E+00  0.00000000000E+00  0.45593999997E+02  0.45594000000E+02  0.51100000000E-03 0.  1.
         11   -1    0    0    0    0 -0.00000000000E+00 -0.00000000000E+00 -0.45593999997E+02  0.45594000000E+02  0.51100000000E-03 0. -1.
    9900012    2    1    2    0    0  0.35898270308E+02 -0.48837131781E+01  0.23897413027E+02  0.47787276332E+02  0.20000024107E+02 0.  0.
         12    1    1    2    0    0 -0.35898270308E+02  0.48837131781E+01 -0.23897413027E+02  0.43400723668E+02  0.00000000000E+00 0. -1.
         11    1    3    3    0    0  0.18091972915E+02  0.53497661681E+01  0.11042790022E+02  0.21860528213E+02  0.51100000000E-03 0.  1.
        -11    1    3    3    0    0  0.48044940953E+01  0.14587303391E+01  0.31715618362E+01  0.59388435284E+01  0.51100000000E-03 0. -1.
        -12    1    3    3    0    0  0.13001803298E+02 -0.11692209685E+02  0.96830611690E+01  0.19987904591E+02  0.00000000000E+00 0.  1.
</event>
<event>
 7    1  0.5417298E-010  0.4778727E+02  0.7816164E-02  0.1312668E+00
        -11   -1    0    0    0    0  0.00000000000E+00  0.00000000000E+00  0.45593999997E+02  0.45594000000E+02  0.51100000000E-03 0.  1.
         11   -1    0    0    0    0 -0.00000000000E+00 -0.00000000000E+00 -0.45593999997E+02  0.45594000000E+02  0.51100000000E-03 0. -1.
    9900012    2    1    2    0    0 -0.22274426885E+02  0.21227225314E+02  0.30608465013E+02  0.47787270536E+02  0.19999997680E+02 0.  0.
         12    1    1    2    0    0  0.22274426885E+02 -0.21227225314E+02 -0.30608465013E+02  0.43400729464E+02  0.00000000000E+00 0. -1.
         11    1    3    3    0    0  0.19425274468E+01  0.13256535568E+00  0.43957543095E+01  0.48076649910E+01  0.51100000000E-03 0. -1.
        -11    1    3    3    0    0 -0.75681580923E+01  0.21464572352E+01  0.22348261710E+01  0.81779425193E+01  0.51100000000E-03 0.  1.
        -12    1    3    3    0    0 -0.16648796240E+02  0.18948202723E+02  0.23977884533E+02  0.34801663025E+02  0.00000000000E+00 0.  1.
</event>
<event>
 7    1  0.5417298E-010  0.4778727E+02  0.7816164E-02  0.1312668E+00
        -11   -1    0    0    0    0  0.00000000000E+00  0.00000000000E+00  0.45593999997E+02  0.45594000000E+02  0.51100000000E-03 0.  1.
         11   -1    0    0    0    0 -0.00000000000E+00 -0.00000000000E+00 -0.45593999997E+02  0.45594000000E+02  0.51100000000E-03 0. -1.
    9900012    2    1    2    0    0 -0.16437851613E+02 -0.30616636695E+02  0.26000807702E+02  0.47787269484E+02  0.19999992886E+02 0.  0.
         12    1    1    2    0    0  0.16437851613E+02  0.30616636695E+02 -0.26000807702E+02  0.43400730516E+02  0.00000000000E+00 0. -1.
         11    1    3    3    0    0 -0.42004971737E+01 -0.11821361895E+00 -0.41410157817E+00  0.42225148128E+01  0.51100000000E-03 0. -1.
        -11    1    3    3    0    0 -0.35902040236E+00  0.59766780211E+00 -0.41444381067E+00  0.81108962779E+00  0.51100000000E-03 0.  1.
        -12    1    3    3    0    0 -0.11878334037E+02 -0.31096090879E+02  0.26829353090E+02  0.42753665044E+02  0.00000000000E+00 0.  1.
</event>
<event>
 7    1  0.5417298E-010  0.4778727E+02  0.7816164E-02  0.1312668E+00
        -11   -1    0    0    0    0  0.00000000000E+00  0.00000000000E+00  0.45593999997E+02  0.45594000000E+02  0.51100000000E-03 0. -1.
         11   -1    0    0    0    0 -0.00000000000E+00 -0.00000000000E+00 -0.45593999997E+02  0.45594000000E+02  0.51100000000E-03 0.  1.
    9900012    2    1    2    0    0 -0.71643867740E+01  0.40148747565E+02 -0.14844969726E+02  0.47787268496E+02  0.19999988382E+02 0.  0.
         12    1    1    2    0    0  0.71643867740E+01 -0.40148747565E+02  0.14844969726E+02  0.43400731504E+02  0.00000000000E+00 0. -1.
         11    1    3    3    0    0 -0.11975037820E+01  0.21727757814E+02  0.14989218324E+01  0.21812295658E+02  0.51100000000E-03 0. -1.
        -11    1    3    3    0    0 -0.49234105414E+01  0.14518702795E+02 -0.95229843412E+01  0.18047712687E+02  0.51100000000E-03 0.  1.
        -12    1    3    3    0    0 -0.10434724506E+01  0.39022869559E+01 -0.68209072173E+01  0.79272601515E+01  0.00000000000E+00 0.  1.
</event>
<event>
 7    1  0.5417298E-010  0.4778728E+02  0.7816164E-02  0.1312668E+00
        -11   -1    0    0    0    0  0.00000000000E+00  0.00000000000E+00  0.45593999997E+02  0.45594000000E+02  0.51100000000E-03 0. -1.
         11   -1    0    0    0    0 -0.00000000000E+00 -0.00000000000E+00 -0.45593999997E+02  0.45594000000E+02  0.51100000000E-03 0.  1.
    9900012    2    1    2    0    0 -0.32879697628E+01 -0.28271344451E+01 -0.43183552244E+02  0.47787278592E+02  0.20000034410E+02 0.  0.
         12    1    1    2    0    0  0.32879697628E+01  0.28271344451E+01  0.43183552244E+02  0.43400721408E+02  0.00000000000E+00 0. -1.
         11    1    3    3    0    0  0.17556229488E+01 -0.10758554029E+01 -0.18602315416E+02  0.18715924126E+02  0.51100000000E-03 0. -1.
        -11    1    3    3    0    0  0.23371643535E+01  0.48530912700E+01 -0.11153632762E+02  0.12386216377E+02  0.51100000000E-03 0.  1.
        -12    1    3    3    0    0 -0.73807570651E+01 -0.66043703122E+01 -0.13427604066E+02  0.16685138089E+02  0.00000000000E+00 0.  1.
</event>
<event>
 7    1  0.5417298E-010  0.4778727E+02  0.7816164E-02  0.1312668E+00
        -11   -1    0    0    0    0  0.00000000000E+00  0.00000000000E+00  0.45593999997E+02  0.45594000000E+02  0.51100000000E-03 0.  1.
         11   -1    0    0    0    0 -0.00000000000E+00 -0.00000000000E+00 -0.45593999997E+02  0.45594000000E+02  0.51100000000E-03 0. -1.
    9900012    2    1    2    0    0  0.32134792071E+02  0.28118668475E+02  0.77665205148E+01  0.47787271675E+02  0.20000002876E+02 0.  0.
         12    1    1    2    0    0 -0.32134792071E+02 -0.28118668475E+02 -0.77665205148E+01  0.43400728325E+02  0.00000000000E+00 0. -1.
         11    1    3    3    0    0  0.12270653513E+02  0.88467612141E+01  0.72739281379E+01  0.16785236144E+02  0.51100000000E-03 0.  1.
        -11    1    3    3    0    0  0.82669296708E+01  0.60367933621E-01 -0.17479149408E+01  0.84499099031E+01  0.51100000000E-03 0. -1.
         12    1    3    3    0    0  0.11597208887E+02  0.19211539327E+02  0.22405073177E+01  0.22552125628E+02  0.00000000000E+00 0. -1.
</event>
<event>
 7    1  0.5417298E-010  0.4778727E+02  0.7816164E-02  0.1312668E+00
        -11   -1    0    0    0    0  0.00000000000E+00  0.00000000000E+00  0.45593999997E+02  0.45594000000E+02  0.51100000000E-03 0. -1.
         11   -1    0    0    0    0 -0.00000000000E+00 -0.00000000000E+00 -0.45593999997E+02  0.45594000000E+02  0.51100000000E-03 0.  1.
    9900012    2    1    2    0    0  0.49358753183E+01  0.38762552443E+02  0.18887166262E+02  0.47787269748E+02  0.19999994087E+02 0.  0.
         12    1    1    2    0    0 -0.49358753183E+01 -0.38762552443E+02 -0.18887166262E+02  0.43400730252E+02  0.00000000000E+00 0. -1.
         11    1    3    3    0    0 -0.57744731640E+00 -0.20881532133E+01 -0.44678512435E+00  0.22121135717E+01  0.51100000000E-03 0.  1.
        -11    1    3    3    0    0  0.27421535459E+01  0.23261293783E+02  0.99599629219E+01  0.25452073711E+02  0.51100000000E-03 0. -1.
        -12    1    3    3    0    0  0.27711690888E+01  0.17589411872E+02  0.93739884648E+01  0.20123082465E+02  0.00000000000E+00 0.  1.
</event>
<event>
 7    1  0.5417298E-010  0.4778727E+02  0.7816164E-02  0.1312668E+00
        -11   -1    0    0    0    0  0.00000000000E+00  0.00000000000E+00  0.45593999997E+02  0.45594000000E+02  0.51100000000E-03 0.  1.
         11   -1    0    0    0    0 -0.00000000000E+00 -0.00000000000E+00 -0.45593999997E+02  0.45594000000E+02  0.51100000000E-03 0. -1.
    9900012    2    1    2    0    0  0.18985893620E+02  0.10686501712E+02  0.37536086724E+02  0.47787270951E+02  0.19999999576E+02 0.  0.
         12    1    1    2    0    0 -0.18985893620E+02 -0.10686501712E+02 -0.37536086724E+02  0.43400729049E+02  0.00000000000E+00 0. -1.
         11    1    3    3    0    0  0.87044016755E+01 -0.34869839220E+01  0.82714100247E+01  0.12503675038E+02  0.51100000000E-03 0. -1.
        -11    1    3    3    0    0  0.77654934321E+01  0.32100595765E+01  0.13880951723E+02  0.16226157639E+02  0.51100000000E-03 0.  1.
        -12    1    3    3    0    0  0.25159985120E+01  0.10963426057E+02  0.15383724976E+02  0.19057438274E+02  0.00000000000E+00 0.  1.
</event>
<event>
 7    1  0.5417298E-010  0.4778727E+02  0.7816164E-02  0.1312668E+00
        -11   -1    0    0    0    0  0.00000000000E+00  0.00000000000E+00  0.45593999997E+02  0.45594000000E+02  0.51100000000E-03 0. -1.
         11   -1    0    0    0    0 -0.00000000000E+00 -0.00000000000E+00 -0.45593999997E+02  0.45594000000E+02  0.51100000000E-03 0.  1.
    9900012    2    1    2    0    0  0.85676087279E+01  0.31484446750E+01 -0.42430019841E+02  0.47787271816E+02  0.20000003519E+02 0.  0.
         12    1    1    2    0    0 -0.85676087279E+01 -0.31484446750E+01  0.42430019841E+02  0.43400728184E+02  0.00000000000E+00 0. -1.
         11    1    3    3    0    0  0.17977134794E+01  0.29064656379E+01 -0.80096786774E-02  0.34175108887E+01  0.51100000000E-03 0. -1.
        -11    1    3    3    0    0  0.73929692436E+01  0.39320488809E+01 -0.20730284387E+02  0.22357586937E+02  0.51100000000E-03 0.  1.
         12    1    3    3    0    0 -0.62307399517E+00 -0.36900698438E+01 -0.21691725776E+02  0.22012173990E+02  0.00000000000E+00 0. -1.
</event>
<event>
 7    1  0.5417298E-010  0.4778728E+02  0.7816164E-02  0.1312668E+00
        -11   -1    0    0    0    0  0.00000000000E+00  0.00000000000E+00  0.45593999997E+02  0.45594000000E+02  0.51100000000E-03 0. -1.
         11   -1    0    0    0    0 -0.00000000000E+00 -0.00000000000E+00 -0.45593999997E+02  0.45594000000E+02  0.51100000000E-03 0.  1.
    9900012    2    1    2    0    0 -0.20282343829E+02 -0.37503630092E+02  0.81072008587E+01  0.47787280570E+02  0.20000043431E+02 0.  0.
         12    1    1    2    0    0  0.20282343829E+02  0.37503630092E+02 -0.81072008587E+01  0.43400719430E+02  0.00000000000E+00 0. -1.
         11    1    3    3    0    0 -0.49939221984E+01 -0.40468140431E+01  0.69336689950E+01  0.94547199227E+01  0.51100000000E-03 0. -1.
        -11    1    3    3    0    0 -0.97538393759E+01 -0.18331531606E+02  0.58282384618E+01  0.21567354901E+02  0.51100000000E-03 0.  1.
        -12    1    3    3    0    0 -0.55345822548E+01 -0.15125284442E+02 -0.46547065980E+01  0.16765205746E+02  0.00000000000E+00 0.  1.
</event>
<event>
 7    1  0.5417298E-010  0.4778727E+02  0.7816164E-02  0.1312668E+00
        -11   -1    0    0    0    0  0.00000000000E+00  0.00000000000E+00  0.45593999997E+02  0.45594000000E+02  0.51100000000E-03 0.  1.
         11   -1    0    0    0    0 -0.00000000000E+00 -0.00000000000E+00 -0.45593999997E+02  0.45594000000E+02  0.51100000000E-03 0. -1.
    9900012    2    1    2    0    0 -0.27091456255E+02  0.73738921818E+01  0.33095348127E+02  0.47787270103E+02  0.19999995708E+02 0.  0.
         12    1    1    2    0    0  0.27091456255E+02 -0.73738921818E+01 -0.33095348127E+02  0.43400729897E+02  0.00000000000E+00 0. -1.
         11    1    3    3    0    0 -0.88839565496E+01  0.14676587627E+01  0.14631102035E+02  0.17179867672E+02  0.51100000000E-03 0. -1.
        -11    1    3    3    0    0 -0.15344018590E+02 -0.10046586431E+01  0.17111440977E+02  0.23005426709E+02  0.51100000000E-03 0.  1.
         12    1    3    3    0    0 -0.28634811154E+01  0.69108920623E+01  0.13528051146E+01  0.76019757216E+01  0.00000000000E+00 0. -1.
</event>
<event>
 7    1  0.5417298E-010  0.4778727E+02  0.7816164E-02  0.1312668E+00
        -11   -1    0    0    0    0  0.00000000000E+00  0.00000000000E+00  0.45593999997E+02  0.45594000000E+02  0.51100000000E-03 0. -1.
         11   -1    0    0    0    0 -0.00000000000E+00 -0.00000000000E+00 -0.45593999997E+02  0.45594000000E+02  0.51100000000E-03 0.  1.
    9900012    2    1    2    0    0 -0.60547540919E+01 -0.42378506859E+02 -0.71431987075E+01  0.47787272143E+02  0.20000005011E+02 0.  0.
         12    1    1    2    0    0  0.60547540919E+01  0.42378506859E+02  0.71431987075E+01  0.43400727857E+02  0.00000000000E+00 0. -1.
         11    1    3    3    0    0 -0.72028104047E+01 -0.73262743967E+01  0.28457480865E+01  0.10660818763E+02  0.51100000000E-03 0. -1.
        -11    1    3    3    0    0  0.44386553040E-01 -0.28362504686E+00  0.68238232393E+00  0.74031022580E+00  0.51100000000E-03 0.  1.
        -12    1    3    3    0    0  0.11036697598E+01 -0.34768607415E+02 -0.10671329118E+02  0.36386143155E+02  0.00000000000E+00 0.  1.
</event>
<event>
 7    1  0.5417298E-010  0.4778727E+02  0.7816164E-02  0.1312668E+00
        -11   -1    0    0    0    0  0.00000000000E+00  0.00000000000E+00  0.45593999997E+02  0.45594000000E+02  0.51100000000E-03 0.  1.
         11   -1    0    0    0    0 -0.00000000000E+00 -0.00000000000E+00 -0.45593999997E+02  0.45594000000E+02  0.51100000000E-03 0. -1.
    9900012    2    1    2    0    0 -0.25432265984E+02 -0.15006625582E+02  0.31806039751E+02  0.47787272713E+02  0.20000007606E+02 0.  0.
         12    1    1    2    0    0  0.25432265984E+02  0.15006625582E+02 -0.31806039751E+02  0.43400727287E+02  0.00000000000E+00 0. -1.
         11    1    3    3    0    0 -0.50718797657E+00 -0.16541095490E+01  0.95620241832E+01  0.97172848463E+01  0.51100000000E-03 0. -1.
        -11    1    3    3    0    0 -0.21345140809E+01 -0.58375034579E+01  0.81153484036E+01  0.10222107266E+02  0.51100000000E-03 0.  1.
        -12    1    3    3    0    0 -0.22790563927E+02 -0.75150125746E+01  0.14128667164E+02  0.27847880600E+02  0.00000000000E+00 0.  1.
</event>
<event>
 7    1  0.5417298E-010  0.4778726E+02  0.7816164E-02  0.1312668E+00
        -11   -1    0    0    0    0  0.00000000000E+00  0.00000000000E+00  0.45593999997E+02  0.45594000000E+02  0.51100000000E-03 0. -1.
         11   -1    0    0    0    0 -0.00000000000E+00 -0.00000000000E+00 -0.45593999997E+02  0.45594000000E+02  0.51100000000E-03 0.  1.
    9900012    2    1    2    0    0  0.28636820070E+02  0.20335430564E+02 -0.25495622095E+02  0.47787263302E+02  0.19999964697E+02 0.  0.
         12    1    1    2    0    0 -0.28636820070E+02 -0.20335430564E+02  0.25495622095E+02  0.43400736698E+02  0.00000000000E+00 0. -1.
         11    1    3    3    0    0  0.12413193814E+02  0.73320711027E+01 -0.13805857853E+02  0.19961171274E+02  0.51100000000E-03 0. -1.
        -11    1    3    3    0    0  0.14616664080E+02  0.57263151741E+01 -0.12846201651E+02  0.20284537249E+02  0.51100000000E-03 0.  1.
         12    1    3    3    0    0  0.16069621764E+01  0.72770442876E+01  0.11564374085E+01  0.75415547787E+01  0.00000000000E+00 0. -1.
</event>
<event>
 7    1  0.5417298E-010  0.4778729E+02  0.7816164E-02  0.1312668E+00
        -11   -1    0    0    0    0  0.00000000000E+00  0.00000000000E+00  0.45593999997E+02  0.45594000000E+02  0.51100000000E-03 0.  1.
         11   -1    0    0    0    0 -0.00000000000E+00 -0.00000000000E+00 -0.45593999997E+02  0.45594000000E+02  0.51100000000E-03 0. -1.
    9900012    2    1    2    0    0  0.29190915916E+02  0.30802892893E+02  0.90936332845E+01  0.47787286309E+02  0.20000069595E+02 0.  0.
         12    1    1    2    0    0 -0.29190915916E+02 -0.30802892893E+02 -0.90936332845E+01  0.43400713691E+02  0.00000000000E+00 0. -1.
         11    1    3    3    0    0  0.45851999759E+01  0.20725705490E+01  0.75536073618E+01  0.90761551296E+01  0.51100000000E-03 0. -1.
        -11    1    3    3    0    0  0.30664841492E+01  0.50682685542E+00  0.75687197188E+00  0.31989144943E+01  0.51100000000E-03 0.  1.
        -12    1    3    3    0    0  0.21539231791E+02  0.28223495489E+02  0.78315395078E+00  0.35512216685E+02  0.00000000000E+00 0.  1.
</event>
<event>
 7    1  0.5417298E-010  0.4778727E+02  0.7816164E-02  0.1312668E+00
        -11   -1    0    0    0    0  0.00000000000E+00  0.00000000000E+00  0.45593999997E+02  0.45594000000E+02  0.51100000000E-03 0. -1.
         11   -1    0    0    0    0 -0.00000000000E+00 -0.00000000000E+00 -0.45593999997E+02  0.45594000000E+02  0.51100000000E-03 0.  1.
    9900012    2    1    2    0    0  0.41399289309E+02 -0.12929753725E+02 -0.15947851960E+01  0.47787273895E+02  0.20000012996E+02 0.  0.
         12    1    1    2    0    0 -0.41399289309E+02  0.12929753725E+02  0.15947851960E+01  0.43400726105E+02  0.00000000000E+00 0. -1.
         11    1    3    3    0    0  0.13418141213E+02 -0.62374313808E+01  0.53727392789E+01  0.15742248615E+02  0.51100000000E-03 0. -1.
        -11    1    3    3    0    0  0.21319437453E+02 -0.83264036908E+01 -0.92907282524E+00  0.22906562123E+02  0.51100000000E-03 0.  1.
         12    1    3    3    0    0  0.66617106435E+01  0.16340813469E+01 -0.60384516496E+01  0.91384631569E+01  0.00000000000E+00 0. -1.
</event>
<event>
 7    1  0.5417298E-010  0.4778727E+02  0.7816164E-02  0.1312668E+00
        -11   -1    0    0    0    0  0.00000000000E+00  0.00000000000E+00  0.45593999997E+02  0.45594000000E+02  0.51100000000E-03 0. -1.
         11   -1    0    0    0    0 -0.00000000000E+00 -0.00000000000E+00 -0.45593999997E+02  0.45594000000E+02  0.51100000000E-03 0.  1.
    9900012    2    1    2    0    0  0.93554119224E+01 -0.24212683146E+02 -0.34782830402E+02  0.47787273645E+02  0.20000011857E+02 0.  0.
         12    1    1    2    0    0 -0.93554119224E+01  0.24212683146E+02  0.34782830402E+02  0.43400726355E+02  0.00000000000E+00 0. -1.
         11    1    3    3    0    0  0.63246669262E+00 -0.13941617703E+02 -0.16837397280E+02  0.21869308762E+02  0.51100000000E-03 0. -1.
        -11    1    3    3    0    0  0.58926518183E+01 -0.11474537739E+02 -0.72667202540E+01  0.14805187783E+02  0.51100000000E-03 0.  1.
         12    1    3    3    0    0  0.28302934115E+01  0.12034722964E+01 -0.10678712867E+02  0.11112777100E+02  0.00000000000E+00 0. -1.
</event>
<event>
 7    1  0.5417298E-010  0.4778727E+02  0.7816164E-02  0.1312668E+00
        -11   -1    0    0    0    0  0.00000000000E+00  0.00000000000E+00  0.45593999997E+02  0.45594000000E+02  0.51100000000E-03 0. -1.
         11   -1    0    0    0    0 -0.00000000000E+00 -0.00000000000E+00 -0.45593999997E+02  0.45594000000E+02  0.51100000000E-03 0.  1.
    9900012    2    1    2    0    0 -0.41783653749E+02 -0.52261104739E+01 -0.10508921063E+02  0.47787269900E+02  0.19999994783E+02 0.  0.
         12    1    1    2    0    0  0.41783653749E+02  0.52261104739E+01  0.10508921063E+02  0.43400730100E+02  0.00000000000E+00 0. -1.
         11    1    3    3    0    0 -0.65530741164E+01  0.17627801313E+01 -0.16427027193E+01  0.69820231060E+01  0.51100000000E-03 0. -1.
        -11    1    3    3    0    0 -0.13664502627E+02 -0.52511006411E+01 -0.12019117830E+02  0.18940746650E+02  0.51100000000E-03 0.  1.
         12    1    3    3    0    0 -0.21566077006E+02 -0.17377899641E+01  0.31528994869E+01  0.21864500144E+02  0.00000000000E+00 0. -1.
</event>
<event>
 7    1  0.5417298E-010  0.4778727E+02  0.7816164E-02  0.1312668E+00
        -11   -1    0    0    0    0  0.00000000000E+00  0.00000000000E+00  0.45593999997E+02  0.45594000000E+02  0.51100000000E-03 0. -1.
         11   -1    0    0    0    0 -0.00000000000E+00 -0.00000000000E+00 -0.45593999997E+02  0.45594000000E+02  0.51100000000E-03 0.  1.
    9900012    2    1    2    0    0 -0.40639514111E+02  0.15196732182E+02  0.10546067897E+01  0.47787274526E+02  0.20000015873E+02 0.  0.
         12    1    1    2    0    0  0.40639514111E+02 -0.15196732182E+02 -0.10546067897E+01  0.43400725474E+02  0.00000000000E+00 0. -1.
         11    1    3    3    0    0 -0.12187722021E+02  0.43312626696E+01 -0.38674970039E+01  0.13500293986E+02  0.51100000000E-03 0.  1.
        -11    1    3    3    0    0 -0.17009809463E+02  0.71659567884E+01 -0.45139037341E+01  0.19001575773E+02  0.51100000000E-03 0. -1.
         12    1    3    3    0    0 -0.11441982627E+02  0.36995127242E+01  0.94360075278E+01  0.15285404767E+02  0.00000000000E+00 0. -1.
</event>
<event>
 7    1  0.5417298E-010  0.4778727E+02  0.7816164E-02  0.1312668E+00
        -11   -1    0    0    0    0  0.00000000000E+00  0.00000000000E+00  0.45593999997E+02  0.45594000000E+02  0.51100000000E-03 0.  1.
         11   -1    0    0    0    0 -0.00000000000E+00 -0.00000000000E+00 -0.45593999997E+02  0.45594000000E+02  0.51100000000E-03 0. -1.
    9900012    2    1    2    0    0 -0.20673934827E+02  0.12894534252E+02  0.35915775664E+02  0.47787268020E+02  0.19999986211E+02 0.  0.
         12    1    1    2    0    0  0.20673934827E+02 -0.12894534252E+02 -0.35915775664E+02  0.43400731980E+02  0.00000000000E+00 0. -1.
         11    1    3    3    0    0 -0.46112817738E+00  0.11769558989E+00 -0.13671250485E+00  0.49515857860E+00  0.51100000000E-03 0. -1.
        -11    1    3    3    0    0 -0.20151212580E+02  0.73687682854E+01  0.35969711894E+02  0.41883054909E+02  0.51100000000E-03 0.  1.
        -12    1    3    3    0    0 -0.61594069809E-01  0.54080703765E+01  0.82776275058E-01  0.54090545327E+01  0.00000000000E+00 0.  1.
</event>
<event>
 7    1  0.5417298E-010  0.4778726E+02  0.7816164E-02  0.1312668E+00
        -11   -1    0    0    0    0  0.00000000000E+00  0.00000000000E+00  0.45593999997E+02  0.45594000000E+02  0.51100000000E-03 0. -1.
         11   -1    0    0    0    0 -0.00000000000E+00 -0.00000000000E+00 -0.45593999997E+02  0.45594000000E+02  0.51100000000E-03 0.  1.
    9900012    2    1    2    0    0 -0.95781316779E+01 -0.40356604479E+01 -0.42137832401E+02  0.47787261744E+02  0.19999957597E+02 0.  0.
         12    1    1    2    0    0  0.95781316779E+01  0.40356604479E+01  0.42137832401E+02  0.43400738256E+02  0.00000000000E+00 0. -1.
         11    1    3    3    0    0 -0.74104086755E+01  0.17507477404E+01 -0.43298629929E+01  0.87593942819E+01  0.51100000000E-03 0. -1.
        -11    1    3    3    0    0 -0.45966600617E+01 -0.17963746957E+01 -0.21840732141E+02  0.22391378396E+02  0.51100000000E-03 0.  1.
        -12    1    3    3    0    0  0.24289370592E+01 -0.39900334926E+01 -0.15967237267E+02  0.16636489066E+02  0.00000000000E+00 0.  1.
</event>
<event>
 7    1  0.5417298E-010  0.4778727E+02  0.7816164E-02  0.1312668E+00
        -11   -1    0    0    0    0  0.00000000000E+00  0.00000000000E+00  0.45593999997E+02  0.45594000000E+02  0.51100000000E-03 0.  1.
         11   -1    0    0    0    0 -0.00000000000E+00 -0.00000000000E+00 -0.45593999997E+02  0.45594000000E+02  0.51100000000E-03 0. -1.
    9900012    2    1    2    0    0 -0.54308908554E+01 -0.40270571124E+02 -0.15244994268E+02  0.47787270463E+02  0.19999997349E+02 0.  0.
         12    1    1    2    0    0  0.54308908554E+01  0.40270571124E+02  0.15244994268E+02  0.43400729537E+02  0.00000000000E+00 0. -1.
         11    1    3    3    0    0 -0.16504164387E+01 -0.15582254677E+01 -0.29519297203E+01  0.37236850517E+01  0.51100000000E-03 0.  1.
        -11    1    3    3    0    0 -0.31704346883E+00 -0.20266525544E+01 -0.64324702640E+01  0.67516302546E+01  0.51100000000E-03 0. -1.
        -12    1    3    3    0    0 -0.34634309478E+01 -0.36685693101E+02 -0.58605942839E+01  0.37311955157E+02  0.00000000000E+00 0.  1.
</event>
<event>
 7    1  0.5417298E-010  0.4778727E+02  0.7816164E-02  0.1312668E+00
        -11   -1    0    0    0    0  0.00000000000E+00  0.00000000000E+00  0.45593999997E+02  0.45594000000E+02  0.51100000000E-03 0.  1.
         11   -1    0    0    0    0 -0.00000000000E+00 -0.00000000000E+00 -0.45593999997E+02  0.45594000000E+02  0.51100000000E-03 0. -1.
    9900012    2    1    2    0    0  0.51330013340E+01 -0.41522751769E+02 -0.11538482679E+02  0.47787271899E+02  0.20000003895E+02 0.  0.
         12    1    1    2    0    0 -0.51330013340E+01  0.41522751769E+02  0.11538482679E+02  0.43400728101E+02  0.00000000000E+00 0. -1.
         11    1    3    3    0    0  0.31718014793E+01 -0.95835447282E+01 -0.20762659023E+00  0.10096918502E+02  0.51100000000E-03 0. -1.
        -11    1    3    3    0    0  0.62657465028E+01 -0.20621816370E+02 -0.67878558431E+00  0.21563386556E+02  0.51100000000E-03 0.  1.
         12    1    3    3    0    0 -0.43045466481E+01 -0.11317390671E+02 -0.10652070504E+02  0.16126966841E+02  0.00000000000E+00 0. -1.
</event>
<event>
 7    1  0.5417298E-010  0.4778726E+02  0.7816164E-02  0.1312668E+00
        -11   -1    0    0    0    0  0.00000000000E+00  0.00000000000E+00  0.45593999997E+02  0.45594000000E+02  0.51100000000E-03 0.  1.
         11   -1    0    0    0    0 -0.00000000000E+00 -0.00000000000E+00 -0.45593999997E+02  0.45594000000E+02  0.51100000000E-03 0. -1.
    9900012    2    1    2    0    0 -0.29228824479E+01  0.43193563630E+02  0.30654799291E+01  0.47787258669E+02  0.19999943577E+02 0.  0.
         12    1    1    2    0    0  0.29228824479E+01 -0.43193563630E+02 -0.30654799291E+01  0.43400741331E+02  0.00000000000E+00 0. -1.
         11    1    3    3    0    0  0.44538769273E+01  0.15534210662E+02  0.44022718309E+01  0.16748991555E+02  0.51100000000E-03 0. -1.
        -11    1    3    3    0    0  0.20451047143E+01  0.92711387110E+00 -0.14881976476E+01  0.26938310864E+01  0.51100000000E-03 0.  1.
         12    1    3    3    0    0 -0.94218640895E+01  0.26732239097E+02  0.15140574574E+00  0.28344436028E+02  0.00000000000E+00 0. -1.
</event>
<event>
 7    1  0.5417298E-010  0.4778727E+02  0.7816164E-02  0.1312668E+00
        -11   -1    0    0    0    0  0.00000000000E+00  0.00000000000E+00  0.45593999997E+02  0.45594000000E+02  0.51100000000E-03 0. -1.
         11   -1    0    0    0    0 -0.00000000000E+00 -0.00000000000E+00 -0.45593999997E+02  0.45594000000E+02  0.51100000000E-03 0.  1.
    9900012    2    1    2    0    0  0.18736191961E+02 -0.31816250314E+02 -0.22810189937E+02  0.47787269152E+02  0.19999991370E+02 0.  0.
         12    1    1    2    0    0 -0.18736191961E+02  0.31816250314E+02  0.22810189937E+02  0.43400730848E+02  0.00000000000E+00 0. -1.
         11    1    3    3    0    0  0.24761253476E+01 -0.24194500820E+01  0.19305527330E+01  0.39638326848E+01  0.51100000000E-03 0. -1.
        -11    1    3    3    0    0  0.11433529345E+01 -0.15607629278E+02 -0.94656778419E+01  0.18289461580E+02  0.51100000000E-03 0.  1.
        -12    1    3    3    0    0  0.15116713679E+02 -0.13789170954E+02 -0.15275064828E+02  0.25533974887E+02  0.00000000000E+00 0.  1.
</event>
<event>
 7    1  0.5417298E-010  0.4778727E+02  0.7816164E-02  0.1312668E+00
        -11   -1    0    0    0    0  0.00000000000E+00  0.00000000000E+00  0.45593999997E+02  0.45594000000E+02  0.51100000000E-03 0. -1.
         11   -1    0    0    0    0 -0.00000000000E+00 -0.00000000000E+00 -0.45593999997E+02  0.45594000000E+02  0.51100000000E-03 0.  1.
    9900012    2    1    2    0    0 -0.17142000144E+02  0.26548384751E+02 -0.29748248147E+02  0.47787272245E+02  0.20000005474E+02 0.  0.
         12    1    1    2    0    0  0.17142000144E+02 -0.26548384751E+02  0.29748248147E+02  0.43400727755E+02  0.00000000000E+00 0. -1.
         11    1    3    3    0    0 -0.14066548197E+02  0.27414507263E+02 -0.20719877985E+02  0.37131338929E+02  0.51100000000E-03 0. -1.
        -11    1    3    3    0    0 -0.29769515968E+00  0.15845293559E+01 -0.46457484225E+01  0.49175536961E+01  0.51100000000E-03 0.  1.
         12    1    3    3    0    0 -0.27777567875E+01 -0.24506518685E+01 -0.43826217397E+01  0.57383796201E+01  0.00000000000E+00 0. -1.
</event>
<event>
 7    1  0.5417298E-010  0.4778727E+02  0.7816164E-02  0.1312668E+00
        -11   -1    0    0    0    0  0.00000000000E+00  0.00000000000E+00  0.45593999997E+02  0.45594000000E+02  0.51100000000E-03 0.  1.
         11   -1    0    0    0    0 -0.00000000000E+00 -0.00000000000E+00 -0.45593999997E+02  0.45594000000E+02  0.51100000000E-03 0. -1.
    9900012    2    1    2    0    0  0.22554215199E+02 -0.36402592889E+02 -0.70556272262E+01  0.47787271114E+02  0.20000000316E+02 0.  0.
         12    1    1    2    0    0 -0.22554215199E+02  0.36402592889E+02  0.70556272262E+01  0.43400728886E+02  0.00000000000E+00 0. -1.
         11    1    3    3    0    0  0.13709495928E+02 -0.17457271619E+02 -0.63473852711E+01  0.23086704204E+02  0.51100000000E-03 0. -1.
        -11    1    3    3    0    0  0.99800656891E+01 -0.11771208254E+02  0.41271421731E+01  0.15974866438E+02  0.51100000000E-03 0.  1.
         12    1    3    3    0    0 -0.11353464181E+01 -0.71741130165E+01 -0.48353841281E+01  0.87257004721E+01  0.00000000000E+00 0. -1.
</event>
<event>
 7    1  0.5417298E-010  0.4778727E+02  0.7816164E-02  0.1312668E+00
        -11   -1    0    0    0    0  0.00000000000E+00  0.00000000000E+00  0.45593999997E+02  0.45594000000E+02  0.51100000000E-03 0. -1.
         11   -1    0    0    0    0 -0.00000000000E+00 -0.00000000000E+00 -0.45593999997E+02  0.45594000000E+02  0.51100000000E-03 0.  1.
    9900012    2    1    2    0    0 -0.36975412429E+02 -0.22719484922E+02 -0.51706937528E+00  0.47787268668E+02  0.19999989165E+02 0.  0.
         12    1    1    2    0    0  0.36975412429E+02  0.22719484922E+02  0.51706937528E+00  0.43400731332E+02  0.00000000000E+00 0. -1.
         11    1    3    3    0    0 -0.12651071972E+02 -0.13282197802E+02 -0.20922890695E+01  0.18461962904E+02  0.51100000000E-03 0. -1.
        -11    1    3    3    0    0 -0.42730578912E+01 -0.97453954322E-02 -0.46452426795E+01  0.63116874548E+01  0.51100000000E-03 0.  1.
         12    1    3    3    0    0 -0.20051282566E+02 -0.94275417249E+01  0.62204623737E+01  0.23013618309E+02  0.00000000000E+00 0. -1.
</event>
<event>
 7    1  0.5417298E-010  0.4778726E+02  0.7816164E-02  0.1312668E+00
        -11   -1    0    0    0    0  0.00000000000E+00  0.00000000000E+00  0.45593999997E+02  0.45594000000E+02  0.51100000000E-03 0.  1.
         11   -1    0    0    0    0 -0.00000000000E+00 -0.00000000000E+00 -0.45593999997E+02  0.45594000000E+02  0.51100000000E-03 0. -1.
    9900012    2    1    2    0    0  0.15192549028E+02 -0.26456178097E+02  0.30868770917E+02  0.47787263562E+02  0.19999965883E+02 0.  0.
         12    1    1    2    0    0 -0.15192549028E+02  0.26456178097E+02 -0.30868770917E+02  0.43400736438E+02  0.00000000000E+00 0. -1.
         11    1    3    3    0    0  0.22314524940E-02  0.16931204698E+01 -0.57259748409E+00  0.17873248290E+01  0.51100000000E-03 0.  1.
        -11    1    3    3    0    0  0.26016479818E+00 -0.24582851176E+01 -0.33551093822E+00  0.24946781942E+01  0.51100000000E-03 0. -1.
        -12    1    3    3    0    0  0.14930152777E+02 -0.25691013449E+02  0.31776879339E+02  0.43505260539E+02  0.00000000000E+00 0.  1.
</event>
<event>
 7    1  0.5417298E-010  0.4778727E+02  0.7816164E-02  0.1312668E+00
        -11   -1    0    0    0    0  0.00000000000E+00  0.00000000000E+00  0.45593999997E+02  0.45594000000E+02  0.51100000000E-03 0. -1.
         11   -1    0    0    0    0 -0.00000000000E+00 -0.00000000000E+00 -0.45593999997E+02  0.45594000000E+02  0.51100000000E-03 0.  1.
    9900012    2    1    2    0    0  0.61811210538E+01 -0.97616354433E+00 -0.42947221765E+02  0.47787274084E+02  0.20000013857E+02 0.  0.
         12    1    1    2    0    0 -0.61811210538E+01  0.97616354433E+00  0.42947221765E+02  0.43400725916E+02  0.00000000000E+00 0. -1.
         11    1    3    3    0    0  0.15309980188E+01 -0.78882113824E+01 -0.15040887191E+02  0.17052745277E+02  0.51100000000E-03 0. -1.
        -11    1    3    3    0    0 -0.88873385561E+00  0.61167814253E+00  0.44580222633E+00  0.11673636547E+01  0.51100000000E-03 0.  1.
        -12    1    3    3    0    0  0.55388568905E+01  0.63003696955E+01 -0.28352136800E+02  0.29567165152E+02  0.00000000000E+00 0.  1.
</event>
<event>
 7    1  0.5417298E-010  0.4778727E+02  0.7816164E-02  0.1312668E+00
        -11   -1    0    0    0    0  0.00000000000E+00  0.00000000000E+00  0.45593999997E+02  0.45594000000E+02  0.51100000000E-03 0.  1.
         11   -1    0    0    0    0 -0.00000000000E+00 -0.00000000000E+00 -0.45593999997E+02  0.45594000000E+02  0.51100000000E-03 0. -1.
    9900012    2    1    2    0    0 -0.24312322894E+02  0.35848286832E+02  0.27266865726E+01  0.47787268059E+02  0.19999986390E+02 0.  0.
         12    1    1    2    0    0  0.24312322894E+02 -0.35848286832E+02 -0.27266865726E+01  0.43400731941E+02  0.00000000000E+00 0. -1.
         11    1    3    3    0    0 -0.88209787607E+01  0.14758605906E+02 -0.46974060883E+01  0.17823909189E+02  0.51100000000E-03 0. -1.
        -11    1    3    3    0    0 -0.75387059467E+01  0.16905812623E+02  0.32816684015E+00  0.18513408156E+02  0.51100000000E-03 0.  1.
        -12    1    3    3    0    0 -0.79526381864E+01  0.41838683033E+01  0.70959258207E+01  0.11449950714E+02  0.00000000000E+00 0.  1.
</event>
<event>
 7    1  0.5417298E-010  0.4778727E+02  0.7816164E-02  0.1312668E+00
        -11   -1    0    0    0    0  0.00000000000E+00  0.00000000000E+00  0.45593999997E+02  0.45594000000E+02  0.51100000000E-03 0.  1.
         11   -1    0    0    0    0 -0.00000000000E+00 -0.00000000000E+00 -0.45593999997E+02  0.45594000000E+02  0.51100000000E-03 0. -1.
    9900012    2    1    2    0    0 -0.35232986141E+02 -0.25319061915E+02 -0.10977792035E+01  0.47787270422E+02  0.19999997164E+02 0.  0.
         12    1    1    2    0    0  0.35232986141E+02  0.25319061915E+02  0.10977792035E+01  0.43400729578E+02  0.00000000000E+00 0. -1.
         11    1    3    3    0    0 -0.12182384431E+02 -0.17834721451E+01  0.14552482708E+01  0.12397943826E+02  0.51100000000E-03 0. -1.
        -11    1    3    3    0    0 -0.62664617474E+01 -0.16760234639E+01 -0.42863338776E+01  0.77749762607E+01  0.51100000000E-03 0.  1.
        -12    1    3    3    0    0 -0.16784139963E+02 -0.21859566306E+02  0.17333064034E+01  0.27614350336E+02  0.00000000000E+00 0.  1.
</event>
<event>
 7    1  0.5417298E-010  0.4778727E+02  0.7816164E-02  0.1312668E+00
        -11   -1    0    0    0    0  0.00000000000E+00  0.00000000000E+00  0.45593999997E+02  0.45594000000E+02  0.51100000000E-03 0.  1.
         11   -1    0    0    0    0 -0.00000000000E+00 -0.00000000000E+00 -0.45593999997E+02  0.45594000000E+02  0.51100000000E-03 0. -1.
    9900012    2    1    2    0    0  0.36181772345E+01 -0.26858455984E+02  0.33899193851E+02  0.47787271802E+02  0.20000003455E+02 0.  0.
         12    1    1    2    0    0 -0.36181772345E+01  0.26858455984E+02 -0.33899193851E+02  0.43400728198E+02  0.00000000000E+00 0. -1.
         11    1    3    3    0    0  0.56015461795E+01 -0.27710912262E+01  0.98239545237E+01  0.11643296309E+02  0.51100000000E-03 0. -1.
        -11    1    3    3    0    0 -0.44872779370E+01 -0.30052371685E+01  0.73292407888E+01  0.91041136045E+01  0.51100000000E-03 0.  1.
         12    1    3    3    0    0  0.25039089920E+01 -0.21082127589E+02  0.16745998539E+02  0.27039861889E+02  0.00000000000E+00 0. -1.
</event>
<event>
 7    1  0.5417298E-010  0.4778727E+02  0.7816164E-02  0.1312668E+00
        -11   -1    0    0    0    0  0.00000000000E+00  0.00000000000E+00  0.45593999997E+02  0.45594000000E+02  0.51100000000E-03 0.  1.
         11   -1    0    0    0    0 -0.00000000000E+00 -0.00000000000E+00 -0.45593999997E+02  0.45594000000E+02  0.51100000000E-03 0. -1.
    9900012    2    1    2    0    0 -0.45314503353E+01  0.91984463480E+00  0.43153715080E+02  0.47787270956E+02  0.19999999598E+02 0.  0.
         12    1    1    2    0    0  0.45314503353E+01 -0.91984463480E+00 -0.43153715080E+02  0.43400729044E+02  0.00000000000E+00 0. -1.
         11    1    3    3    0    0  0.44874458015E+01 -0.81248578558E+00  0.63788703692E+01  0.78413831957E+01  0.51100000000E-03 0. -1.
        -11    1    3    3    0    0 -0.12897781545E+01  0.34914747660E+01  0.27475954740E+02  0.27726918560E+02  0.51100000000E-03 0.  1.
        -12    1    3    3    0    0 -0.77291179824E+01 -0.17591443456E+01  0.92988899712E+01  0.12218969200E+02  0.00000000000E+00 0.  1.
</event>
<event>
 7    1  0.5417298E-010  0.4778728E+02  0.7816164E-02  0.1312668E+00
        -11   -1    0    0    0    0  0.00000000000E+00  0.00000000000E+00  0.45593999997E+02  0.45594000000E+02  0.51100000000E-03 0.  1.
         11   -1    0    0    0    0 -0.00000000000E+00 -0.00000000000E+00 -0.45593999997E+02  0.45594000000E+02  0.51100000000E-03 0. -1.
    9900012    2    1    2    0    0 -0.11402565212E+02 -0.13513814670E+02  0.39635602013E+02  0.47787278493E+02  0.20000033962E+02 0.  0.
         12    1    1    2    0    0  0.11402565212E+02  0.13513814670E+02 -0.39635602013E+02  0.43400721507E+02  0.00000000000E+00 0. -1.
         11    1    3    3    0    0 -0.73955285823E+01 -0.17120639294E+01  0.21659795590E+02  0.22951508691E+02  0.51100000000E-03 0. -1.
        -11    1    3    3    0    0 -0.54026848675E+01 -0.17632396475E+00  0.50909396429E+01  0.74254804981E+01  0.51100000000E-03 0.  1.
        -12    1    3    3    0    0  0.13956482374E+01 -0.11625426776E+02  0.12884866780E+02  0.17410289304E+02  0.00000000000E+00 0.  1.
</event>
<event>
 7    1  0.5417298E-010  0.4778727E+02  0.7816164E-02  0.1312668E+00
        -11   -1    0    0    0    0  0.00000000000E+00  0.00000000000E+00  0.45593999997E+02  0.45594000000E+02  0.51100000000E-03 0. -1.
         11   -1    0    0    0    0 -0.00000000000E+00 -0.00000000000E+00 -0.45593999997E+02  0.45594000000E+02  0.51100000000E-03 0.  1.
    9900012    2    1    2    0    0  0.84248520405E+01  0.35416436142E+02 -0.23628819677E+02  0.47787271893E+02  0.20000003869E+02 0.  0.
         12    1    1    2    0    0 -0.84248520405E+01 -0.35416436142E+02  0.23628819677E+02  0.43400728107E+02  0.00000000000E+00 0. -1.
         11    1    3    3    0    0 -0.49781941840E+01  0.19012715885E+02 -0.13391297006E+02  0.23782191203E+02  0.51100000000E-03 0. -1.
        -11    1    3    3    0    0  0.16555534493E+01  0.68902945083E+00 -0.21073077249E+01  0.27670137181E+01  0.51100000000E-03 0.  1.
         12    1    3    3    0    0  0.11747492775E+02  0.15714690805E+02 -0.81302149464E+01  0.21238066972E+02  0.00000000000E+00 0. -1.
</event>
<event>
 7    1  0.5417298E-010  0.4778727E+02  0.7816164E-02  0.1312668E+00
        -11   -1    0    0    0    0  0.00000000000E+00  0.00000000000E+00  0.45593999997E+02  0.45594000000E+02  0.51100000000E-03 0.  1.
         11   -1    0    0    0    0 -0.00000000000E+00 -0.00000000000E+00 -0.45593999997E+02  0.45594000000E+02  0.51100000000E-03 0. -1.
    9900012    2    1    2    0    0 -0.61813648629E+01  0.96633902527E+01  0.41857288638E+02  0.47787274259E+02  0.20000014655E+02 0.  0.
         12    1    1    2    0    0  0.61813648629E+01 -0.96633902527E+01 -0.41857288638E+02  0.43400725741E+02  0.00000000000E+00 0. -1.
         11    1    3    3    0    0  0.32948889618E+01 -0.83656702120E-01 -0.15368286242E-01  0.32959866747E+01  0.51100000000E-03 0. -1.
        -11    1    3    3    0    0 -0.33219940938E+01 -0.57013850455E-01  0.70187488825E+01  0.77654189504E+01  0.51100000000E-03 0.  1.
         12    1    3    3    0    0 -0.61542597309E+01  0.98040608052E+01  0.34853908042E+02  0.36725868634E+02  0.00000000000E+00 0. -1.
</event>
<event>
 7    1  0.5417298E-010  0.4778728E+02  0.7816164E-02  0.1312668E+00
        -11   -1    0    0    0    0  0.00000000000E+00  0.00000000000E+00  0.45593999997E+02  0.45594000000E+02  0.51100000000E-03 0.  1.
         11   -1    0    0    0    0 -0.00000000000E+00 -0.00000000000E+00 -0.45593999997E+02  0.45594000000E+02  0.51100000000E-03 0. -1.
    9900012    2    1    2    0    0 -0.23190932017E+02 -0.10494884424E+02  0.35151967000E+02  0.47787277531E+02  0.20000029574E+02 0.  0.
         12    1    1    2    0    0  0.23190932017E+02  0.10494884424E+02 -0.35151967000E+02  0.43400722469E+02  0.00000000000E+00 0. -1.
         11    1    3    3    0    0 -0.58862756211E+01  0.90450261578E+00  0.30278417369E+01  0.66808825401E+01  0.51100000000E-03 0. -1.
        -11    1    3    3    0    0  0.87052094812E+00  0.25258518503E+01  0.24435857849E+01  0.36206140418E+01  0.51100000000E-03 0.  1.
        -12    1    3    3    0    0 -0.18175177344E+02 -0.13925238890E+02  0.29680539478E+02  0.37485780949E+02  0.00000000000E+00 0.  1.
</event>
<event>
 7    1  0.5417298E-010  0.4778726E+02  0.7816164E-02  0.1312668E+00
        -11   -1    0    0    0    0  0.00000000000E+00  0.00000000000E+00  0.45593999997E+02  0.45594000000E+02  0.51100000000E-03 0. -1.
         11   -1    0    0    0    0 -0.00000000000E+00 -0.00000000000E+00 -0.45593999997E+02  0.45594000000E+02  0.51100000000E-03 0.  1.
    9900012    2    1    2    0    0 -0.24937151581E+02  0.10285817068E+02 -0.33999482175E+02  0.47787258648E+02  0.19999943478E+02 0.  0.
         12    1    1    2    0    0  0.24937151581E+02 -0.10285817068E+02  0.33999482175E+02  0.43400741352E+02  0.00000000000E+00 0. -1.
         11    1    3    3    0    0  0.83593042545E+00  0.32239531090E+01 -0.28071674564E+01  0.43557826753E+01  0.51100000000E-03 0. -1.
        -11    1    3    3    0    0 -0.20604738354E+02  0.39951888934E+01 -0.14026297745E+02  0.25243886500E+02  0.51100000000E-03 0.  1.
         12    1    3    3    0    0 -0.51683436530E+01  0.30666750660E+01 -0.17166016974E+02  0.18187589473E+02  0.00000000000E+00 0. -1.
</event>
<event>
 7    1  0.5417298E-010  0.4778727E+02  0.7816164E-02  0.1312668E+00
        -11   -1    0    0    0    0  0.00000000000E+00  0.00000000000E+00  0.45593999997E+02  0.45594000000E+02  0.51100000000E-03 0. -1.
         11   -1    0    0    0    0 -0.00000000000E+00 -0.00000000000E+00 -0.45593999997E+02  0.45594000000E+02  0.51100000000E-03 0.  1.
    9900012    2    1    2    0    0  0.33316689660E+02  0.24269813412E+02 -0.13586674365E+02  0.47787269900E+02  0.19999994781E+02 0.  0.
         12    1    1    2    0    0 -0.33316689660E+02 -0.24269813412E+02  0.13586674365E+02  0.43400730100E+02  0.00000000000E+00 0. -1.
         11    1    3    3    0    0  0.76429834022E-02 -0.68569856406E+00  0.16198401566E+01  0.17590120323E+01  0.51100000000E-03 0. -1.
        -11    1    3    3    0    0 -0.11558786508E+00 -0.63352244730E+00  0.76948568490E+00  0.10034040692E+01  0.51100000000E-03 0.  1.
        -12    1    3    3    0    0  0.33424634542E+02  0.25589034423E+02 -0.15976000207E+02  0.45024853798E+02  0.00000000000E+00 0.  1.
</event>
<event>
 7    1  0.5417298E-010  0.4778727E+02  0.7816164E-02  0.1312668E+00
        -11   -1    0    0    0    0  0.00000000000E+00  0.00000000000E+00  0.45593999997E+02  0.45594000000E+02  0.51100000000E-03 0.  1.
         11   -1    0    0    0    0 -0.00000000000E+00 -0.00000000000E+00 -0.45593999997E+02  0.45594000000E+02  0.51100000000E-03 0. -1.
    9900012    2    1    2    0    0  0.14171192395E+02  0.27724032226E+02  0.30235386818E+02  0.47787271057E+02  0.20000000056E+02 0.  0.
         12    1    1    2    0    0 -0.14171192395E+02 -0.27724032226E+02 -0.30235386818E+02  0.43400728943E+02  0.00000000000E+00 0. -1.
         11    1    3    3    0    0  0.70077827693E+01  0.66409906474E+01  0.35001717173E+01  0.10269516952E+02  0.51100000000E-03 0. -1.
        -11    1    3    3    0    0  0.24624516072E+01 -0.16758822552E+01  0.41781824752E+01  0.51312238606E+01  0.51100000000E-03 0.  1.
        -12    1    3    3    0    0  0.47009580187E+01  0.22758923834E+02  0.22557032626E+02  0.32386530244E+02  0.00000000000E+00 0.  1.
</event>
<event>
 7    1  0.5417298E-010  0.4778727E+02  0.7816164E-02  0.1312668E+00
        -11   -1    0    0    0    0  0.00000000000E+00  0.00000000000E+00  0.45593999997E+02  0.45594000000E+02  0.51100000000E-03 0. -1.
         11   -1    0    0    0    0 -0.00000000000E+00 -0.00000000000E+00 -0.45593999997E+02  0.45594000000E+02  0.51100000000E-03 0.  1.
    9900012    2    1    2    0    0  0.20794058759E+02  0.83681475729E+01 -0.37164564603E+02  0.47787266877E+02  0.19999980998E+02 0.  0.
         12    1    1    2    0    0 -0.20794058759E+02 -0.83681475729E+01  0.37164564603E+02  0.43400733123E+02  0.00000000000E+00 0. -1.
         11    1    3    3    0    0  0.33879576252E+00  0.35152920136E+01 -0.53930597879E+01  0.64464838980E+01  0.51100000000E-03 0. -1.
        -11    1    3    3    0    0  0.12324557642E+02  0.62614899725E+00 -0.29385525541E+02  0.31871553072E+02  0.51100000000E-03 0.  1.
        -12    1    3    3    0    0  0.81307053545E+01  0.42267065620E+01 -0.23859792740E+01  0.94692299064E+01  0.00000000000E+00 0.  1.
</event>
<event>
 7    1  0.5417298E-010  0.4778727E+02  0.7816164E-02  0.1312668E+00
        -11   -1    0    0    0    0  0.00000000000E+00  0.00000000000E+00  0.45593999997E+02  0.45594000000E+02  0.51100000000E-03 0.  1.
         11   -1    0    0    0    0 -0.00000000000E+00 -0.00000000000E+00 -0.45593999997E+02  0.45594000000E+02  0.51100000000E-03 0. -1.
    9900012    2    1    2    0    0 -0.20568818941E+02 -0.23860456558E+02  0.29853408827E+02  0.47787265924E+02  0.19999976652E+02 0.  0.
         12    1    1    2    0    0  0.20568818941E+02  0.23860456558E+02 -0.29853408827E+02  0.43400734076E+02  0.00000000000E+00 0. -1.
         11    1    3    3    0    0 -0.10254058198E+02 -0.80635420851E+01  0.16810512765E+02  0.21278152179E+02  0.51100000000E-03 0. -1.
        -11    1    3    3    0    0  0.45911237773E+00 -0.65364863195E+01  0.10039023909E+02  0.11988262547E+02  0.51100000000E-03 0.  1.
         12    1    3    3    0    0 -0.10773873120E+02 -0.92604281531E+01  0.30038721536E+01  0.14520851198E+02  0.00000000000E+00 0. -1.
</event>
<event>
 7    1  0.5417298E-010  0.4778727E+02  0.7816164E-02  0.1312668E+00
        -11   -1    0    0    0    0  0.00000000000E+00  0.00000000000E+00  0.45593999997E+02  0.45594000000E+02  0.51100000000E-03 0. -1.
         11   -1    0    0    0    0 -0.00000000000E+00 -0.00000000000E+00 -0.45593999997E+02  0.45594000000E+02  0.51100000000E-03 0.  1.
    9900012    2    1    2    0    0  0.72632601880E+01  0.13357536878E+02 -0.40650268774E+02  0.47787273147E+02  0.20000009585E+02 0.  0.
         12    1    1    2    0    0 -0.72632601880E+01 -0.13357536878E+02  0.40650268774E+02  0.43400726853E+02  0.00000000000E+00 0. -1.
         11    1    3    3    0    0  0.35262390760E+01 -0.34260591212E-01 -0.15190681542E+02  0.15594625413E+02  0.51100000000E-03 0.  1.
        -11    1    3    3    0    0 -0.38013665588E+01  0.64303125532E+01 -0.18053947411E+02  0.19538278446E+02  0.51100000000E-03 0. -1.
         12    1    3    3    0    0  0.75383876708E+01  0.69614849163E+01 -0.74056398212E+01  0.12654369288E+02  0.00000000000E+00 0. -1.
</event>
<event>
 7    1  0.5417298E-010  0.4778727E+02  0.7816164E-02  0.1312668E+00
        -11   -1    0    0    0    0  0.00000000000E+00  0.00000000000E+00  0.45593999997E+02  0.45594000000E+02  0.51100000000E-03 0.  1.
         11   -1    0    0    0    0 -0.00000000000E+00 -0.00000000000E+00 -0.45593999997E+02  0.45594000000E+02  0.51100000000E-03 0. -1.
    9900012    2    1    2    0    0 -0.41186625078E+02 -0.13138136463E+02  0.38307331417E+01  0.47787271534E+02  0.20000002231E+02 0.  0.
         12    1    1    2    0    0  0.41186625078E+02  0.13138136463E+02 -0.38307331417E+01  0.43400728466E+02  0.00000000000E+00 0. -1.
         11    1    3    3    0    0 -0.20905775109E+01 -0.25221565638E+01 -0.42978998534E+01  0.54040476934E+01  0.51100000000E-03 0. -1.
        -11    1    3    3    0    0 -0.10318549331E+02  0.13788876726E+01  0.16558039839E+01  0.10541132701E+02  0.51100000000E-03 0.  1.
         12    1    3    3    0    0 -0.28777498235E+02 -0.11994867571E+02  0.64728290111E+01  0.31842091140E+02  0.00000000000E+00 0. -1.
</event>
<event>
 7    1  0.5417298E-010  0.4778727E+02  0.7816164E-02  0.1312668E+00
        -11   -1    0    0    0    0  0.00000000000E+00  0.00000000000E+00  0.45593999997E+02  0.45594000000E+02  0.51100000000E-03 0.  1.
         11   -1    0    0    0    0 -0.00000000000E+00 -0.00000000000E+00 -0.45593999997E+02  0.45594000000E+02  0.51100000000E-03 0. -1.
    9900012    2    1    2    0    0 -0.25438992592E+01 -0.21449528481E+02  0.37643980972E+02  0.47787274213E+02  0.20000014445E+02 0.  0.
         12    1    1    2    0    0  0.25438992592E+01  0.21449528481E+02 -0.37643980972E+02  0.43400725787E+02  0.00000000000E+00 0. -1.
         11    1    3    3    0    0  0.50616627192E+01 -0.40994807052E+01  0.12717031877E+02  0.14288074453E+02  0.51100000000E-03 0. -1.
        -11    1    3    3    0    0 -0.17866085405E+01 -0.14369358565E+02  0.21996138328E+02  0.26334398365E+02  0.51100000000E-03 0.  1.
         12    1    3    3    0    0 -0.58189534379E+01 -0.29806892100E+01  0.29308107666E+01  0.71648013949E+01  0.00000000000E+00 0. -1.
</event>
<event>
 7    1  0.5417298E-010  0.4778727E+02  0.7816164E-02  0.1312668E+00
        -11   -1    0    0    0    0  0.00000000000E+00  0.00000000000E+00  0.45593999997E+02  0.45594000000E+02  0.51100000000E-03 0.  1.
         11   -1    0    0    0    0 -0.00000000000E+00 -0.00000000000E+00 -0.45593999997E+02  0.45594000000E+02  0.51100000000E-03 0. -1.
    9900012    2    1    2    0    0  0.92802508553E+01 -0.69553815114E+01  0.41822515178E+02  0.47787272313E+02  0.20000005785E+02 0.  0.
         12    1    1    2    0    0 -0.92802508553E+01  0.69553815114E+01 -0.41822515178E+02  0.43400727687E+02  0.00000000000E+00 0. -1.
         11    1    3    3    0    0 -0.19589167824E+00 -0.60688270344E+01  0.25092864181E+02  0.25817065445E+02  0.51100000000E-03 0. -1.
        -11    1    3    3    0    0  0.97661474323E+01 -0.28560046993E+01  0.17144637201E+02  0.19936724494E+02  0.51100000000E-03 0.  1.
        -12    1    3    3    0    0 -0.29000489875E+00  0.19694502224E+01 -0.41498620363E+00  0.20334823749E+01  0.00000000000E+00 0.  1.
</event>
<event>
 7    1  0.5417298E-010  0.4778726E+02  0.7816164E-02  0.1312668E+00
        -11   -1    0    0    0    0  0.00000000000E+00  0.00000000000E+00  0.45593999997E+02  0.45594000000E+02  0.51100000000E-03 0.  1.
         11   -1    0    0    0    0 -0.00000000000E+00 -0.00000000000E+00 -0.45593999997E+02  0.45594000000E+02  0.51100000000E-03 0. -1.
    9900012    2    1    2    0    0 -0.32615702779E+01  0.19163449106E+02  0.38803975378E+02  0.47787261211E+02  0.19999955165E+02 0.  0.
         12    1    1    2    0    0  0.32615702779E+01 -0.19163449106E+02 -0.38803975378E+02  0.43400738789E+02  0.00000000000E+00 0. -1.
         11    1    3    3    0    0 -0.73267229985E+00  0.81483487061E+01  0.63008328829E+01  0.10326320284E+02  0.51100000000E-03 0. -1.
        -11    1    3    3    0    0  0.82077452266E+00  0.14062809097E+02  0.24088770242E+02  0.27905288433E+02  0.51100000000E-03 0.  1.
         12    1    3    3    0    0 -0.33496725007E+01 -0.30477086971E+01  0.84143722530E+01  0.95556524935E+01  0.00000000000E+00 0. -1.
</event>
<event>
 7    1  0.5417298E-010  0.4778726E+02  0.7816164E-02  0.1312668E+00
        -11   -1    0    0    0    0  0.00000000000E+00  0.00000000000E+00  0.45593999997E+02  0.45594000000E+02  0.51100000000E-03 0.  1.
         11   -1    0    0    0    0 -0.00000000000E+00 -0.00000000000E+00 -0.45593999997E+02  0.45594000000E+02  0.51100000000E-03 0. -1.
    9900012    2    1    2    0    0  0.26786211738E+02  0.29157599714E+01  0.34023831101E+02  0.47787264081E+02  0.19999968253E+02 0.  0.
         12    1    1    2    0    0 -0.26786211738E+02 -0.29157599714E+01 -0.34023831101E+02  0.43400735919E+02  0.00000000000E+00 0. -1.
         11    1    3    3    0    0  0.29205471695E+01  0.52670322103E+01  0.46119023086E+01  0.75855696713E+01  0.51100000000E-03 0. -1.
        -11    1    3    3    0    0  0.18273509517E+02  0.33943562891E+01  0.15755219871E+02  0.24365339278E+02  0.51100000000E-03 0.  1.
         12    1    3    3    0    0  0.55921550510E+01 -0.57456285280E+01  0.13656708921E+02  0.15836355132E+02  0.00000000000E+00 0. -1.
</event>
<event>
 7    1  0.5417298E-010  0.4778727E+02  0.7816164E-02  0.1312668E+00
        -11   -1    0    0    0    0  0.00000000000E+00  0.00000000000E+00  0.45593999997E+02  0.45594000000E+02  0.51100000000E-03 0. -1.
         11   -1    0    0    0    0 -0.00000000000E+00 -0.00000000000E+00 -0.45593999997E+02  0.45594000000E+02  0.51100000000E-03 0.  1.
    9900012    2    1    2    0    0  0.11461306957E+02  0.19761133562E+02 -0.36902024110E+02  0.47787270280E+02  0.19999996513E+02 0.  0.
         12    1    1    2    0    0 -0.11461306957E+02 -0.19761133562E+02  0.36902024110E+02  0.43400729720E+02  0.00000000000E+00 0. -1.
         11    1    3    3    0    0 -0.25327393144E+00  0.54725494678E+00 -0.33239486619E+01  0.33782052379E+01  0.51100000000E-03 0. -1.
        -11    1    3    3    0    0  0.54665894977E+00 -0.15940948150E+01 -0.12931014449E+02  0.13040364613E+02  0.51100000000E-03 0.  1.
         12    1    3    3    0    0  0.11167921939E+02  0.20807973430E+02 -0.20647060999E+02  0.31368700429E+02  0.00000000000E+00 0. -1.
</event>
<event>
 7    1  0.5417298E-010  0.4778727E+02  0.7816164E-02  0.1312668E+00
        -11   -1    0    0    0    0  0.00000000000E+00  0.00000000000E+00  0.45593999997E+02  0.45594000000E+02  0.51100000000E-03 0. -1.
         11   -1    0    0    0    0 -0.00000000000E+00 -0.00000000000E+00 -0.45593999997E+02  0.45594000000E+02  0.51100000000E-03 0.  1.
    9900012    2    1    2    0    0  0.18634093264E+02 -0.26722167856E+02  0.28676113814E+02  0.47787272009E+02  0.20000004396E+02 0.  0.
         12    1    1    2    0    0 -0.18634093264E+02  0.26722167856E+02 -0.28676113814E+02  0.43400727991E+02  0.00000000000E+00 0. -1.
         11    1    3    3    0    0  0.11439804190E-01  0.80075793408E-01 -0.62467946428E+00  0.62989498809E+00  0.51100000000E-03 0. -1.
        -11    1    3    3    0    0  0.99184590538E+01 -0.16742850934E+02  0.27565150384E+02  0.33742205076E+02  0.51100000000E-03 0.  1.
        -12    1    3    3    0    0  0.87041944062E+01 -0.10059392715E+02  0.17356428945E+01  0.13415171945E+02  0.00000000000E+00 0.  1.
</event>
<event>
 7    1  0.5417298E-010  0.4778727E+02  0.7816164E-02  0.1312668E+00
        -11   -1    0    0    0    0  0.00000000000E+00  0.00000000000E+00  0.45593999997E+02  0.45594000000E+02  0.51100000000E-03 0.  1.
         11   -1    0    0    0    0 -0.00000000000E+00 -0.00000000000E+00 -0.45593999997E+02  0.45594000000E+02  0.51100000000E-03 0. -1.
    9900012    2    1    2    0    0  0.65211781554E+01  0.77902954428E+01  0.42194889984E+02  0.47787271799E+02  0.20000003441E+02 0.  0.
         12    1    1    2    0    0 -0.65211781554E+01 -0.77902954428E+01 -0.42194889984E+02  0.43400728201E+02  0.00000000000E+00 0. -1.
         11    1    3    3    0    0 -0.20977773064E+01 -0.35837265832E+01  0.12267263395E+02  0.12951043097E+02  0.51100000000E-03 0. -1.
        -11    1    3    3    0    0  0.56844171565E+01  0.32601179779E+00  0.57477724336E+01  0.80904740474E+01  0.51100000000E-03 0.  1.
         12    1    3    3    0    0  0.29345383054E+01  0.11048010228E+02  0.24179854155E+02  0.26745754655E+02  0.00000000000E+00 0. -1.
</event>
<event>
 7    1  0.5417298E-010  0.4778727E+02  0.7816164E-02  0.1312668E+00
        -11   -1    0    0    0    0  0.00000000000E+00  0.00000000000E+00  0.45593999997E+02  0.45594000000E+02  0.51100000000E-03 0.  1.
         11   -1    0    0    0    0 -0.00000000000E+00 -0.00000000000E+00 -0.45593999997E+02  0.45594000000E+02  0.51100000000E-03 0. -1.
    9900012    2    1    2    0    0 -0.21701362759E+02 -0.34609219943E+02 -0.14658665242E+02  0.47787265935E+02  0.19999976705E+02 0.  0.
         12    1    1    2    0    0  0.21701362759E+02  0.34609219943E+02  0.14658665242E+02  0.43400734065E+02  0.00000000000E+00 0. -1.
         11    1    3    3    0    0 -0.21087337612E+02 -0.24085613621E+02 -0.82710030266E+01  0.33063606615E+02  0.51100000000E-03 0. -1.
        -11    1    3    3    0    0 -0.14252783287E+01 -0.59620204618E+00  0.13962703542E+01  0.20824135893E+01  0.51100000000E-03 0.  1.
         12    1    3    3    0    0  0.81125318144E+00 -0.99274042763E+01 -0.77839325695E+01  0.12641245731E+02  0.00000000000E+00 0. -1.
</event>
<event>
 7    1  0.5417298E-010  0.4778727E+02  0.7816164E-02  0.1312668E+00
        -11   -1    0    0    0    0  0.00000000000E+00  0.00000000000E+00  0.45593999997E+02  0.45594000000E+02  0.51100000000E-03 0.  1.
         11   -1    0    0    0    0 -0.00000000000E+00 -0.00000000000E+00 -0.45593999997E+02  0.45594000000E+02  0.51100000000E-03 0. -1.
    9900012    2    1    2    0    0  0.47223877534E+01  0.19840081500E+02  0.38310484763E+02  0.47787273937E+02  0.20000013187E+02 0.  0.
         12    1    1    2    0    0 -0.47223877534E+01 -0.19840081500E+02 -0.38310484763E+02  0.43400726063E+02  0.00000000000E+00 0. -1.
         11    1    3    3    0    0  0.20423913605E+01  0.31397278718E+01 -0.77473608488E+00  0.38248489958E+01  0.51100000000E-03 0. -1.
        -11    1    3    3    0    0  0.15647849194E+01 -0.57805920623E+00  0.98057126696E+01  0.99465926583E+01  0.51100000000E-03 0.  1.
         12    1    3    3    0    0  0.11152114735E+01  0.17278412835E+02  0.29279508178E+02  0.34015832283E+02  0.00000000000E+00 0. -1.
</event>
<event>
 7    1  0.5417298E-010  0.4778727E+02  0.7816164E-02  0.1312668E+00
        -11   -1    0    0    0    0  0.00000000000E+00  0.00000000000E+00  0.45593999997E+02  0.45594000000E+02  0.51100000000E-03 0. -1.
         11   -1    0    0    0    0 -0.00000000000E+00 -0.00000000000E+00 -0.45593999997E+02  0.45594000000E+02  0.51100000000E-03 0.  1.
    9900012    2    1    2    0    0 -0.10892324092E+02  0.31099997982E+02 -0.28244835655E+02  0.47787270285E+02  0.19999996537E+02 0.  0.
         12    1    1    2    0    0  0.10892324092E+02 -0.31099997982E+02  0.28244835655E+02  0.43400729715E+02  0.00000000000E+00 0. -1.
         11    1    3    3    0    0  0.26884925348E+01  0.49262523987E+01 -0.43544998135E+01  0.71033529894E+01  0.51100000000E-03 0. -1.
        -11    1    3    3    0    0  0.71340857270E+00  0.11576101909E+02 -0.42740613432E+01  0.12360529432E+02  0.51100000000E-03 0.  1.
         12    1    3    3    0    0 -0.14294225199E+02  0.14597643674E+02 -0.19616274499E+02  0.28323387864E+02  0.00000000000E+00 0. -1.
</event>
<event>
 7    1  0.5417298E-010  0.4778727E+02  0.7816164E-02  0.1312668E+00
        -11   -1    0    0    0    0  0.00000000000E+00  0.00000000000E+00  0.45593999997E+02  0.45594000000E+02  0.51100000000E-03 0. -1.
         11   -1    0    0    0    0 -0.00000000000E+00 -0.00000000000E+00 -0.45593999997E+02  0.45594000000E+02  0.51100000000E-03 0.  1.
    9900012    2    1    2    0    0 -0.26877391121E+02  0.33313948935E+02 -0.71700627551E+01  0.47787272506E+02  0.20000006662E+02 0.  0.
         12    1    1    2    0    0  0.26877391121E+02 -0.33313948935E+02  0.71700627551E+01  0.43400727494E+02  0.00000000000E+00 0. -1.
         11    1    3    3    0    0 -0.35670417858E+00  0.50382839393E+01  0.18902565490E+01  0.53930152054E+01  0.51100000000E-03 0. -1.
        -11    1    3    3    0    0 -0.41548284507E+01  0.14644271688E+02 -0.33518648406E+01  0.15586926923E+02  0.51100000000E-03 0.  1.
         12    1    3    3    0    0 -0.22365858492E+02  0.13631393308E+02 -0.57084544634E+01  0.26807330377E+02  0.00000000000E+00 0. -1.
</event>
<event>
 7    1  0.5417298E-010  0.4778727E+02  0.7816164E-02  0.1312668E+00
        -11   -1    0    0    0    0  0.00000000000E+00  0.00000000000E+00  0.45593999997E+02  0.45594000000E+02  0.51100000000E-03 0. -1.
         11   -1    0    0    0    0 -0.00000000000E+00 -0.00000000000E+00 -0.45593999997E+02  0.45594000000E+02  0.51100000000E-03 0.  1.
    9900012    2    1    2    0    0 -0.40024699404E+02 -0.82437383865E+01  0.14618052973E+02  0.47787271231E+02  0.20000000849E+02 0.  0.
         12    1    1    2    0    0  0.40024699404E+02  0.82437383865E+01 -0.14618052973E+02  0.43400728769E+02  0.00000000000E+00 0. -1.
         11    1    3    3    0    0 -0.19333523358E+02  0.14591961379E+01  0.90704985281E+01  0.21405333976E+02  0.51100000000E-03 0. -1.
        -11    1    3    3    0    0 -0.16362450518E+02 -0.69552303058E+01  0.92653288710E+01  0.20048724022E+02  0.51100000000E-03 0.  1.
         12    1    3    3    0    0 -0.43287255290E+01 -0.27477042186E+01 -0.37177744262E+01  0.63332132336E+01  0.00000000000E+00 0. -1.
</event>
<event>
 7    1  0.5417298E-010  0.4778727E+02  0.7816164E-02  0.1312668E+00
        -11   -1    0    0    0    0  0.00000000000E+00  0.00000000000E+00  0.45593999997E+02  0.45594000000E+02  0.51100000000E-03 0.  1.
         11   -1    0    0    0    0 -0.00000000000E+00 -0.00000000000E+00 -0.45593999997E+02  0.45594000000E+02  0.51100000000E-03 0. -1.
    9900012    2    1    2    0    0  0.15719064186E+02  0.23785410282E+02  0.32722907207E+02  0.47787269854E+02  0.19999994571E+02 0.  0.
         12    1    1    2    0    0 -0.15719064186E+02 -0.23785410282E+02 -0.32722907207E+02  0.43400730146E+02  0.00000000000E+00 0. -1.
         11    1    3    3    0    0 -0.17720944806E+01  0.55604142761E+01  0.58121594492E+01  0.82364873274E+01  0.51100000000E-03 0. -1.
        -11    1    3    3    0    0  0.11996684718E+02  0.19011957902E+02  0.25138515558E+02  0.33724174597E+02  0.51100000000E-03 0.  1.
        -12    1    3    3    0    0  0.54944739481E+01 -0.78696189634E+00  0.17722321993E+01  0.58266079293E+01  0.00000000000E+00 0.  1.
</event>
<event>
 7    1  0.5417298E-010  0.4778727E+02  0.7816164E-02  0.1312668E+00
        -11   -1    0    0    0    0  0.00000000000E+00  0.00000000000E+00  0.45593999997E+02  0.45594000000E+02  0.51100000000E-03 0.  1.
         11   -1    0    0    0    0 -0.00000000000E+00 -0.00000000000E+00 -0.45593999997E+02  0.45594000000E+02  0.51100000000E-03 0. -1.
    9900012    2    1    2    0    0  0.10007612201E+02 -0.37632775408E+02  0.19163648402E+02  0.47787268359E+02  0.19999987757E+02 0.  0.
         12    1    1    2    0    0 -0.10007612201E+02  0.37632775408E+02 -0.19163648402E+02  0.43400731641E+02  0.00000000000E+00 0. -1.
         11    1    3    3    0    0  0.79615322733E+00 -0.79178053014E+01  0.91103846049E+01  0.12096470918E+02  0.51100000000E-03 0.  1.
        -11    1    3    3    0    0  0.29980586458E+01 -0.71327206587E+00  0.45952898426E+01  0.55329740359E+01  0.51100000000E-03 0. -1.
         12    1    3    3    0    0  0.62134003282E+01 -0.29001698041E+02  0.54579739546E+01  0.30157823406E+02  0.00000000000E+00 0. -1.
</event>
<event>
 7    1  0.5417298E-010  0.4778725E+02  0.7816164E-02  0.1312668E+00
        -11   -1    0    0    0    0  0.00000000000E+00  0.00000000000E+00  0.45593999997E+02  0.45594000000E+02  0.51100000000E-03 0.  1.
         11   -1    0    0    0    0 -0.00000000000E+00 -0.00000000000E+00 -0.45593999997E+02  0.45594000000E+02  0.51100000000E-03 0. -1.
    9900012    2    1    2    0    0 -0.22207742225E+02  0.13724400907E+01  0.37263350379E+02  0.47787254752E+02  0.19999925718E+02 0.  0.
         12    1    1    2    0    0  0.22207742225E+02 -0.13724400907E+01 -0.37263350379E+02  0.43400745248E+02  0.00000000000E+00 0. -1.
         11    1    3    3    0    0 -0.10146277890E+02  0.11692934160E+01  0.20401691091E+02  0.22815415879E+02  0.51100000000E-03 0. -1.
        -11    1    3    3    0    0 -0.10324189994E+02  0.55004189198E+01  0.15148847261E+02  0.19139777452E+02  0.51100000000E-03 0.  1.
         12    1    3    3    0    0 -0.17372743417E+01 -0.52972722450E+01  0.17128120270E+01  0.58320614208E+01  0.00000000000E+00 0. -1.
</event>
<event>
 7    1  0.5417298E-010  0.4778732E+02  0.7816164E-02  0.1312668E+00
        -11   -1    0    0    0    0  0.00000000000E+00  0.00000000000E+00  0.45593999997E+02  0.45594000000E+02  0.51100000000E-03 0. -1.
         11   -1    0    0    0    0 -0.00000000000E+00 -0.00000000000E+00 -0.45593999997E+02  0.45594000000E+02  0.51100000000E-03 0.  1.
    9900012    2    1    2    0    0 -0.21560027044E+02 -0.29368482770E+01 -0.37552089203E+02  0.47787317431E+02  0.20000211495E+02 0.  0.
         12    1    1    2    0    0  0.21560027044E+02  0.29368482770E+01  0.37552089203E+02  0.43400682569E+02  0.00000000000E+00 0. -1.
         11    1    3    3    0    0 -0.88474991987E+01 -0.56415698324E+01 -0.22575455142E+02  0.24894913684E+02  0.51100000000E-03 0. -1.
        -11    1    3    3    0    0 -0.20389097768E+01 -0.21195673066E+00 -0.10914566635E+02  0.11105397059E+02  0.51100000000E-03 0.  1.
        -12    1    3    3    0    0 -0.10673618068E+02  0.29166782860E+01 -0.40620674260E+01  0.11787006688E+02  0.00000000000E+00 0.  1.
</event>
<event>
 7    1  0.5417298E-010  0.4778727E+02  0.7816164E-02  0.1312668E+00
        -11   -1    0    0    0    0  0.00000000000E+00  0.00000000000E+00  0.45593999997E+02  0.45594000000E+02  0.51100000000E-03 0.  1.
         11   -1    0    0    0    0 -0.00000000000E+00 -0.00000000000E+00 -0.45593999997E+02  0.45594000000E+02  0.51100000000E-03 0. -1.
    9900012    2    1    2    0    0  0.13712588109E-01  0.43319646472E+02 -0.26516761335E+01  0.47787270227E+02  0.19999996272E+02 0.  0.
         12    1    1    2    0    0 -0.13712588109E-01 -0.43319646472E+02  0.26516761335E+01  0.43400729773E+02  0.00000000000E+00 0. -1.
         11    1    3    3    0    0 -0.34758605459E+01  0.24282750366E+02 -0.26857400381E+01  0.24676846875E+02  0.51100000000E-03 0. -1.
        -11    1    3    3    0    0 -0.35744933336E+01  0.37848986307E+01 -0.30320453962E+01  0.60245962339E+01  0.51100000000E-03 0.  1.
         12    1    3    3    0    0  0.70640664676E+01  0.15251997476E+02  0.30661093007E+01  0.17085827118E+02  0.00000000000E+00 0. -1.
</event>
<event>
 7    1  0.5417298E-010  0.4778725E+02  0.7816164E-02  0.1312668E+00
        -11   -1    0    0    0    0  0.00000000000E+00  0.00000000000E+00  0.45593999997E+02  0.45594000000E+02  0.51100000000E-03 0.  1.
         11   -1    0    0    0    0 -0.00000000000E+00 -0.00000000000E+00 -0.45593999997E+02  0.45594000000E+02  0.51100000000E-03 0. -1.
    9900012    2    1    2    0    0  0.40211398261E+02  0.13523936693E+02  0.91527045850E+01  0.47787246378E+02  0.19999887535E+02 0.  0.
         12    1    1    2    0    0 -0.40211398261E+02 -0.13523936693E+02 -0.91527045850E+01  0.43400753622E+02  0.00000000000E+00 0. -1.
         11    1    3    3    0    0  0.26933508813E+02 -0.22653532427E-01  0.30092058719E+01  0.27101102014E+02  0.51100000000E-03 0. -1.
        -11    1    3    3    0    0  0.87413699262E+01  0.51589910449E+01  0.40164352053E+01  0.10915974020E+02  0.51100000000E-03 0.  1.
         12    1    3    3    0    0  0.45365195217E+01  0.83875991801E+01  0.21270635078E+01  0.97701703437E+01  0.00000000000E+00 0. -1.
</event>
<event>
 7    1  0.5417298E-010  0.4778727E+02  0.7816164E-02  0.1312668E+00
        -11   -1    0    0    0    0  0.00000000000E+00  0.00000000000E+00  0.45593999997E+02  0.45594000000E+02  0.51100000000E-03 0. -1.
         11   -1    0    0    0    0 -0.00000000000E+00 -0.00000000000E+00 -0.45593999997E+02  0.45594000000E+02  0.51100000000E-03 0.  1.
    9900012    2    1    2    0    0  0.11363754384E+02 -0.35403321895E+02 -0.22385110149E+02  0.47787271074E+02  0.20000000136E+02 0.  0.
         12    1    1    2    0    0 -0.11363754384E+02  0.35403321895E+02  0.22385110149E+02  0.43400728926E+02  0.00000000000E+00 0. -1.
         11    1    3    3    0    0  0.45037401445E+01 -0.26106206068E+02 -0.11849807088E+02  0.29021295609E+02  0.51100000000E-03 0. -1.
        -11    1    3    3    0    0  0.77714062583E+01 -0.88364008307E+01 -0.44268372544E+01  0.12572733323E+02  0.51100000000E-03 0.  1.
         12    1    3    3    0    0 -0.91139201887E+00 -0.46071499628E+00 -0.61084658067E+01  0.61932421421E+01  0.00000000000E+00 0. -1.
</event>
<event>
 7    1  0.5417298E-010  0.4778728E+02  0.7816164E-02  0.1312668E+00
        -11   -1    0    0    0    0  0.00000000000E+00  0.00000000000E+00  0.45593999997E+02  0.45594000000E+02  0.51100000000E-03 0. -1.
         11   -1    0    0    0    0 -0.00000000000E+00 -0.00000000000E+00 -0.45593999997E+02  0.45594000000E+02  0.51100000000E-03 0.  1.
    9900012    2    1    2    0    0 -0.34544928947E+02 -0.14128956088E+02 -0.22150470934E+02  0.47787275597E+02  0.20000020758E+02 0.  0.
         12    1    1    2    0    0  0.34544928947E+02  0.14128956088E+02  0.22150470934E+02  0.43400724403E+02  0.00000000000E+00 0. -1.
         11    1    3    3    0    0  0.40423201400E+00 -0.15229352658E+01 -0.93845236787E+00  0.18339652267E+01  0.51100000000E-03 0. -1.
        -11    1    3    3    0    0 -0.33866726208E+02 -0.10978885220E+02 -0.23715383406E+02  0.42777452882E+02  0.51100000000E-03 0.  1.
        -12    1    3    3    0    0 -0.10824347534E+01 -0.16271356022E+01  0.25033648406E+01  0.31758574887E+01  0.00000000000E+00 0.  1.
</event>
<event>
 7    1  0.5417298E-010  0.4778727E+02  0.7816164E-02  0.1312668E+00
        -11   -1    0    0    0    0  0.00000000000E+00  0.00000000000E+00  0.45593999997E+02  0.45594000000E+02  0.51100000000E-03 0.  1.
         11   -1    0    0    0    0 -0.00000000000E+00 -0.00000000000E+00 -0.45593999997E+02  0.45594000000E+02  0.51100000000E-03 0. -1.
    9900012    2    1    2    0    0  0.41629588584E+02 -0.42462919527E+01  0.11513886836E+02  0.47787271538E+02  0.20000002249E+02 0.  0.
         12    1    1    2    0    0 -0.41629588584E+02  0.42462919527E+01 -0.11513886836E+02  0.43400728462E+02  0.00000000000E+00 0. -1.
         11    1    3    3    0    0 -0.12709619316E+00  0.36402759100E+00  0.23717963604E+00  0.45268528825E+00  0.51100000000E-03 0. -1.
        -11    1    3    3    0    0  0.41042273518E+02 -0.51993365080E+00  0.75071326903E+01  0.41726437519E+02  0.51100000000E-03 0.  1.
        -12    1    3    3    0    0  0.71441125873E+00 -0.40903858929E+01  0.37695745095E+01  0.56081487304E+01  0.00000000000E+00 0.  1.
</event>
<event>
 7    1  0.5417298E-010  0.4778727E+02  0.7816164E-02  0.1312668E+00
        -11   -1    0    0    0    0  0.00000000000E+00  0.00000000000E+00  0.45593999997E+02  0.45594000000E+02  0.51100000000E-03 0.  1.
         11   -1    0    0    0    0 -0.00000000000E+00 -0.00000000000E+00 -0.45593999997E+02  0.45594000000E+02  0.51100000000E-03 0. -1.
    9900012    2    1    2    0    0  0.19839247595E+02  0.28895086948E+02  0.25594951009E+02  0.47787270605E+02  0.19999997997E+02 0.  0.
         12    1    1    2    0    0 -0.19839247595E+02 -0.28895086948E+02 -0.25594951009E+02  0.43400729395E+02  0.00000000000E+00 0. -1.
         11    1    3    3    0    0  0.94486125483E+01  0.72561110958E+01  0.62542653057E+01  0.13455231774E+02  0.51100000000E-03 0. -1.
        -11    1    3    3    0    0  0.13093429527E+02  0.20602508957E+02  0.19760987474E+02  0.31406972129E+02  0.51100000000E-03 0.  1.
         12    1    3    3    0    0 -0.27027944808E+01  0.10364668948E+01 -0.42030177092E+00  0.29250667015E+01  0.00000000000E+00 0. -1.
</event>
<event>
 7    1  0.5417298E-010  0.4778726E+02  0.7816164E-02  0.1312668E+00
        -11   -1    0    0    0    0  0.00000000000E+00  0.00000000000E+00  0.45593999997E+02  0.45594000000E+02  0.51100000000E-03 0.  1.
         11   -1    0    0    0    0 -0.00000000000E+00 -0.00000000000E+00 -0.45593999997E+02  0.45594000000E+02  0.51100000000E-03 0. -1.
    9900012    2    1    2    0    0  0.12155440226E+02 -0.13015472615E+02  0.39578612931E+02  0.47787264338E+02  0.19999969421E+02 0.  0.
         12    1    1    2    0    0 -0.12155440226E+02  0.13015472615E+02 -0.39578612931E+02  0.43400735662E+02  0.00000000000E+00 0. -1.
         11    1    3    3    0    0 -0.11920573509E+01  0.18368697387E+01  0.17867478328E+01  0.28262270333E+01  0.51100000000E-03 0. -1.
        -11    1    3    3    0    0  0.54912429718E+00  0.20447354218E+01  0.87734280467E+01  0.90252712087E+01  0.51100000000E-03 0.  1.
        -12    1    3    3    0    0  0.12798373280E+02 -0.16897077776E+02  0.29018437052E+02  0.35935766096E+02  0.00000000000E+00 0.  1.
</event>
<event>
 7    1  0.5417298E-010  0.4778727E+02  0.7816164E-02  0.1312668E+00
        -11   -1    0    0    0    0  0.00000000000E+00  0.00000000000E+00  0.45593999997E+02  0.45594000000E+02  0.51100000000E-03 0.  1.
         11   -1    0    0    0    0 -0.00000000000E+00 -0.00000000000E+00 -0.45593999997E+02  0.45594000000E+02  0.51100000000E-03 0. -1.
    9900012    2    1    2    0    0  0.13215358115E+02 -0.40343195849E+02  0.90224354140E+01  0.47787268644E+02  0.19999989055E+02 0.  0.
         12    1    1    2    0    0 -0.13215358115E+02  0.40343195849E+02 -0.90224354140E+01  0.43400731356E+02  0.00000000000E+00 0. -1.
         11    1    3    3    0    0  0.16103020947E+01 -0.17190173789E+01 -0.33066553978E+01  0.40598108042E+01  0.51100000000E-03 0. -1.
        -11    1    3    3    0    0  0.84187453273E+01 -0.10537084791E+02  0.20130885976E+01  0.13636640156E+02  0.51100000000E-03 0.  1.
        -12    1    3    3    0    0  0.31863106933E+01 -0.28087093680E+02  0.10316002214E+02  0.30090817684E+02  0.00000000000E+00 0.  1.
</event>
<event>
 7    1  0.5417298E-010  0.4778727E+02  0.7816164E-02  0.1312668E+00
        -11   -1    0    0    0    0  0.00000000000E+00  0.00000000000E+00  0.45593999997E+02  0.45594000000E+02  0.51100000000E-03 0.  1.
         11   -1    0    0    0    0 -0.00000000000E+00 -0.00000000000E+00 -0.45593999997E+02  0.45594000000E+02  0.51100000000E-03 0. -1.
    9900012    2    1    2    0    0  0.76092341293E+01  0.21830192342E+02  0.36730992614E+02  0.47787267746E+02  0.19999984961E+02 0.  0.
         12    1    1    2    0    0 -0.76092341293E+01 -0.21830192342E+02 -0.36730992614E+02  0.43400732254E+02  0.00000000000E+00 0. -1.
         11    1    3    3    0    0  0.40440417791E+01  0.14946151371E+02  0.11134353457E+02  0.19071327744E+02  0.51100000000E-03 0. -1.
        -11    1    3    3    0    0 -0.10956138265E+01  0.36811241333E+01  0.17728526749E+01  0.42301360982E+01  0.51100000000E-03 0.  1.
        -12    1    3    3    0    0  0.46608061766E+01  0.32029168378E+01  0.23823786482E+02  0.24485803904E+02  0.00000000000E+00 0.  1.
</event>
<event>
 7    1  0.5417298E-010  0.4778726E+02  0.7816164E-02  0.1312668E+00
        -11   -1    0    0    0    0  0.00000000000E+00  0.00000000000E+00  0.45593999997E+02  0.45594000000E+02  0.51100000000E-03 0.  1.
         11   -1    0    0    0    0 -0.00000000000E+00 -0.00000000000E+00 -0.45593999997E+02  0.45594000000E+02  0.51100000000E-03 0. -1.
    9900012    2    1    2    0    0 -0.25553879026E+02  0.55117672595E+01  0.34644539670E+02  0.47787257603E+02  0.19999938716E+02 0.  0.
         12    1    1    2    0    0  0.25553879026E+02 -0.55117672595E+01 -0.34644539670E+02  0.43400742397E+02  0.00000000000E+00 0. -1.
         11    1    3    3    0    0 -0.21216175024E+00 -0.12772582015E+01  0.26471304609E+01  0.29468120163E+01  0.51100000000E-03 0. -1.
        -11    1    3    3    0    0 -0.27903704420E+02  0.70457255985E+01  0.30080219405E+02  0.41630260260E+02  0.51100000000E-03 0.  1.
        -12    1    3    3    0    0  0.25619871443E+01 -0.25670013744E+00  0.19171898042E+01  0.32101853270E+01  0.00000000000E+00 0.  1.
</event>
<event>
 7    1  0.5417298E-010  0.4778727E+02  0.7816164E-02  0.1312668E+00
        -11   -1    0    0    0    0  0.00000000000E+00  0.00000000000E+00  0.45593999997E+02  0.45594000000E+02  0.51100000000E-03 0. -1.
         11   -1    0    0    0    0 -0.00000000000E+00 -0.00000000000E+00 -0.45593999997E+02  0.45594000000E+02  0.51100000000E-03 0.  1.
    9900012    2    1    2    0    0 -0.21118020459E+02 -0.35123086590E+02 -0.14283609138E+02  0.47787268558E+02  0.19999988663E+02 0.  0.
         12    1    1    2    0    0  0.21118020459E+02  0.35123086590E+02  0.14283609138E+02  0.43400731442E+02  0.00000000000E+00 0. -1.
         11    1    3    3    0    0  0.18121143882E+01 -0.86772140010E+01 -0.23210243287E+01  0.91632393601E+01  0.51100000000E-03 0. -1.
        -11    1    3    3    0    0 -0.17595147912E+01 -0.93467328346E+01 -0.31762501213E+01  0.10027256458E+02  0.51100000000E-03 0.  1.
         12    1    3    3    0    0 -0.21170620056E+02 -0.17099139754E+02 -0.87863346879E+01  0.28596772740E+02  0.00000000000E+00 0. -1.
</event>
<event>
 7    1  0.5417298E-010  0.4778727E+02  0.7816164E-02  0.1312668E+00
        -11   -1    0    0    0    0  0.00000000000E+00  0.00000000000E+00  0.45593999997E+02  0.45594000000E+02  0.51100000000E-03 0.  1.
         11   -1    0    0    0    0 -0.00000000000E+00 -0.00000000000E+00 -0.45593999997E+02  0.45594000000E+02  0.51100000000E-03 0. -1.
    9900012    2    1    2    0    0 -0.42430392051E+02  0.75506213710E+01 -0.51257597188E+01  0.47787268838E+02  0.19999989942E+02 0.  0.
         12    1    1    2    0    0  0.42430392051E+02 -0.75506213710E+01  0.51257597188E+01  0.43400731162E+02  0.00000000000E+00 0. -1.
         11    1    3    3    0    0 -0.65375103674E+01 -0.10153465459E+01 -0.28719669245E+01  0.72123619355E+01  0.51100000000E-03 0. -1.
        -11    1    3    3    0    0 -0.31450959841E+02  0.52010337951E+01  0.40805845362E+01  0.32138213981E+02  0.51100000000E-03 0.  1.
        -12    1    3    3    0    0 -0.44419218426E+01  0.33649341218E+01 -0.63343773305E+01  0.84366929222E+01  0.00000000000E+00 0.  1.
</event>
<event>
 7    1  0.5417298E-010  0.4778727E+02  0.7816164E-02  0.1312668E+00
        -11   -1    0    0    0    0  0.00000000000E+00  0.00000000000E+00  0.45593999997E+02  0.45594000000E+02  0.51100000000E-03 0.  1.
         11   -1    0    0    0    0 -0.00000000000E+00 -0.00000000000E+00 -0.45593999997E+02  0.45594000000E+02  0.51100000000E-03 0. -1.
    9900012    2    1    2    0    0 -0.13747219527E+02 -0.74051964545E+01  0.40494447603E+02  0.47787271136E+02  0.20000000419E+02 0.  0.
         12    1    1    2    0    0  0.13747219527E+02  0.74051964545E+01 -0.40494447603E+02  0.43400728864E+02  0.00000000000E+00 0. -1.
         11    1    3    3    0    0 -0.63127016770E+01 -0.65772024378E+01  0.26677022972E+02  0.28191724837E+02  0.51100000000E-03 0.  1.
        -11    1    3    3    0    0 -0.19906907403E+01 -0.28804155067E+01  0.13301749889E+02  0.13754860722E+02  0.51100000000E-03 0. -1.
        -12    1    3    3    0    0 -0.54438271096E+01  0.20524214901E+01  0.51567474151E+00  0.58406855772E+01  0.00000000000E+00 0.  1.
</event>
<event>
 7    1  0.5417298E-010  0.4778733E+02  0.7816164E-02  0.1312667E+00
        -11   -1    0    0    0    0  0.00000000000E+00  0.00000000000E+00  0.45593999997E+02  0.45594000000E+02  0.51100000000E-03 0.  1.
         11   -1    0    0    0    0 -0.00000000000E+00 -0.00000000000E+00 -0.45593999997E+02  0.45594000000E+02  0.51100000000E-03 0. -1.
    9900012    2    1    2    0    0  0.70462912859E+01 -0.34574940227E+02  0.25269376023E+02  0.47787330914E+02  0.20000272965E+02 0.  0.
         12    1    1    2    0    0 -0.70462912859E+01  0.34574940227E+02 -0.25269376023E+02  0.43400669086E+02  0.00000000000E+00 0. -1.
         11    1    3    3    0    0  0.24815199191E+00 -0.93747427275E+01  0.10441495415E+02  0.14034678741E+02  0.51100000000E-03 0. -1.
        -11    1    3    3    0    0 -0.33264420622E+01 -0.59929112246E+00  0.34155246515E+01  0.48052237772E+01  0.51100000000E-03 0.  1.
        -12    1    3    3    0    0  0.10124581356E+02 -0.24600906377E+02  0.11412355956E+02  0.28947428395E+02  0.00000000000E+00 0.  1.
</event>
<event>
 7    1  0.5417298E-010  0.4778727E+02  0.7816164E-02  0.1312668E+00
        -11   -1    0    0    0    0  0.00000000000E+00  0.00000000000E+00  0.45593999997E+02  0.45594000000E+02  0.51100000000E-03 0.  1.
         11   -1    0    0    0    0 -0.00000000000E+00 -0.00000000000E+00 -0.45593999997E+02  0.45594000000E+02  0.51100000000E-03 0. -1.
    9900012    2    1    2    0    0 -0.41996603548E+02  0.17838140019E+01  0.10804006289E+02  0.47787271275E+02  0.20000001053E+02 0.  0.
         12    1    1    2    0    0  0.41996603548E+02 -0.17838140019E+01 -0.10804006289E+02  0.43400728725E+02  0.00000000000E+00 0. -1.
         11    1    3    3    0    0 -0.96530349854E+01 -0.31680777443E+01  0.26908751798E+01  0.10509929139E+02  0.51100000000E-03 0. -1.
        -11    1    3    3    0    0 -0.21905138565E+02 -0.33936434378E+01  0.89076432532E+01  0.23889286719E+02  0.51100000000E-03 0.  1.
         12    1    3    3    0    0 -0.10438429997E+02  0.83455351839E+01 -0.79451214381E+00  0.13388055417E+02  0.00000000000E+00 0. -1.
</event>
<event>
 7    1  0.5417298E-010  0.4778727E+02  0.7816164E-02  0.1312668E+00
        -11   -1    0    0    0    0  0.00000000000E+00  0.00000000000E+00  0.45593999997E+02  0.45594000000E+02  0.51100000000E-03 0.  1.
         11   -1    0    0    0    0 -0.00000000000E+00 -0.00000000000E+00 -0.45593999997E+02  0.45594000000E+02  0.51100000000E-03 0. -1.
    9900012    2    1    2    0    0  0.36286448095E+02 -0.16650499670E+02  0.17019920734E+02  0.47787272398E+02  0.20000006171E+02 0.  0.
         12    1    1    2    0    0 -0.36286448095E+02  0.16650499670E+02 -0.17019920734E+02  0.43400727602E+02  0.00000000000E+00 0. -1.
         11    1    3    3    0    0 -0.15875559945E+00 -0.21371525363E+01 -0.44842133234E+00  0.21894534149E+01  0.51100000000E-03 0. -1.
        -11    1    3    3    0    0  0.28062530493E+02 -0.15551478829E+02  0.83167579337E+01  0.33143967388E+02  0.51100000000E-03 0.  1.
        -12    1    3    3    0    0  0.83826732018E+01  0.10381316949E+01  0.91515841323E+01  0.12453851595E+02  0.00000000000E+00 0.  1.
</event>
<event>
 7    1  0.5417298E-010  0.4778727E+02  0.7816164E-02  0.1312668E+00
        -11   -1    0    0    0    0  0.00000000000E+00  0.00000000000E+00  0.45593999997E+02  0.45594000000E+02  0.51100000000E-03 0.  1.
         11   -1    0    0    0    0 -0.00000000000E+00 -0.00000000000E+00 -0.45593999997E+02  0.45594000000E+02  0.51100000000E-03 0. -1.
    9900012    2    1    2    0    0 -0.67258864711E+01  0.12720398002E+00  0.42876214613E+02  0.47787268334E+02  0.19999987640E+02 0.  0.
         12    1    1    2    0    0  0.67258864711E+01 -0.12720398002E+00 -0.42876214613E+02  0.43400731666E+02  0.00000000000E+00 0. -1.
         11    1    3    3    0    0 -0.45637332172E+01  0.57167089772E+01  0.50645346995E+01  0.88970744850E+01  0.51100000000E-03 0. -1.
        -11    1    3    3    0    0  0.21922047179E+01 -0.73973018201E+00  0.62970509562E+01  0.67086372143E+01  0.51100000000E-03 0.  1.
         12    1    3    3    0    0 -0.43543579718E+01 -0.48497748152E+01  0.31514628957E+02  0.32181556634E+02  0.00000000000E+00 0. -1.
</event>
<event>
 7    1  0.5417298E-010  0.4778727E+02  0.7816164E-02  0.1312668E+00
        -11   -1    0    0    0    0  0.00000000000E+00  0.00000000000E+00  0.45593999997E+02  0.45594000000E+02  0.51100000000E-03 0.  1.
         11   -1    0    0    0    0 -0.00000000000E+00 -0.00000000000E+00 -0.45593999997E+02  0.45594000000E+02  0.51100000000E-03 0. -1.
    9900012    2    1    2    0    0 -0.25216019612E+02 -0.74208237683E+00  0.35316071496E+02  0.47787271467E+02  0.20000001924E+02 0.  0.
         12    1    1    2    0    0  0.25216019612E+02  0.74208237683E+00 -0.35316071496E+02  0.43400728533E+02  0.00000000000E+00 0. -1.
         11    1    3    3    0    0  0.10662571954E+01  0.26360026810E+01  0.54340970429E+01  0.61330926517E+01  0.51100000000E-03 0. -1.
        -11    1    3    3    0    0 -0.75417059266E+01  0.39766641232E+01  0.12043985989E+02  0.14756313381E+02  0.51100000000E-03 0.  1.
         12    1    3    3    0    0 -0.18740570881E+02 -0.73547491810E+01  0.17837988464E+02  0.26897865434E+02  0.00000000000E+00 0. -1.
</event>
<event>
 7    1  0.5417298E-010  0.4778727E+02  0.7816164E-02  0.1312668E+00
        -11   -1    0    0    0    0  0.00000000000E+00  0.00000000000E+00  0.45593999997E+02  0.45594000000E+02  0.51100000000E-03 0.  1.
         11   -1    0    0    0    0 -0.00000000000E+00 -0.00000000000E+00 -0.45593999997E+02  0.45594000000E+02  0.51100000000E-03 0. -1.
    9900012    2    1    2    0    0  0.42386048922E+02  0.51131524317E+01  0.78039425726E+01  0.47787274307E+02  0.20000014875E+02 0.  0.
         12    1    1    2    0    0 -0.42386048922E+02 -0.51131524317E+01 -0.78039425726E+01  0.43400725693E+02  0.00000000000E+00 0. -1.
         11    1    3    3    0    0  0.32154614507E+01 -0.33491899052E+01  0.25159065122E+01  0.52807244958E+01  0.51100000000E-03 0. -1.
        -11    1    3    3    0    0  0.16734927332E+02  0.28708767868E+01  0.87919838303E+01  0.19120635614E+02  0.51100000000E-03 0.  1.
         12    1    3    3    0    0  0.22435660139E+02  0.55914655500E+01 -0.35039477700E+01  0.23385914197E+02  0.00000000000E+00 0. -1.
</event>
<event>
 7    1  0.5417298E-010  0.4778727E+02  0.7816164E-02  0.1312668E+00
        -11   -1    0    0    0    0  0.00000000000E+00  0.00000000000E+00  0.45593999997E+02  0.45594000000E+02  0.51100000000E-03 0.  1.
         11   -1    0    0    0    0 -0.00000000000E+00 -0.00000000000E+00 -0.45593999997E+02  0.45594000000E+02  0.51100000000E-03 0. -1.
    9900012    2    1    2    0    0  0.19771982487E+02  0.29966865548E+02  0.24386049844E+02  0.47787265568E+02  0.19999975029E+02 0.  0.
         12    1    1    2    0    0 -0.19771982487E+02 -0.29966865548E+02 -0.24386049844E+02  0.43400734432E+02  0.00000000000E+00 0. -1.
         11    1    3    3    0    0  0.29667620201E+00  0.90983299517E+01  0.88762017311E+01  0.12714345524E+02  0.51100000000E-03 0. -1.
        -11    1    3    3    0    0  0.75949703680E+01  0.16323898223E+02  0.53171162629E+01  0.18772984677E+02  0.51100000000E-03 0.  1.
        -12    1    3    3    0    0  0.11880335917E+02  0.45446373739E+01  0.10192731850E+02  0.16299935366E+02  0.00000000000E+00 0.  1.
</event>
<event>
 7    1  0.5417298E-010  0.4778732E+02  0.7816164E-02  0.1312668E+00
        -11   -1    0    0    0    0  0.00000000000E+00  0.00000000000E+00  0.45593999997E+02  0.45594000000E+02  0.51100000000E-03 0. -1.
         11   -1    0    0    0    0 -0.00000000000E+00 -0.00000000000E+00 -0.45593999997E+02  0.45594000000E+02  0.51100000000E-03 0.  1.
    9900012    2    1    2    0    0 -0.39432278101E+02 -0.12505730765E+02  0.13127130491E+02  0.47787315523E+02  0.20000202794E+02 0.  0.
         12    1    1    2    0    0  0.39432278101E+02  0.12505730765E+02 -0.13127130491E+02  0.43400684477E+02  0.00000000000E+00 0. -1.
         11    1    3    3    0    0 -0.60748057305E+01 -0.28647109584E+01 -0.34953415678E+01  0.75714758453E+01  0.51100000000E-03 0. -1.
        -11    1    3    3    0    0 -0.16558531058E+02  0.11320210541E+01  0.63480124161E+01  0.17769740695E+02  0.51100000000E-03 0.  1.
         12    1    3    3    0    0 -0.16798941312E+02 -0.10773040861E+02  0.10274459642E+02  0.22446098982E+02  0.00000000000E+00 0. -1.
</event>
<event>
 7    1  0.5417298E-010  0.4778727E+02  0.7816164E-02  0.1312668E+00
        -11   -1    0    0    0    0  0.00000000000E+00  0.00000000000E+00  0.45593999997E+02  0.45594000000E+02  0.51100000000E-03 0.  1.
         11   -1    0    0    0    0 -0.00000000000E+00 -0.00000000000E+00 -0.45593999997E+02  0.45594000000E+02  0.51100000000E-03 0. -1.
    9900012    2    1    2    0    0 -0.19802082860E+02 -0.32779990624E+02  0.20419915871E+02  0.47787271491E+02  0.20000002038E+02 0.  0.
         12    1    1    2    0    0  0.19802082860E+02  0.32779990624E+02 -0.20419915871E+02  0.43400728509E+02  0.00000000000E+00 0. -1.
         11    1    3    3    0    0 -0.29219642815E+01 -0.15015474346E+02  0.49441632506E+01  0.16076289859E+02  0.51100000000E-03 0. -1.
        -11    1    3    3    0    0  0.54847377706E+00 -0.20050655967E+01  0.60441021481E+01  0.63915790357E+01  0.51100000000E-03 0.  1.
        -12    1    3    3    0    0 -0.17428592355E+02 -0.15759450681E+02  0.94316504721E+01  0.25319402597E+02  0.00000000000E+00 0.  1.
</event>
<event>
 7    1  0.5417298E-010  0.4778726E+02  0.7816164E-02  0.1312668E+00
        -11   -1    0    0    0    0  0.00000000000E+00  0.00000000000E+00  0.45593999997E+02  0.45594000000E+02  0.51100000000E-03 0.  1.
         11   -1    0    0    0    0 -0.00000000000E+00 -0.00000000000E+00 -0.45593999997E+02  0.45594000000E+02  0.51100000000E-03 0. -1.
    9900012    2    1    2    0    0  0.33564898023E+01  0.37904594319E+02 -0.20871024310E+02  0.47787263255E+02  0.19999964484E+02 0.  0.
         12    1    1    2    0    0 -0.33564898023E+01 -0.37904594319E+02  0.20871024310E+02  0.43400736745E+02  0.00000000000E+00 0. -1.
         11    1    3    3    0    0 -0.29480619525E+01  0.65158841261E+01 -0.50891290881E+01  0.87776449209E+01  0.51100000000E-03 0. -1.
        -11    1    3    3    0    0  0.59628481165E+01  0.32992330556E+02 -0.13372686551E+02  0.36095403849E+02  0.51100000000E-03 0.  1.
        -12    1    3    3    0    0  0.34170363826E+00 -0.16036203631E+01 -0.24092086704E+01  0.29142144847E+01  0.00000000000E+00 0.  1.
</event>
<event>
 7    1  0.5417298E-010  0.4778726E+02  0.7816164E-02  0.1312668E+00
        -11   -1    0    0    0    0  0.00000000000E+00  0.00000000000E+00  0.45593999997E+02  0.45594000000E+02  0.51100000000E-03 0.  1.
         11   -1    0    0    0    0 -0.00000000000E+00 -0.00000000000E+00 -0.45593999997E+02  0.45594000000E+02  0.51100000000E-03 0. -1.
    9900012    2    1    2    0    0  0.27034986136E+02  0.11751765913E+02  0.31853247918E+02  0.47787264058E+02  0.19999968145E+02 0.  0.
         12    1    1    2    0    0 -0.27034986136E+02 -0.11751765913E+02 -0.31853247918E+02  0.43400735942E+02  0.00000000000E+00 0. -1.
         11    1    3    3    0    0  0.41476941381E+01  0.63155921435E+01  0.51790523721E+01  0.91603850640E+01  0.51100000000E-03 0. -1.
        -11    1    3    3    0    0 -0.10812690274E+01 -0.66175208418E+00 -0.92370923865E+00  0.15685335665E+01  0.51100000000E-03 0.  1.
        -12    1    3    3    0    0  0.23968561025E+02  0.60979258532E+01  0.27597904784E+02  0.37058345427E+02  0.00000000000E+00 0.  1.
</event>
<event>
 7    1  0.5417298E-010  0.4778727E+02  0.7816164E-02  0.1312668E+00
        -11   -1    0    0    0    0  0.00000000000E+00  0.00000000000E+00  0.45593999997E+02  0.45594000000E+02  0.51100000000E-03 0.  1.
         11   -1    0    0    0    0 -0.00000000000E+00 -0.00000000000E+00 -0.45593999997E+02  0.45594000000E+02  0.51100000000E-03 0. -1.
    9900012    2    1    2    0    0 -0.38067577175E+00  0.35862414512E+01  0.43250636024E+02  0.47787267768E+02  0.19999985063E+02 0.  0.
         12    1    1    2    0    0  0.38067577175E+00 -0.35862414512E+01 -0.43250636024E+02  0.43400732232E+02  0.00000000000E+00 0. -1.
         11    1    3    3    0    0  0.14935712432E+01 -0.16058041763E+01  0.15549900928E+02  0.15703782386E+02  0.51100000000E-03 0. -1.
        -11    1    3    3    0    0  0.24189389447E+01  0.47489926969E+01  0.27224548283E+02  0.27741309031E+02  0.51100000000E-03 0.  1.
         12    1    3    3    0    0 -0.42931859597E+01  0.44305293064E+00  0.47618681274E+00  0.43421763511E+01  0.00000000000E+00 0. -1.
</event>
<event>
 7    1  0.5417298E-010  0.4778727E+02  0.7816164E-02  0.1312668E+00
        -11   -1    0    0    0    0  0.00000000000E+00  0.00000000000E+00  0.45593999997E+02  0.45594000000E+02  0.51100000000E-03 0.  1.
         11   -1    0    0    0    0 -0.00000000000E+00 -0.00000000000E+00 -0.45593999997E+02  0.45594000000E+02  0.51100000000E-03 0. -1.
    9900012    2    1    2    0    0  0.42605537748E+02 -0.65392738190E+01  0.50625381262E+01  0.47787271421E+02  0.20000001718E+02 0.  0.
         12    1    1    2    0    0 -0.42605537748E+02  0.65392738190E+01 -0.50625381262E+01  0.43400728579E+02  0.00000000000E+00 0. -1.
         11    1    3    3    0    0  0.25905429539E+02  0.23176497754E-01  0.88966277155E+01  0.27390542195E+02  0.51100000000E-03 0. -1.
        -11    1    3    3    0    0  0.48684652408E+01  0.12962017395E+01  0.14489760482E+01  0.52422919224E+01  0.51100000000E-03 0.  1.
        -12    1    3    3    0    0  0.11831642968E+02 -0.78586520562E+01 -0.52830656375E+01  0.15154437304E+02  0.00000000000E+00 0.  1.
</event>
<event>
 7    1  0.5417298E-010  0.4778728E+02  0.7816164E-02  0.1312668E+00
        -11   -1    0    0    0    0  0.00000000000E+00  0.00000000000E+00  0.45593999997E+02  0.45594000000E+02  0.51100000000E-03 0.  1.
         11   -1    0    0    0    0 -0.00000000000E+00 -0.00000000000E+00 -0.45593999997E+02  0.45594000000E+02  0.51100000000E-03 0. -1.
    9900012    2    1    2    0    0  0.17601788428E+02  0.10719571937E+01  0.39656659847E+02  0.47787277445E+02  0.20000029182E+02 0.  0.
         12    1    1    2    0    0 -0.17601788428E+02 -0.10719571937E+01 -0.39656659847E+02  0.43400722555E+02  0.00000000000E+00 0. -1.
         11    1    3    3    0    0  0.11105896391E+01 -0.19162545888E+01  0.24498900682E+01  0.33026357054E+01  0.51100000000E-03 0. -1.
        -11    1    3    3    0    0  0.61945072323E+01  0.10010374616E+02  0.15633626770E+02  0.19570125346E+02  0.51100000000E-03 0.  1.
         12    1    3    3    0    0  0.10296691556E+02 -0.70221628332E+01  0.21573143009E+02  0.24914516394E+02  0.00000000000E+00 0. -1.
</event>
<event>
 7    1  0.5417298E-010  0.4778727E+02  0.7816164E-02  0.1312668E+00
        -11   -1    0    0    0    0  0.00000000000E+00  0.00000000000E+00  0.45593999997E+02  0.45594000000E+02  0.51100000000E-03 0. -1.
         11   -1    0    0    0    0 -0.00000000000E+00 -0.00000000000E+00 -0.45593999997E+02  0.45594000000E+02  0.51100000000E-03 0.  1.
    9900012    2    1    2    0    0 -0.41050831880E+02 -0.11013680528E+02  0.87836052138E+01  0.47787266396E+02  0.19999978807E+02 0.  0.
         12    1    1    2    0    0  0.41050831880E+02  0.11013680528E+02 -0.87836052138E+01  0.43400733604E+02  0.00000000000E+00 0. -1.
         11    1    3    3    0    0 -0.10722510172E+02 -0.17823461409E+01  0.47107067962E+01  0.11846507542E+02  0.51100000000E-03 0. -1.
        -11    1    3    3    0    0 -0.17492011365E+02 -0.13569011616E+02  0.19152588981E+01  0.22220638036E+02  0.51100000000E-03 0.  1.
         12    1    3    3    0    0 -0.12836310343E+02  0.43376772298E+01  0.21576395195E+01  0.13720120818E+02  0.00000000000E+00 0. -1.
</event>
<event>
 7    1  0.5417298E-010  0.4778727E+02  0.7816164E-02  0.1312668E+00
        -11   -1    0    0    0    0  0.00000000000E+00  0.00000000000E+00  0.45593999997E+02  0.45594000000E+02  0.51100000000E-03 0. -1.
         11   -1    0    0    0    0 -0.00000000000E+00 -0.00000000000E+00 -0.45593999997E+02  0.45594000000E+02  0.51100000000E-03 0.  1.
    9900012    2    1    2    0    0  0.10314724214E+02 -0.33529017026E+02  0.25554550929E+02  0.47787267385E+02  0.19999983317E+02 0.  0.
         12    1    1    2    0    0 -0.10314724214E+02  0.33529017026E+02 -0.25554550929E+02  0.43400732615E+02  0.00000000000E+00 0. -1.
         11    1    3    3    0    0  0.80333103951E+01 -0.64511613277E+01  0.49147424417E+01  0.11415176385E+02  0.51100000000E-03 0. -1.
        -11    1    3    3    0    0  0.29136635031E+01 -0.80954971483E+00  0.48540535736E+01  0.57189721197E+01  0.51100000000E-03 0.  1.
        -12    1    3    3    0    0 -0.63224968453E+00 -0.26268305983E+02  0.15785754913E+02  0.30653118880E+02  0.00000000000E+00 0.  1.
</event>
<event>
 7    1  0.5417298E-010  0.4778727E+02  0.7816164E-02  0.1312668E+00
        -11   -1    0    0    0    0  0.00000000000E+00  0.00000000000E+00  0.45593999997E+02  0.45594000000E+02  0.51100000000E-03 0. -1.
         11   -1    0    0    0    0 -0.00000000000E+00 -0.00000000000E+00 -0.45593999997E+02  0.45594000000E+02  0.51100000000E-03 0.  1.
    9900012    2    1    2    0    0 -0.32404625397E+02  0.57657693718E+00 -0.28865741104E+02  0.47787271923E+02  0.20000004008E+02 0.  0.
         12    1    1    2    0    0  0.32404625397E+02 -0.57657693718E+00  0.28865741104E+02  0.43400728077E+02  0.00000000000E+00 0. -1.
         11    1    3    3    0    0 -0.84438793237E+01  0.12659478772E+01 -0.15522157503E+00  0.85396613551E+01  0.51100000000E-03 0. -1.
        -11    1    3    3    0    0  0.10288365233E+01 -0.13063899806E+01 -0.10560466007E+01  0.19698715839E+01  0.51100000000E-03 0.  1.
        -12    1    3    3    0    0 -0.24989582597E+02  0.61701904053E+00 -0.27654472928E+02  0.37277738984E+02  0.00000000000E+00 0.  1.
</event>
<event>
 7    1  0.5417298E-010  0.4778727E+02  0.7816164E-02  0.1312668E+00
        -11   -1    0    0    0    0  0.00000000000E+00  0.00000000000E+00  0.45593999997E+02  0.45594000000E+02  0.51100000000E-03 0. -1.
         11   -1    0    0    0    0 -0.00000000000E+00 -0.00000000000E+00 -0.45593999997E+02  0.45594000000E+02  0.51100000000E-03 0.  1.
    9900012    2    1    2    0    0 -0.82646694533E+00 -0.37001671655E+02 -0.22667530392E+02  0.47787266286E+02  0.19999978304E+02 0.  0.
         12    1    1    2    0    0  0.82646694533E+00  0.37001671655E+02  0.22667530392E+02  0.43400733714E+02  0.00000000000E+00 0. -1.
         11    1    3    3    0    0 -0.21979379877E+01  0.64409248928E+00  0.15125193367E+01  0.27447224883E+01  0.51100000000E-03 0. -1.
        -11    1    3    3    0    0 -0.97126047423E+00 -0.10851732145E+02 -0.48795813241E+01  0.11937912364E+02  0.51100000000E-03 0.  1.
        -12    1    3    3    0    0  0.23427315166E+01 -0.26794031999E+02 -0.19300468404E+02  0.33104631433E+02  0.00000000000E+00 0.  1.
</event>
<event>
 7    1  0.1123150E-009  0.4778727E+02  0.7816164E-02  0.1312668E+00
        -11   -1    0    0    0    0  0.00000000000E+00  0.00000000000E+00  0.45593999997E+02  0.45594000000E+02  0.51100000000E-03 0.  1.
         11   -1    0    0    0    0 -0.00000000000E+00 -0.00000000000E+00 -0.45593999997E+02  0.45594000000E+02  0.51100000000E-03 0. -1.
    9900012    2    1    2    0    0  0.34017143364E+02  0.25617588766E+02  0.83783541959E+01  0.47787265952E+02  0.19999976781E+02 0.  0.
         12    1    1    2    0    0 -0.34017143364E+02 -0.25617588766E+02 -0.83783541959E+01  0.43400734048E+02  0.00000000000E+00 0. -1.
         11    1    3    3    0    0 -0.46550843774E+00 -0.11396082894E+01 -0.32447629892E+00  0.12730633482E+01  0.51100000000E-03 0. -1.
        -11    1    3    3    0    0  0.18627155712E+02  0.90347112982E+01 -0.12392430622E+01  0.20739639866E+02  0.51100000000E-03 0.  1.
        -12    1    3    3    0    0  0.15855496091E+02  0.17722485757E+02  0.99420735571E+01  0.25774562738E+02  0.00000000000E+00 0.  1.
</event>
<event>
 7    1  0.5417298E-010  0.4778727E+02  0.7816164E-02  0.1312668E+00
        -11   -1    0    0    0    0  0.00000000000E+00  0.00000000000E+00  0.45593999997E+02  0.45594000000E+02  0.51100000000E-03 0.  1.
         11   -1    0    0    0    0 -0.00000000000E+00 -0.00000000000E+00 -0.45593999997E+02  0.45594000000E+02  0.51100000000E-03 0. -1.
    9900012    2    1    2    0    0  0.22271488406E+02 -0.35751514680E+02  0.10461024143E+02  0.47787273925E+02  0.20000013132E+02 0.  0.
         12    1    1    2    0    0 -0.22271488406E+02  0.35751514680E+02 -0.10461024143E+02  0.43400726075E+02  0.00000000000E+00 0. -1.
         11    1    3    3    0    0  0.79136453711E+01 -0.20590887766E+02  0.35844724282E+01  0.22348576798E+02  0.51100000000E-03 0. -1.
        -11    1    3    3    0    0  0.36092537635E+00 -0.89675254945E+01  0.41666348403E+01  0.98948282842E+01  0.51100000000E-03 0.  1.
        -12    1    3    3    0    0  0.13996917658E+02 -0.61931014204E+01  0.27099168742E+01  0.15543868843E+02  0.00000000000E+00 0.  1.
</event>
<event>
 7    1  0.5417298E-010  0.4778727E+02  0.7816164E-02  0.1312668E+00
        -11   -1    0    0    0    0  0.00000000000E+00  0.00000000000E+00  0.45593999997E+02  0.45594000000E+02  0.51100000000E-03 0. -1.
         11   -1    0    0    0    0 -0.00000000000E+00 -0.00000000000E+00 -0.45593999997E+02  0.45594000000E+02  0.51100000000E-03 0.  1.
    9900012    2    1    2    0    0  0.35860005666E+02  0.22780767480E+02 -0.88724363774E+01  0.47787268432E+02  0.19999988088E+02 0.  0.
         12    1    1    2    0    0 -0.35860005666E+02 -0.22780767480E+02  0.88724363774E+01  0.43400731568E+02  0.00000000000E+00 0. -1.
         11    1    3    3    0    0  0.13131767247E+01  0.33856624564E+01 -0.22392912338E+01  0.42663296719E+01  0.51100000000E-03 0. -1.
        -11    1    3    3    0    0  0.21099249167E+02  0.19982570289E+02 -0.75644346247E+01  0.30028354970E+02  0.51100000000E-03 0.  1.
         12    1    3    3    0    0  0.13447579774E+02 -0.58746526471E+00  0.93128948109E+00  0.13492583790E+02  0.00000000000E+00 0. -1.
</event>
<event>
 7    1  0.5417298E-010  0.4778728E+02  0.7816164E-02  0.1312668E+00
        -11   -1    0    0    0    0  0.00000000000E+00  0.00000000000E+00  0.45593999997E+02  0.45594000000E+02  0.51100000000E-03 0.  1.
         11   -1    0    0    0    0 -0.00000000000E+00 -0.00000000000E+00 -0.45593999997E+02  0.45594000000E+02  0.51100000000E-03 0. -1.
    9900012    2    1    2    0    0  0.28908314269E+01 -0.16626416704E+02  0.39985342361E+02  0.47787282926E+02  0.20000054175E+02 0.  0.
         12    1    1    2    0    0 -0.28908314269E+01  0.16626416704E+02 -0.39985342361E+02  0.43400717074E+02  0.00000000000E+00 0. -1.
         11    1    3    3    0    0  0.77679648279E+00 -0.24917833509E+01 -0.14391475498E+01  0.29805272981E+01  0.51100000000E-03 0. -1.
        -11    1    3    3    0    0 -0.32865431833E+01 -0.91224832511E+01  0.22651954530E+02  0.24640050955E+02  0.51100000000E-03 0.  1.
        -12    1    3    3    0    0  0.54005781274E+01 -0.50121501020E+01  0.18772535381E+02  0.20166704674E+02  0.00000000000E+00 0.  1.
</event>
<event>
 7    1  0.5417298E-010  0.4778727E+02  0.7816164E-02  0.1312668E+00
        -11   -1    0    0    0    0  0.00000000000E+00  0.00000000000E+00  0.45593999997E+02  0.45594000000E+02  0.51100000000E-03 0.  1.
         11   -1    0    0    0    0 -0.00000000000E+00 -0.00000000000E+00 -0.45593999997E+02  0.45594000000E+02  0.51100000000E-03 0. -1.
    9900012    2    1    2    0    0 -0.13576849626E+02  0.23180095281E+02  0.34087768715E+02  0.47787266839E+02  0.19999980824E+02 0.  0.
         12    1    1    2    0    0  0.13576849626E+02 -0.23180095281E+02 -0.34087768715E+02  0.43400733161E+02  0.00000000000E+00 0. -1.
         11    1    3    3    0    0 -0.79240503959E+01  0.44558460202E+00  0.97630989714E+01  0.12582019794E+02  0.51100000000E-03 0. -1.
        -11    1    3    3    0    0 -0.12110476318E+00  0.10897966113E+01  0.65920982716E+01  0.66826703421E+01  0.51100000000E-03 0.  1.
         12    1    3    3    0    0 -0.55316944672E+01  0.21644714067E+02  0.17732571472E+02  0.28522576702E+02  0.00000000000E+00 0. -1.
</event>
<event>
 7    1  0.5417298E-010  0.4778727E+02  0.7816164E-02  0.1312668E+00
        -11   -1    0    0    0    0  0.00000000000E+00  0.00000000000E+00  0.45593999997E+02  0.45594000000E+02  0.51100000000E-03 0.  1.
         11   -1    0    0    0    0 -0.00000000000E+00 -0.00000000000E+00 -0.45593999997E+02  0.45594000000E+02  0.51100000000E-03 0. -1.
    9900012    2    1    2    0    0 -0.23516800034E+01 -0.54546176876E+01  0.42992329290E+02  0.47787266933E+02  0.19999981256E+02 0.  0.
         12    1    1    2    0    0  0.23516800034E+01  0.54546176876E+01 -0.42992329290E+02  0.43400733067E+02  0.00000000000E+00 0. -1.
         11    1    3    3    0    0  0.39679778347E+01 -0.59205548849E+00  0.62539360673E+01  0.74301476696E+01  0.51100000000E-03 0. -1.
        -11    1    3    3    0    0 -0.67457874034E+00 -0.68842815410E+01  0.31931192031E+02  0.32671844356E+02  0.51100000000E-03 0.  1.
        -12    1    3    3    0    0 -0.56450790978E+01  0.20217193418E+01  0.48072011916E+01  0.76852749081E+01  0.00000000000E+00 0.  1.
</event>
<event>
 7    1  0.5417298E-010  0.4778727E+02  0.7816164E-02  0.1312668E+00
        -11   -1    0    0    0    0  0.00000000000E+00  0.00000000000E+00  0.45593999997E+02  0.45594000000E+02  0.51100000000E-03 0.  1.
         11   -1    0    0    0    0 -0.00000000000E+00 -0.00000000000E+00 -0.45593999997E+02  0.45594000000E+02  0.51100000000E-03 0. -1.
    9900012    2    1    2    0    0  0.27877619774E+02  0.49877575499E+01  0.32887450257E+02  0.47787265052E+02  0.19999972677E+02 0.  0.
         12    1    1    2    0    0 -0.27877619774E+02 -0.49877575499E+01 -0.32887450257E+02  0.43400734948E+02  0.00000000000E+00 0. -1.
         11    1    3    3    0    0  0.89370587642E+01 -0.16044928721E+01  0.91867774304E+01  0.12916744812E+02  0.51100000000E-03 0.  1.
        -11    1    3    3    0    0 -0.13661981879E+01 -0.27077442658E+01  0.44439905194E+01  0.53802814513E+01  0.51100000000E-03 0. -1.
         12    1    3    3    0    0  0.20306759198E+02  0.92999946878E+01  0.19256682307E+02  0.29490238788E+02  0.00000000000E+00 0. -1.
</event>
<event>
 7    1  0.5417298E-010  0.4778727E+02  0.7816164E-02  0.1312668E+00
        -11   -1    0    0    0    0  0.00000000000E+00  0.00000000000E+00  0.45593999997E+02  0.45594000000E+02  0.51100000000E-03 0.  1.
         11   -1    0    0    0    0 -0.00000000000E+00 -0.00000000000E+00 -0.45593999997E+02  0.45594000000E+02  0.51100000000E-03 0. -1.
    9900012    2    1    2    0    0 -0.12238646809E+01 -0.29903089885E+02  0.31431363600E+02  0.47787271352E+02  0.20000001402E+02 0.  0.
         12    1    1    2    0    0  0.12238646809E+01  0.29903089885E+02 -0.31431363600E+02  0.43400728648E+02  0.00000000000E+00 0. -1.
         11    1    3    3    0    0  0.43582217535E+01 -0.82013084197E+01  0.78723040053E+01  0.12174922064E+02  0.51100000000E-03 0. -1.
        -11    1    3    3    0    0  0.44565045372E+01 -0.50690311996E+01  0.94026767014E+01  0.11574361296E+02  0.51100000000E-03 0.  1.
        -12    1    3    3    0    0 -0.10038590972E+02 -0.16632750266E+02  0.14156382893E+02  0.24037987992E+02  0.00000000000E+00 0.  1.
</event>
<event>
 7    1  0.5417298E-010  0.4778727E+02  0.7816164E-02  0.1312668E+00
        -11   -1    0    0    0    0  0.00000000000E+00  0.00000000000E+00  0.45593999997E+02  0.45594000000E+02  0.51100000000E-03 0.  1.
         11   -1    0    0    0    0 -0.00000000000E+00 -0.00000000000E+00 -0.45593999997E+02  0.45594000000E+02  0.51100000000E-03 0. -1.
    9900012    2    1    2    0    0  0.30654872205E+02  0.26368078862E+02 -0.15767895250E+02  0.47787270819E+02  0.19999998974E+02 0.  0.
         12    1    1    2    0    0 -0.30654872205E+02 -0.26368078862E+02  0.15767895250E+02  0.43400729181E+02  0.00000000000E+00 0. -1.
         11    1    3    3    0    0  0.74341097355E+01  0.99907088467E+01 -0.11284460571E+02  0.16805335506E+02  0.51100000000E-03 0. -1.
        -11    1    3    3    0    0  0.15777750307E+02  0.16636636496E+02 -0.51658343751E+01  0.23503210923E+02  0.51100000000E-03 0.  1.
         12    1    3    3    0    0  0.74430121631E+01 -0.25926648071E+00  0.68239969631E+00  0.74787243908E+01  0.00000000000E+00 0. -1.
</event>
<event>
 7    1  0.5417298E-010  0.4778727E+02  0.7816164E-02  0.1312668E+00
        -11   -1    0    0    0    0  0.00000000000E+00  0.00000000000E+00  0.45593999997E+02  0.45594000000E+02  0.51100000000E-03 0.  1.
         11   -1    0    0    0    0 -0.00000000000E+00 -0.00000000000E+00 -0.45593999997E+02  0.45594000000E+02  0.51100000000E-03 0. -1.
    9900012    2    1    2    0    0 -0.42113023024E+02 -0.81420188756E+01  0.66199732087E+01  0.47787271609E+02  0.20000002573E+02 0.  0.
         12    1    1    2    0    0  0.42113023024E+02  0.81420188756E+01 -0.66199732087E+01  0.43400728391E+02  0.00000000000E+00 0. -1.
         11    1    3    3    0    0 -0.99407074361E+01 -0.65685767663E+00 -0.22996927887E+01  0.10224368612E+02  0.51100000000E-03 0. -1.
        -11    1    3    3    0    0 -0.16723972185E+02  0.36128626745E+01  0.68465592599E+01  0.18428765458E+02  0.51100000000E-03 0.  1.
         12    1    3    3    0    0 -0.15448343403E+02 -0.11098023874E+02  0.20731067376E+01  0.19134137539E+02  0.00000000000E+00 0. -1.
</event>
<event>
 7    1  0.5417298E-010  0.4778727E+02  0.7816164E-02  0.1312668E+00
        -11   -1    0    0    0    0  0.00000000000E+00  0.00000000000E+00  0.45593999997E+02  0.45594000000E+02  0.51100000000E-03 0.  1.
         11   -1    0    0    0    0 -0.00000000000E+00 -0.00000000000E+00 -0.45593999997E+02  0.45594000000E+02  0.51100000000E-03 0. -1.
    9900012    2    1    2    0    0  0.28756073416E+02  0.38262278786E+01  0.32281132291E+02  0.47787270973E+02  0.19999999675E+02 0.  0.
         12    1    1    2    0    0 -0.28756073416E+02 -0.38262278786E+01 -0.32281132291E+02  0.43400729027E+02  0.00000000000E+00 0. -1.
         11    1    3    3    0    0  0.49868077868E+00  0.13477340694E+01  0.48221864964E+01  0.50317544165E+01  0.51100000000E-03 0. -1.
        -11    1    3    3    0    0  0.15413568493E+02 -0.54670259796E+01  0.20224065666E+02  0.26009215656E+02  0.51100000000E-03 0.  1.
         12    1    3    3    0    0  0.12843824144E+02  0.79455197888E+01  0.72348801287E+01  0.16746300900E+02  0.00000000000E+00 0. -1.
</event>
<event>
 7    1  0.5417298E-010  0.4778725E+02  0.7816164E-02  0.1312668E+00
        -11   -1    0    0    0    0  0.00000000000E+00  0.00000000000E+00  0.45593999997E+02  0.45594000000E+02  0.51100000000E-03 0.  1.
         11   -1    0    0    0    0 -0.00000000000E+00 -0.00000000000E+00 -0.45593999997E+02  0.45594000000E+02  0.51100000000E-03 0. -1.
    9900012    2    1    2    0    0  0.18417928706E+02  0.31823680602E+02  0.23057713430E+02  0.47787252386E+02  0.19999914928E+02 0.  0.
         12    1    1    2    0    0 -0.18417928706E+02 -0.31823680602E+02 -0.23057713430E+02  0.43400747614E+02  0.00000000000E+00 0. -1.
         11    1    3    3    0    0  0.72484279157E+00 -0.20062618576E+01  0.10127026625E+01  0.23613662693E+01  0.51100000000E-03 0. -1.
        -11    1    3    3    0    0  0.36245194431E+01  0.21194063333E+01  0.56932821034E+01  0.70740713715E+01  0.51100000000E-03 0.  1.
        -12    1    3    3    0    0  0.14068566471E+02  0.31710536126E+02  0.16351728664E+02  0.38351814745E+02  0.00000000000E+00 0.  1.
</event>
<event>
 7    1  0.5417298E-010  0.4778727E+02  0.7816164E-02  0.1312668E+00
        -11   -1    0    0    0    0  0.00000000000E+00  0.00000000000E+00  0.45593999997E+02  0.45594000000E+02  0.51100000000E-03 0. -1.
         11   -1    0    0    0    0 -0.00000000000E+00 -0.00000000000E+00 -0.45593999997E+02  0.45594000000E+02  0.51100000000E-03 0.  1.
    9900012    2    1    2    0    0 -0.34378356199E+02 -0.11976725261E+02 -0.23628586505E+02  0.47787269324E+02  0.19999992157E+02 0.  0.
         12    1    1    2    0    0  0.34378356199E+02  0.11976725261E+02  0.23628586505E+02  0.43400730676E+02  0.00000000000E+00 0. -1.
         11    1    3    3    0    0 -0.33783484487E+01 -0.21862821916E+01 -0.42451436947E+01  0.58493002412E+01  0.51100000000E-03 0. -1.
        -11    1    3    3    0    0 -0.15443269911E+02 -0.76599516010E+01 -0.19771395546E+02  0.26231231885E+02  0.51100000000E-03 0.  1.
         12    1    3    3    0    0 -0.15556737839E+02 -0.21304914686E+01  0.38795273517E+00  0.15706737198E+02  0.00000000000E+00 0. -1.
</event>
<event>
 7    1  0.5417298E-010  0.4778725E+02  0.7816164E-02  0.1312668E+00
        -11   -1    0    0    0    0  0.00000000000E+00  0.00000000000E+00  0.45593999997E+02  0.45594000000E+02  0.51100000000E-03 0. -1.
         11   -1    0    0    0    0 -0.00000000000E+00 -0.00000000000E+00 -0.45593999997E+02  0.45594000000E+02  0.51100000000E-03 0.  1.
    9900012    2    1    2    0    0  0.11689700358E+02  0.40602687279E+02  0.99195532855E+01  0.47787252932E+02  0.19999917416E+02 0.  0.
         12    1    1    2    0    0 -0.11689700358E+02 -0.40602687279E+02 -0.99195532855E+01  0.43400747068E+02  0.00000000000E+00 0. -1.
         11    1    3    3    0    0  0.39432427147E+01  0.15659968568E+01 -0.48203579964E+00  0.42701133516E+01  0.51100000000E-03 0. -1.
        -11    1    3    3    0    0  0.66685896055E+01  0.60018937287E+01  0.41226114217E+01  0.98736386836E+01  0.51100000000E-03 0.  1.
        -12    1    3    3    0    0  0.10778680378E+01  0.33034796693E+02  0.62789776634E+01  0.33643500896E+02  0.00000000000E+00 0.  1.
</event>
<event>
 7    1  0.5417298E-010  0.4778727E+02  0.7816164E-02  0.1312668E+00
        -11   -1    0    0    0    0  0.00000000000E+00  0.00000000000E+00  0.45593999997E+02  0.45594000000E+02  0.51100000000E-03 0.  1.
         11   -1    0    0    0    0 -0.00000000000E+00 -0.00000000000E+00 -0.45593999997E+02  0.45594000000E+02  0.51100000000E-03 0. -1.
    9900012    2    1    2    0    0  0.44515103088E+01  0.64292904743E+01  0.42690414043E+02  0.47787272227E+02  0.20000005393E+02 0.  0.
         12    1    1    2    0    0 -0.44515103088E+01 -0.64292904743E+01 -0.42690414043E+02  0.43400727773E+02  0.00000000000E+00 0. -1.
         11    1    3    3    0    0 -0.58766182187E+00 -0.21821101731E+01  0.22079653075E+02  0.22195000144E+02  0.51100000000E-03 0. -1.
        -11    1    3    3    0    0  0.24353078269E+01  0.75514242523E+01  0.42680108008E+01  0.90094755067E+01  0.51100000000E-03 0.  1.
        -12    1    3    3    0    0  0.26038643037E+01  0.10599763951E+01  0.16342750167E+02  0.16582796576E+02  0.00000000000E+00 0.  1.
</event>
<event>
 7    1  0.5417298E-010  0.4778728E+02  0.7816164E-02  0.1312668E+00
        -11   -1    0    0    0    0  0.00000000000E+00  0.00000000000E+00  0.45593999997E+02  0.45594000000E+02  0.51100000000E-03 0.  1.
         11   -1    0    0    0    0 -0.00000000000E+00 -0.00000000000E+00 -0.45593999997E+02  0.45594000000E+02  0.51100000000E-03 0. -1.
    9900012    2    1    2    0    0  0.25172387093E+02  0.34417209414E+02  0.80888453131E+01  0.47787276569E+02  0.20000025189E+02 0.  0.
         12    1    1    2    0    0 -0.25172387093E+02 -0.34417209414E+02 -0.80888453131E+01  0.43400723431E+02  0.00000000000E+00 0. -1.
         11    1    3    3    0    0  0.15996946583E+02  0.25556289268E+02 -0.14433562999E+01  0.30184590419E+02  0.51100000000E-03 0. -1.
        -11    1    3    3    0    0  0.41310897275E+01  0.44401425365E+01  0.14629077074E+00  0.60664791545E+01  0.51100000000E-03 0.  1.
        -12    1    3    3    0    0  0.50443507832E+01  0.44207776097E+01  0.93859108422E+01  0.11536206995E+02  0.00000000000E+00 0.  1.
</event>
<event>
 7    1  0.5417298E-010  0.4778726E+02  0.7816164E-02  0.1312668E+00
        -11   -1    0    0    0    0  0.00000000000E+00  0.00000000000E+00  0.45593999997E+02  0.45594000000E+02  0.51100000000E-03 0.  1.
         11   -1    0    0    0    0 -0.00000000000E+00 -0.00000000000E+00 -0.45593999997E+02  0.45594000000E+02  0.51100000000E-03 0. -1.
    9900012    2    1    2    0    0 -0.31142526570E+02  0.16622874314E+02  0.25247726375E+02  0.47787255781E+02  0.19999930408E+02 0.  0.
         12    1    1    2    0    0  0.31142526570E+02 -0.16622874314E+02 -0.25247726375E+02  0.43400744219E+02  0.00000000000E+00 0. -1.
         11    1    3    3    0    0 -0.95535689915E+00 -0.97088411021E+00  0.15701515771E+01  0.20786291147E+01  0.51100000000E-03 0. -1.
        -11    1    3    3    0    0 -0.52621173977E+01  0.11671714555E+02  0.12022904391E+02  0.17563286435E+02  0.51100000000E-03 0.  1.
         12    1    3    3    0    0 -0.24925052274E+02  0.59220438699E+01  0.11654670407E+02  0.28145340231E+02  0.00000000000E+00 0. -1.
</event>
<event>
 7    1  0.5417298E-010  0.4778728E+02  0.7816164E-02  0.1312668E+00
        -11   -1    0    0    0    0  0.00000000000E+00  0.00000000000E+00  0.45593999997E+02  0.45594000000E+02  0.51100000000E-03 0. -1.
         11   -1    0    0    0    0 -0.00000000000E+00 -0.00000000000E+00 -0.45593999997E+02  0.45594000000E+02  0.51100000000E-03 0.  1.
    9900012    2    1    2    0    0  0.17648081565E+02  0.34249210420E+02 -0.19978975777E+02  0.47787277996E+02  0.20000031696E+02 0.  0.
         12    1    1    2    0    0 -0.17648081565E+02 -0.34249210420E+02  0.19978975777E+02  0.43400722004E+02  0.00000000000E+00 0. -1.
         11    1    3    3    0    0  0.43162460930E+01  0.70761301706E+01 -0.64624451001E+01  0.10510223378E+02  0.51100000000E-03 0.  1.
        -11    1    3    3    0    0 -0.32480268455E+01  0.49172403175E+01  0.96760199076E+00  0.59720335400E+01  0.51100000000E-03 0. -1.
         12    1    3    3    0    0  0.16579862318E+02  0.22255839932E+02 -0.14484132668E+02  0.31305021078E+02  0.00000000000E+00 0. -1.
</event>
<event>
 7    1  0.5417298E-010  0.4778727E+02  0.7816164E-02  0.1312668E+00
        -11   -1    0    0    0    0  0.00000000000E+00  0.00000000000E+00  0.45593999997E+02  0.45594000000E+02  0.51100000000E-03 0.  1.
         11   -1    0    0    0    0 -0.00000000000E+00 -0.00000000000E+00 -0.45593999997E+02  0.45594000000E+02  0.51100000000E-03 0. -1.
    9900012    2    1    2    0    0 -0.41383212670E+02  0.11176591872E+02 -0.67924075140E+01  0.47787270782E+02  0.19999998805E+02 0.  0.
         12    1    1    2    0    0  0.41383212670E+02 -0.11176591872E+02  0.67924075140E+01  0.43400729218E+02  0.00000000000E+00 0. -1.
         11    1    3    3    0    0 -0.27724546819E+02  0.75730436977E+01 -0.70109215107E+01  0.29583010459E+02  0.51100000000E-03 0. -1.
        -11    1    3    3    0    0 -0.14526136460E+02  0.52227509432E+01 -0.17219277160E+01  0.15532250423E+02  0.51100000000E-03 0.  1.
        -12    1    3    3    0    0  0.86747060884E+00 -0.16192027693E+01  0.19404417128E+01  0.26720099001E+01  0.00000000000E+00 0.  1.
</event>
<event>
 7    1  0.5417298E-010  0.4778727E+02  0.7816164E-02  0.1312668E+00
        -11   -1    0    0    0    0  0.00000000000E+00  0.00000000000E+00  0.45593999997E+02  0.45594000000E+02  0.51100000000E-03 0.  1.
         11   -1    0    0    0    0 -0.00000000000E+00 -0.00000000000E+00 -0.45593999997E+02  0.45594000000E+02  0.51100000000E-03 0. -1.
    9900012    2    1    2    0    0  0.17135960597E+01  0.38562837661E+02  0.19839222681E+02  0.47787267097E+02  0.19999982003E+02 0.  0.
         12    1    1    2    0    0 -0.17135960597E+01 -0.38562837661E+02 -0.19839222681E+02  0.43400732903E+02  0.00000000000E+00 0. -1.
         11    1    3    3    0    0 -0.11433468432E+00  0.17081261329E+02  0.13366924320E+02  0.21690025981E+02  0.51100000000E-03 0. -1.
        -11    1    3    3    0    0 -0.49271687756E+01  0.10604136511E+02  0.63209033847E+01  0.13292047365E+02  0.51100000000E-03 0.  1.
         12    1    3    3    0    0  0.67550995196E+01  0.10877439820E+02  0.15139497641E+00  0.12805193751E+02  0.00000000000E+00 0. -1.
</event>
<event>
 7    1  0.5417298E-010  0.4778727E+02  0.7816164E-02  0.1312668E+00
        -11   -1    0    0    0    0  0.00000000000E+00  0.00000000000E+00  0.45593999997E+02  0.45594000000E+02  0.51100000000E-03 0.  1.
         11   -1    0    0    0    0 -0.00000000000E+00 -0.00000000000E+00 -0.45593999997E+02  0.45594000000E+02  0.51100000000E-03 0. -1.
    9900012    2    1    2    0    0 -0.40118054211E+02  0.11734167339E+02 -0.11682230835E+02  0.47787268737E+02  0.19999989481E+02 0.  0.
         12    1    1    2    0    0  0.40118054211E+02 -0.11734167339E+02  0.11682230835E+02  0.43400731263E+02  0.00000000000E+00 0. -1.
         11    1    3    3    0    0 -0.55312267461E+01  0.42893356605E+01 -0.24773018193E+01  0.74249507938E+01  0.51100000000E-03 0. -1.
        -11    1    3    3    0    0 -0.22136945815E+02  0.77572126909E+01  0.20897134928E+01  0.23549641643E+02  0.51100000000E-03 0.  1.
         12    1    3    3    0    0 -0.12449881650E+02 -0.31238101233E+00 -0.11294642509E+02  0.16812676301E+02  0.00000000000E+00 0. -1.
</event>
<event>
 7    1  0.5417298E-010  0.4778727E+02  0.7816164E-02  0.1312668E+00
        -11   -1    0    0    0    0  0.00000000000E+00  0.00000000000E+00  0.45593999997E+02  0.45594000000E+02  0.51100000000E-03 0.  1.
         11   -1    0    0    0    0 -0.00000000000E+00 -0.00000000000E+00 -0.45593999997E+02  0.45594000000E+02  0.51100000000E-03 0. -1.
    9900012    2    1    2    0    0  0.10124324918E+02  0.30549230295E+02  0.29118134500E+02  0.47787272087E+02  0.20000004751E+02 0.  0.
         12    1    1    2    0    0 -0.10124324918E+02 -0.30549230295E+02 -0.29118134500E+02  0.43400727913E+02  0.00000000000E+00 0. -1.
         11    1    3    3    0    0  0.60542382322E+01  0.91980337266E+00  0.43720681903E+01  0.75242819815E+01  0.51100000000E-03 0. -1.
        -11    1    3    3    0    0  0.51126439222E+01  0.52343930265E+01  0.50251199814E+01  0.88763635189E+01  0.51100000000E-03 0.  1.
        -12    1    3    3    0    0 -0.10425572365E+01  0.24395033896E+02  0.19720946328E+02  0.31386626586E+02  0.00000000000E+00 0.  1.
</event>
<event>
 7    1  0.5417298E-010  0.4778727E+02  0.7816164E-02  0.1312668E+00
        -11   -1    0    0    0    0  0.00000000000E+00  0.00000000000E+00  0.45593999997E+02  0.45594000000E+02  0.51100000000E-03 0.  1.
         11   -1    0    0    0    0 -0.00000000000E+00 -0.00000000000E+00 -0.45593999997E+02  0.45594000000E+02  0.51100000000E-03 0. -1.
    9900012    2    1    2    0    0  0.29559977574E+02 -0.31701581705E+02  0.22002742447E+01  0.47787265403E+02  0.19999974278E+02 0.  0.
         12    1    1    2    0    0 -0.29559977574E+02  0.31701581705E+02 -0.22002742447E+01  0.43400734597E+02  0.00000000000E+00 0. -1.
         11    1    3    3    0    0  0.11979644353E+02 -0.12060973248E+02 -0.57115150280E+01  0.17933219418E+02  0.51100000000E-03 0. -1.
        -11    1    3    3    0    0  0.79442285429E+01 -0.95374049015E+01 -0.22120036115E+01  0.12608164800E+02  0.51100000000E-03 0.  1.
        -12    1    3    3    0    0  0.96361046785E+01 -0.10103203555E+02  0.10123792884E+02  0.17245881184E+02  0.00000000000E+00 0.  1.
</event>
<event>
 7    1  0.5417298E-010  0.4778727E+02  0.7816164E-02  0.1312668E+00
        -11   -1    0    0    0    0  0.00000000000E+00  0.00000000000E+00  0.45593999997E+02  0.45594000000E+02  0.51100000000E-03 0.  1.
         11   -1    0    0    0    0 -0.00000000000E+00 -0.00000000000E+00 -0.45593999997E+02  0.45594000000E+02  0.51100000000E-03 0. -1.
    9900012    2    1    2    0    0  0.34748611607E+02  0.23946553290E+02  0.10135091679E+02  0.47787268365E+02  0.19999987783E+02 0.  0.
         12    1    1    2    0    0 -0.34748611607E+02 -0.23946553290E+02 -0.10135091679E+02  0.43400731635E+02  0.00000000000E+00 0. -1.
         11    1    3    3    0    0  0.59874093646E+01  0.13241176686E+02  0.50224704021E+01  0.15375403739E+02  0.51100000000E-03 0. -1.
        -11    1    3    3    0    0  0.45551428834E+01  0.37733991002E+01  0.41289150893E+01  0.72135849294E+01  0.51100000000E-03 0.  1.
        -12    1    3    3    0    0  0.24206059359E+02  0.69319775041E+01  0.98370618735E+00  0.25198279697E+02  0.00000000000E+00 0.  1.
</event>
<event>
 7    1  0.5417298E-010  0.4778727E+02  0.7816164E-02  0.1312668E+00
        -11   -1    0    0    0    0  0.00000000000E+00  0.00000000000E+00  0.45593999997E+02  0.45594000000E+02  0.51100000000E-03 0.  1.
         11   -1    0    0    0    0 -0.00000000000E+00 -0.00000000000E+00 -0.45593999997E+02  0.45594000000E+02  0.51100000000E-03 0. -1.
    9900012    2    1    2    0    0  0.39738297153E+02 -0.45697463458E+01  0.16840678299E+02  0.47787270884E+02  0.19999999267E+02 0.  0.
         12    1    1    2    0    0 -0.39738297153E+02  0.45697463458E+01 -0.16840678299E+02  0.43400729116E+02  0.00000000000E+00 0. -1.
         11    1    3    3    0    0  0.14713947778E+02 -0.28810641493E+01  0.78770939468E+01  0.16936628920E+02  0.51100000000E-03 0.  1.
        -11    1    3    3    0    0  0.20486302387E+02  0.29228030979E+01  0.11774453829E+01  0.20727222229E+02  0.51100000000E-03 0. -1.
         12    1    3    3    0    0  0.45380469869E+01 -0.46114852943E+01  0.77861389692E+01  0.10123419735E+02  0.00000000000E+00 0. -1.
</event>
<event>
 7    1  0.5417298E-010  0.4778727E+02  0.7816164E-02  0.1312668E+00
        -11   -1    0    0    0    0  0.00000000000E+00  0.00000000000E+00  0.45593999997E+02  0.45594000000E+02  0.51100000000E-03 0.  1.
         11   -1    0    0    0    0 -0.00000000000E+00 -0.00000000000E+00 -0.45593999997E+02  0.45594000000E+02  0.51100000000E-03 0. -1.
    9900012    2    1    2    0    0  0.19112081156E+02  0.20917435483E+02  0.32875718780E+02  0.47787266843E+02  0.19999980843E+02 0.  0.
         12    1    1    2    0    0 -0.19112081156E+02 -0.20917435483E+02 -0.32875718780E+02  0.43400733157E+02  0.00000000000E+00 0. -1.
         11    1    3    3    0    0  0.16575735547E+01  0.21605082998E+01 -0.11693230598E+01  0.29635557836E+01  0.51100000000E-03 0. -1.
        -11    1    3    3    0    0  0.11519347520E+02  0.19037845308E+02  0.30965406483E+02  0.38131238114E+02  0.51100000000E-03 0.  1.
         12    1    3    3    0    0  0.59351600813E+01 -0.28091812450E+00  0.30796353570E+01  0.66924729447E+01  0.00000000000E+00 0. -1.
</event>
<event>
 7    1  0.5417298E-010  0.4778727E+02  0.7816164E-02  0.1312668E+00
        -11   -1    0    0    0    0  0.00000000000E+00  0.00000000000E+00  0.45593999997E+02  0.45594000000E+02  0.51100000000E-03 0.  1.
         11   -1    0    0    0    0 -0.00000000000E+00 -0.00000000000E+00 -0.45593999997E+02  0.45594000000E+02  0.51100000000E-03 0. -1.
    9900012    2    1    2    0    0 -0.56557051260E+01 -0.12093045759E+02  0.41296421967E+02  0.47787271625E+02  0.20000002648E+02 0.  0.
         12    1    1    2    0    0  0.56557051260E+01  0.12093045759E+02 -0.41296421967E+02  0.43400728375E+02  0.00000000000E+00 0. -1.
         11    1    3    3    0    0  0.28557697876E+01 -0.34895438963E+01  0.44062368511E+01  0.63045428965E+01  0.51100000000E-03 0. -1.
        -11    1    3    3    0    0 -0.60502961938E+01 -0.12719294338E+02  0.25660658083E+02  0.29272101155E+02  0.51100000000E-03 0.  1.
        -12    1    3    3    0    0 -0.24611787199E+01  0.41157924748E+01  0.11229527032E+02  0.12210627574E+02  0.00000000000E+00 0.  1.
</event>
<event>
 7    1  0.5417298E-010  0.4778726E+02  0.7816164E-02  0.1312668E+00
        -11   -1    0    0    0    0  0.00000000000E+00  0.00000000000E+00  0.45593999997E+02  0.45594000000E+02  0.51100000000E-03 0.  1.
         11   -1    0    0    0    0 -0.00000000000E+00 -0.00000000000E+00 -0.45593999997E+02  0.45594000000E+02  0.51100000000E-03 0. -1.
    9900012    2    1    2    0    0 -0.37893523672E+02 -0.29140878249E+01  0.20957414377E+02  0.47787259667E+02  0.19999948124E+02 0.  0.
         12    1    1    2    0    0  0.37893523672E+02  0.29140878249E+01 -0.20957414377E+02  0.43400740333E+02  0.00000000000E+00 0. -1.
         11    1    3    3    0    0 -0.17200595937E+02 -0.76148950563E+00  0.61275573227E+01  0.18275320130E+02  0.51100000000E-03 0. -1.
        -11    1    3    3    0    0 -0.22999000668E+02 -0.13532730877E+01  0.12931116979E+02  0.26419673850E+02  0.51100000000E-03 0.  1.
         12    1    3    3    0    0  0.23060729334E+01 -0.79932523160E+00  0.18987400751E+01  0.30922656860E+01  0.00000000000E+00 0. -1.
</event>
<event>
 7    1  0.5417298E-010  0.4778728E+02  0.7816164E-02  0.1312668E+00
        -11   -1    0    0    0    0  0.00000000000E+00  0.00000000000E+00  0.45593999997E+02  0.45594000000E+02  0.51100000000E-03 0. -1.
         11   -1    0    0    0    0 -0.00000000000E+00 -0.00000000000E+00 -0.45593999997E+02  0.45594000000E+02  0.51100000000E-03 0.  1.
    9900012    2    1    2    0    0  0.14882374117E+02 -0.26278845112E+02 -0.31169859374E+02  0.47787275431E+02  0.20000020000E+02 0.  0.
         12    1    1    2    0    0 -0.14882374117E+02  0.26278845112E+02  0.31169859374E+02  0.43400724569E+02  0.00000000000E+00 0. -1.
         11    1    3    3    0    0 -0.30651271128E+00 -0.80805049147E+01 -0.11292456361E+02  0.13889135346E+02  0.51100000000E-03 0. -1.
        -11    1    3    3    0    0  0.28321254005E+01 -0.90628256424E+01 -0.15042237801E+02  0.17788329355E+02  0.51100000000E-03 0.  1.
        -12    1    3    3    0    0  0.12356761427E+02 -0.91355145545E+01 -0.48351652110E+01  0.16109810730E+02  0.00000000000E+00 0.  1.
</event>
<event>
 7    1  0.5417298E-010  0.4778727E+02  0.7816164E-02  0.1312668E+00
        -11   -1    0    0    0    0  0.00000000000E+00  0.00000000000E+00  0.45593999997E+02  0.45594000000E+02  0.51100000000E-03 0.  1.
         11   -1    0    0    0    0 -0.00000000000E+00 -0.00000000000E+00 -0.45593999997E+02  0.45594000000E+02  0.51100000000E-03 0. -1.
    9900012    2    1    2    0    0 -0.21477106263E+02 -0.11621346530E+02  0.35878986424E+02  0.47787268953E+02  0.19999990463E+02 0.  0.
         12    1    1    2    0    0  0.21477106263E+02  0.11621346530E+02 -0.35878986424E+02  0.43400731047E+02  0.00000000000E+00 0. -1.
         11    1    3    3    0    0 -0.21925737471E+01  0.18202640900E+01  0.40062348184E+00  0.28777144454E+01  0.51100000000E-03 0. -1.
        -11    1    3    3    0    0 -0.78272592632E+01  0.19984950169E+01  0.79711687534E+01  0.11348986803E+02  0.51100000000E-03 0.  1.
         12    1    3    3    0    0 -0.11457273253E+02 -0.15440105637E+02  0.27507194189E+02  0.33560567704E+02  0.00000000000E+00 0. -1.
</event>
<event>
 7    1  0.5417298E-010  0.4778727E+02  0.7816164E-02  0.1312668E+00
        -11   -1    0    0    0    0  0.00000000000E+00  0.00000000000E+00  0.45593999997E+02  0.45594000000E+02  0.51100000000E-03 0.  1.
         11   -1    0    0    0    0 -0.00000000000E+00 -0.00000000000E+00 -0.45593999997E+02  0.45594000000E+02  0.51100000000E-03 0. -1.
    9900012    2    1    2    0    0  0.20062487817E+02 -0.34664648596E+02  0.16717715190E+02  0.47787270964E+02  0.19999999631E+02 0.  0.
         12    1    1    2    0    0 -0.20062487817E+02  0.34664648596E+02 -0.16717715190E+02  0.43400729036E+02  0.00000000000E+00 0. -1.
         11    1    3    3    0    0  0.86494692665E+01 -0.27578027600E+02  0.17750618205E+02  0.33918215929E+02  0.51100000000E-03 0.  1.
        -11    1    3    3    0    0  0.45815926319E+01 -0.45402942418E+01 -0.12726349984E+01  0.65745618065E+01  0.51100000000E-03 0. -1.
        -12    1    3    3    0    0  0.68314259189E+01 -0.25463267541E+01  0.23973198329E+00  0.72944932276E+01  0.00000000000E+00 0.  1.
</event>
<event>
 7    1  0.5417298E-010  0.4778727E+02  0.7816164E-02  0.1312668E+00
        -11   -1    0    0    0    0  0.00000000000E+00  0.00000000000E+00  0.45593999997E+02  0.45594000000E+02  0.51100000000E-03 0.  1.
         11   -1    0    0    0    0 -0.00000000000E+00 -0.00000000000E+00 -0.45593999997E+02  0.45594000000E+02  0.51100000000E-03 0. -1.
    9900012    2    1    2    0    0  0.29526168906E+02 -0.31416973392E+02  0.49801708667E+01  0.47787274554E+02  0.20000016000E+02 0.  0.
         12    1    1    2    0    0 -0.29526168906E+02  0.31416973392E+02 -0.49801708667E+01  0.43400725446E+02  0.00000000000E+00 0. -1.
         11    1    3    3    0    0 -0.12301612917E+01  0.94839709770E-01 -0.50177267899E+00  0.13319412362E+01  0.51100000000E-03 0. -1.
        -11    1    3    3    0    0  0.16124166859E+02 -0.79286580717E+01 -0.85126962414E+00  0.17988247161E+02  0.51100000000E-03 0.  1.
        -12    1    3    3    0    0  0.14632163339E+02 -0.23583155030E+02  0.63332131699E+01  0.28467086156E+02  0.00000000000E+00 0.  1.
</event>
<event>
 7    1  0.5417298E-010  0.4778727E+02  0.7816164E-02  0.1312668E+00
        -11   -1    0    0    0    0  0.00000000000E+00  0.00000000000E+00  0.45593999997E+02  0.45594000000E+02  0.51100000000E-03 0.  1.
         11   -1    0    0    0    0 -0.00000000000E+00 -0.00000000000E+00 -0.45593999997E+02  0.45594000000E+02  0.51100000000E-03 0. -1.
    9900012    2    1    2    0    0  0.25705745936E+02  0.34067654688E+02  0.78887637410E+01  0.47787273469E+02  0.20000011056E+02 0.  0.
         12    1    1    2    0    0 -0.25705745936E+02 -0.34067654688E+02 -0.78887637410E+01  0.43400726531E+02  0.00000000000E+00 0. -1.
         11    1    3    3    0    0  0.59566406695E+01  0.86289449917E+01 -0.24613438509E+01  0.10770258750E+02  0.51100000000E-03 0. -1.
        -11    1    3    3    0    0  0.17440469685E+02  0.25598532183E+02  0.52505274364E+01  0.31416920145E+02  0.51100000000E-03 0.  1.
        -12    1    3    3    0    0  0.23086355811E+01 -0.15982248752E+00  0.50995801555E+01  0.56000945739E+01  0.00000000000E+00 0.  1.
</event>
<event>
 7    1  0.5417298E-010  0.4778727E+02  0.7816164E-02  0.1312668E+00
        -11   -1    0    0    0    0  0.00000000000E+00  0.00000000000E+00  0.45593999997E+02  0.45594000000E+02  0.51100000000E-03 0. -1.
         11   -1    0    0    0    0 -0.00000000000E+00 -0.00000000000E+00 -0.45593999997E+02  0.45594000000E+02  0.51100000000E-03 0.  1.
    9900012    2    1    2    0    0 -0.27119906694E+02  0.33096015314E+02 -0.72655105056E+01  0.47787271762E+02  0.20000003270E+02 0.  0.
         12    1    1    2    0    0  0.27119906694E+02 -0.33096015314E+02  0.72655105056E+01  0.43400728238E+02  0.00000000000E+00 0. -1.
         11    1    3    3    0    0 -0.21500150917E+02  0.13243313574E+02 -0.50566581319E+01  0.25752895674E+02  0.51100000000E-03 0. -1.
        -11    1    3    3    0    0 -0.69716194730E+01  0.11447495190E+02 -0.10822633567E+01  0.13446929703E+02  0.51100000000E-03 0.  1.
         12    1    3    3    0    0  0.13518636963E+01  0.84052065494E+01 -0.11265890170E+01  0.85874463844E+01  0.00000000000E+00 0. -1.
</event>
<event>
 7    1  0.5417298E-010  0.4778731E+02  0.7816164E-02  0.1312668E+00
        -11   -1    0    0    0    0  0.00000000000E+00  0.00000000000E+00  0.45593999997E+02  0.45594000000E+02  0.51100000000E-03 0.  1.
         11   -1    0    0    0    0 -0.00000000000E+00 -0.00000000000E+00 -0.45593999997E+02  0.45594000000E+02  0.51100000000E-03 0. -1.
    9900012    2    1    2    0    0  0.85160656467E+00  0.26711594268E+01  0.43310035209E+02  0.47787314795E+02  0.20000199475E+02 0.  0.
         12    1    1    2    0    0 -0.85160656467E+00 -0.26711594268E+01 -0.43310035209E+02  0.43400685205E+02  0.00000000000E+00 0. -1.
         11    1    3    3    0    0 -0.23099579071E+01 -0.22858865546E+01  0.51602783638E+00  0.32905117933E+01  0.51100000000E-03 0. -1.
        -11    1    3    3    0    0  0.49792803940E+01 -0.16298006353E+01  0.15547012730E+02  0.16406068647E+02  0.51100000000E-03 0.  1.
         12    1    3    3    0    0 -0.18177159222E+01  0.65868466167E+01  0.27246994643E+02  0.28090734355E+02  0.00000000000E+00 0. -1.
</event>
<event>
 7    1  0.5417298E-010  0.4778727E+02  0.7816164E-02  0.1312668E+00
        -11   -1    0    0    0    0  0.00000000000E+00  0.00000000000E+00  0.45593999997E+02  0.45594000000E+02  0.51100000000E-03 0.  1.
         11   -1    0    0    0    0 -0.00000000000E+00 -0.00000000000E+00 -0.45593999997E+02  0.45594000000E+02  0.51100000000E-03 0. -1.
    9900012    2    1    2    0    0 -0.15345622933E+02 -0.40135537802E+02 -0.61052311505E+01  0.47787269761E+02  0.19999994149E+02 0.  0.
         12    1    1    2    0    0  0.15345622933E+02  0.40135537802E+02  0.61052311505E+01  0.43400730239E+02  0.00000000000E+00 0. -1.
         11    1    3    3    0    0 -0.68131631298E+01 -0.11139183125E+02 -0.85927075950E+01  0.15631225691E+02  0.51100000000E-03 0. -1.
        -11    1    3    3    0    0 -0.19003320273E+00 -0.13262974413E+00  0.20955691748E+01  0.21083438274E+01  0.51100000000E-03 0.  1.
         12    1    3    3    0    0 -0.83424266007E+01 -0.28863724932E+02  0.39190726970E+00  0.30047700243E+02  0.00000000000E+00 0. -1.
</event>
<event>
 7    1  0.5417298E-010  0.4778727E+02  0.7816164E-02  0.1312668E+00
        -11   -1    0    0    0    0  0.00000000000E+00  0.00000000000E+00  0.45593999997E+02  0.45594000000E+02  0.51100000000E-03 0. -1.
         11   -1    0    0    0    0 -0.00000000000E+00 -0.00000000000E+00 -0.45593999997E+02  0.45594000000E+02  0.51100000000E-03 0.  1.
    9900012    2    1    2    0    0 -0.20640373860E+02 -0.35470787097E+02 -0.14121664630E+02  0.47787272100E+02  0.20000004811E+02 0.  0.
         12    1    1    2    0    0  0.20640373860E+02  0.35470787097E+02  0.14121664630E+02  0.43400727900E+02  0.00000000000E+00 0. -1.
         11    1    3    3    0    0 -0.22835019665E+02 -0.24279404055E+02 -0.11411876141E+02  0.35230079502E+02  0.51100000000E-03 0. -1.
        -11    1    3    3    0    0 -0.87079891942E+00 -0.32238189106E+00  0.56600952742E-01  0.93028209201E+00  0.51100000000E-03 0.  1.
        -12    1    3    3    0    0  0.30654447242E+01 -0.10869001150E+02 -0.27663894415E+01  0.11626910506E+02  0.00000000000E+00 0.  1.
</event>
<event>
 7    1  0.5417298E-010  0.4778727E+02  0.7816164E-02  0.1312668E+00
        -11   -1    0    0    0    0  0.00000000000E+00  0.00000000000E+00  0.45593999997E+02  0.45594000000E+02  0.51100000000E-03 0. -1.
         11   -1    0    0    0    0 -0.00000000000E+00 -0.00000000000E+00 -0.45593999997E+02  0.45594000000E+02  0.51100000000E-03 0.  1.
    9900012    2    1    2    0    0  0.36624372691E+01  0.41793141518E+02 -0.11114981410E+02  0.47787274932E+02  0.20000017725E+02 0.  0.
         12    1    1    2    0    0 -0.36624372691E+01 -0.41793141518E+02  0.11114981410E+02  0.43400725068E+02  0.00000000000E+00 0. -1.
         11    1    3    3    0    0 -0.25122109631E+01  0.24236156767E+02 -0.12641248091E+01  0.24398780924E+02  0.51100000000E-03 0. -1.
        -11    1    3    3    0    0 -0.11766770356E+01  0.11660309124E+02 -0.63949754519E+01  0.13350771101E+02  0.51100000000E-03 0.  1.
        -12    1    3    3    0    0  0.73513252678E+01  0.58966756271E+01 -0.34558811492E+01  0.10037722907E+02  0.00000000000E+00 0.  1.
</event>
<event>
 7    1  0.5417298E-010  0.4778727E+02  0.7816164E-02  0.1312668E+00
        -11   -1    0    0    0    0  0.00000000000E+00  0.00000000000E+00  0.45593999997E+02  0.45594000000E+02  0.51100000000E-03 0.  1.
         11   -1    0    0    0    0 -0.00000000000E+00 -0.00000000000E+00 -0.45593999997E+02  0.45594000000E+02  0.51100000000E-03 0. -1.
    9900012    2    1    2    0    0 -0.36079937977E+02  0.23415896516E+02 -0.57928294679E+01  0.47787274116E+02  0.20000014003E+02 0.  0.
         12    1    1    2    0    0  0.36079937977E+02 -0.23415896516E+02  0.57928294679E+01  0.43400725884E+02  0.00000000000E+00 0. -1.
         11    1    3    3    0    0 -0.19080171062E+02  0.11052096833E+02 -0.20902146996E+01  0.22148832247E+02  0.51100000000E-03 0.  1.
        -11    1    3    3    0    0 -0.83745758368E+01  0.32058226080E+01  0.50702532664E+01  0.10301373087E+02  0.51100000000E-03 0. -1.
         12    1    3    3    0    0 -0.86251910777E+01  0.91579770749E+01 -0.87728680347E+01  0.15337068781E+02  0.00000000000E+00 0. -1.
</event>
<event>
 7    1  0.5417298E-010  0.4778727E+02  0.7816164E-02  0.1312668E+00
        -11   -1    0    0    0    0  0.00000000000E+00  0.00000000000E+00  0.45593999997E+02  0.45594000000E+02  0.51100000000E-03 0. -1.
         11   -1    0    0    0    0 -0.00000000000E+00 -0.00000000000E+00 -0.45593999997E+02  0.45594000000E+02  0.51100000000E-03 0.  1.
    9900012    2    1    2    0    0  0.43398306914E+02 -0.39539518517E+00 -0.23201314426E+00  0.47787271775E+02  0.20000003329E+02 0.  0.
         12    1    1    2    0    0 -0.43398306914E+02  0.39539518517E+00  0.23201314426E+00  0.43400728225E+02  0.00000000000E+00 0. -1.
         11    1    3    3    0    0  0.26872953069E+01 -0.41270167025E+01  0.47046699937E+00  0.49472378544E+01  0.51100000000E-03 0. -1.
        -11    1    3    3    0    0  0.93433524682E+01  0.43407187046E+01  0.41243817490E+01  0.11097323970E+02  0.51100000000E-03 0.  1.
        -12    1    3    3    0    0  0.31367659139E+02 -0.60909718726E+00 -0.48268618926E+01  0.31742709950E+02  0.00000000000E+00 0.  1.
</event>
<event>
 7    1  0.5417298E-010  0.4778727E+02  0.7816164E-02  0.1312668E+00
        -11   -1    0    0    0    0  0.00000000000E+00  0.00000000000E+00  0.45593999997E+02  0.45594000000E+02  0.51100000000E-03 0.  1.
         11   -1    0    0    0    0 -0.00000000000E+00 -0.00000000000E+00 -0.45593999997E+02  0.45594000000E+02  0.51100000000E-03 0. -1.
    9900012    2    1    2    0    0  0.93260477143E+01 -0.41236312101E+02  0.98089000837E+01  0.47787272788E+02  0.20000007950E+02 0.  0.
         12    1    1    2    0    0 -0.93260477143E+01  0.41236312101E+02 -0.98089000837E+01  0.43400727212E+02  0.00000000000E+00 0. -1.
         11    1    3    3    0    0  0.15725749147E+01 -0.25291271182E+01 -0.18058311431E+01  0.34828870525E+01  0.51100000000E-03 0. -1.
        -11    1    3    3    0    0  0.72655742147E+01 -0.46678598778E+01  0.34257096408E+01  0.92904774534E+01  0.51100000000E-03 0.  1.
         12    1    3    3    0    0  0.48789858488E+00 -0.34039325105E+02  0.81890215860E+01  0.35013908282E+02  0.00000000000E+00 0. -1.
</event>
<event>
 7    1  0.5417298E-010  0.4778728E+02  0.7816164E-02  0.1312668E+00
        -11   -1    0    0    0    0  0.00000000000E+00  0.00000000000E+00  0.45593999997E+02  0.45594000000E+02  0.51100000000E-03 0.  1.
         11   -1    0    0    0    0 -0.00000000000E+00 -0.00000000000E+00 -0.45593999997E+02  0.45594000000E+02  0.51100000000E-03 0. -1.
    9900012    2    1    2    0    0 -0.58616097112E+01  0.26950200298E+02  0.33510461549E+02  0.47787276530E+02  0.20000025011E+02 0.  0.
         12    1    1    2    0    0  0.58616097112E+01 -0.26950200298E+02 -0.33510461549E+02  0.43400723470E+02  0.00000000000E+00 0. -1.
         11    1    3    3    0    0 -0.12435527542E+02  0.13266454444E+02  0.13904669767E+02  0.22890631279E+02  0.51100000000E-03 0. -1.
        -11    1    3    3    0    0  0.24472601154E+01  0.42412361567E+01  0.79670831187E+01  0.93515549451E+01  0.51100000000E-03 0.  1.
         12    1    3    3    0    0  0.41266577150E+01  0.94425096973E+01  0.11638708663E+02  0.15545090306E+02  0.00000000000E+00 0. -1.
</event>
<event>
 7    1  0.5417298E-010  0.4778727E+02  0.7816164E-02  0.1312668E+00
        -11   -1    0    0    0    0  0.00000000000E+00  0.00000000000E+00  0.45593999997E+02  0.45594000000E+02  0.51100000000E-03 0.  1.
         11   -1    0    0    0    0 -0.00000000000E+00 -0.00000000000E+00 -0.45593999997E+02  0.45594000000E+02  0.51100000000E-03 0. -1.
    9900012    2    1    2    0    0  0.20856431112E+02 -0.37993203322E+02 -0.22691168054E+01  0.47787272950E+02  0.20000008689E+02 0.  0.
         12    1    1    2    0    0 -0.20856431112E+02  0.37993203322E+02  0.22691168054E+01  0.43400727050E+02  0.00000000000E+00 0. -1.
         11    1    3    3    0    0 -0.14577790304E+01  0.46408175409E+00 -0.39351336125E+00  0.15796659782E+01  0.51100000000E-03 0. -1.
        -11    1    3    3    0    0 -0.89700125418E+00 -0.85519897254E+00 -0.15920717413E+01  0.20175899542E+01  0.51100000000E-03 0.  1.
        -12    1    3    3    0    0  0.23211211397E+02 -0.37602086103E+02 -0.28353170277E+00  0.44190017018E+02  0.00000000000E+00 0.  1.
</event>
<event>
 7    1  0.5417298E-010  0.4778727E+02  0.7816164E-02  0.1312668E+00
        -11   -1    0    0    0    0  0.00000000000E+00  0.00000000000E+00  0.45593999997E+02  0.45594000000E+02  0.51100000000E-03 0.  1.
         11   -1    0    0    0    0 -0.00000000000E+00 -0.00000000000E+00 -0.45593999997E+02  0.45594000000E+02  0.51100000000E-03 0. -1.
    9900012    2    1    2    0    0 -0.53212020873E+01 -0.32707814375E+02  0.28026899418E+02  0.47787269547E+02  0.19999993174E+02 0.  0.
         12    1    1    2    0    0  0.53212020873E+01  0.32707814375E+02 -0.28026899418E+02  0.43400730453E+02  0.00000000000E+00 0. -1.
         11    1    3    3    0    0 -0.38163162753E+01 -0.22501564184E+01 -0.79510611567E+00  0.45010740737E+01  0.51100000000E-03 0. -1.
        -11    1    3    3    0    0 -0.22263454052E+01 -0.89304857837E+01  0.30445991391E+01  0.96943166017E+01  0.51100000000E-03 0.  1.
        -12    1    3    3    0    0  0.72145959324E+00 -0.21527172173E+02  0.25777406395E+02  0.33591878872E+02  0.00000000000E+00 0.  1.
</event>
<event>
 7    1  0.5417298E-010  0.4778727E+02  0.7816164E-02  0.1312668E+00
        -11   -1    0    0    0    0  0.00000000000E+00  0.00000000000E+00  0.45593999997E+02  0.45594000000E+02  0.51100000000E-03 0. -1.
         11   -1    0    0    0    0 -0.00000000000E+00 -0.00000000000E+00 -0.45593999997E+02  0.45594000000E+02  0.51100000000E-03 0.  1.
    9900012    2    1    2    0    0  0.36597015971E+02  0.23319287707E+02  0.70174154820E+00  0.47787271914E+02  0.20000003966E+02 0.  0.
         12    1    1    2    0    0 -0.36597015971E+02 -0.23319287707E+02 -0.70174154820E+00  0.43400728086E+02  0.00000000000E+00 0. -1.
         11    1    3    3    0    0  0.26164354496E+01  0.47448006879E+01  0.32770983348E+01  0.63323172526E+01  0.51100000000E-03 0. -1.
        -11    1    3    3    0    0  0.57893535822E+01  0.22391684893E+01  0.50388939893E+01  0.79950574307E+01  0.51100000000E-03 0.  1.
        -12    1    3    3    0    0  0.28191226939E+02  0.16335318530E+02 -0.76142507759E+01  0.33459897231E+02  0.00000000000E+00 0.  1.
</event>
<event>
 7    1  0.5417298E-010  0.4778727E+02  0.7816164E-02  0.1312668E+00
        -11   -1    0    0    0    0  0.00000000000E+00  0.00000000000E+00  0.45593999997E+02  0.45594000000E+02  0.51100000000E-03 0.  1.
         11   -1    0    0    0    0 -0.00000000000E+00 -0.00000000000E+00 -0.45593999997E+02  0.45594000000E+02  0.51100000000E-03 0. -1.
    9900012    2    1    2    0    0 -0.33622939636E+01 -0.18137816400E+02  0.39285342390E+02  0.47787268080E+02  0.19999986485E+02 0.  0.
         12    1    1    2    0    0  0.33622939636E+01  0.18137816400E+02 -0.39285342390E+02  0.43400731920E+02  0.00000000000E+00 0. -1.
         11    1    3    3    0    0 -0.84084525773E+01 -0.13344306182E+02  0.27885806252E+02  0.32037334046E+02  0.51100000000E-03 0. -1.
        -11    1    3    3    0    0  0.46328387331E+01 -0.71207393524E+01  0.91782453706E+01  0.12506330877E+02  0.51100000000E-03 0.  1.
        -12    1    3    3    0    0  0.41331988068E+00  0.23272291342E+01  0.22212907680E+01  0.32436031574E+01  0.00000000000E+00 0.  1.
</event>
<event>
 7    1  0.5417298E-010  0.4778727E+02  0.7816164E-02  0.1312668E+00
        -11   -1    0    0    0    0  0.00000000000E+00  0.00000000000E+00  0.45593999997E+02  0.45594000000E+02  0.51100000000E-03 0.  1.
         11   -1    0    0    0    0 -0.00000000000E+00 -0.00000000000E+00 -0.45593999997E+02  0.45594000000E+02  0.51100000000E-03 0. -1.
    9900012    2    1    2    0    0  0.26402028138E+02 -0.92727071306E+01  0.33174886444E+02  0.47787270998E+02  0.19999999789E+02 0.  0.
         12    1    1    2    0    0 -0.26402028138E+02  0.92727071306E+01 -0.33174886444E+02  0.43400729002E+02  0.00000000000E+00 0. -1.
         11    1    3    3    0    0 -0.74832428303E+00  0.22416579686E+01  0.43090881190E+01  0.49145966630E+01  0.51100000000E-03 0. -1.
        -11    1    3    3    0    0 -0.30803803811E+00 -0.11481640557E+01 -0.55807923143E+00  0.13132481949E+01  0.51100000000E-03 0.  1.
        -12    1    3    3    0    0  0.27458390459E+02 -0.10366201043E+02  0.29423877556E+02  0.41559426140E+02  0.00000000000E+00 0.  1.
</event>
<event>
 7    1  0.5417298E-010  0.4778727E+02  0.7816164E-02  0.1312668E+00
        -11   -1    0    0    0    0  0.00000000000E+00  0.00000000000E+00  0.45593999997E+02  0.45594000000E+02  0.51100000000E-03 0. -1.
         11   -1    0    0    0    0 -0.00000000000E+00 -0.00000000000E+00 -0.45593999997E+02  0.45594000000E+02  0.51100000000E-03 0.  1.
    9900012    2    1    2    0    0  0.35114818053E+02 -0.24846152932E+01 -0.25385023879E+02  0.47787271926E+02  0.20000004018E+02 0.  0.
         12    1    1    2    0    0 -0.35114818053E+02  0.24846152932E+01  0.25385023879E+02  0.43400728074E+02  0.00000000000E+00 0. -1.
         11    1    3    3    0    0  0.13633380014E+02 -0.39002957512E+00 -0.45590700150E+01  0.14380761223E+02  0.51100000000E-03 0. -1.
        -11    1    3    3    0    0  0.22115712960E+02 -0.37967487121E+01 -0.21851044812E+02  0.31320731476E+02  0.51100000000E-03 0.  1.
         12    1    3    3    0    0 -0.63427492167E+00  0.17021629941E+01  0.10250909478E+01  0.20857792275E+01  0.00000000000E+00 0. -1.
</event>
<event>
 7    1  0.5417298E-010  0.4778727E+02  0.7816164E-02  0.1312668E+00
        -11   -1    0    0    0    0  0.00000000000E+00  0.00000000000E+00  0.45593999997E+02  0.45594000000E+02  0.51100000000E-03 0.  1.
         11   -1    0    0    0    0 -0.00000000000E+00 -0.00000000000E+00 -0.45593999997E+02  0.45594000000E+02  0.51100000000E-03 0. -1.
    9900012    2    1    2    0    0  0.18339936580E+01 -0.42389595776E+02  0.91313535344E+01  0.47787274428E+02  0.20000015427E+02 0.  0.
         12    1    1    2    0    0 -0.18339936580E+01  0.42389595776E+02 -0.91313535344E+01  0.43400725572E+02  0.00000000000E+00 0. -1.
         11    1    3    3    0    0 -0.54199661929E+01 -0.20572728427E+02  0.50294387695E+01  0.21861117151E+02  0.51100000000E-03 0. -1.
        -11    1    3    3    0    0  0.19501487256E+01 -0.19601136021E+02  0.19727122616E+01  0.19796444309E+02  0.51100000000E-03 0.  1.
         12    1    3    3    0    0  0.53038111253E+01 -0.22157313281E+01  0.21292025032E+01  0.61297129681E+01  0.00000000000E+00 0. -1.
</event>
<event>
 7    1  0.5417298E-010  0.4778726E+02  0.7816164E-02  0.1312668E+00
        -11   -1    0    0    0    0  0.00000000000E+00  0.00000000000E+00  0.45593999997E+02  0.45594000000E+02  0.51100000000E-03 0.  1.
         11   -1    0    0    0    0 -0.00000000000E+00 -0.00000000000E+00 -0.45593999997E+02  0.45594000000E+02  0.51100000000E-03 0. -1.
    9900012    2    1    2    0    0 -0.26834081273E+02  0.10829357766E+02  0.32346265618E+02  0.47787264905E+02  0.19999972007E+02 0.  0.
         12    1    1    2    0    0  0.26834081273E+02 -0.10829357766E+02 -0.32346265618E+02  0.43400735095E+02  0.00000000000E+00 0. -1.
         11    1    3    3    0    0 -0.39701794238E+01 -0.43159501134E+01  0.11805940520E+02  0.13182184260E+02  0.51100000000E-03 0. -1.
        -11    1    3    3    0    0 -0.64772042586E+01  0.19296248422E+01  0.42170824794E+01  0.79662671270E+01  0.51100000000E-03 0.  1.
         12    1    3    3    0    0 -0.16386697591E+02  0.13215683037E+02  0.16323242618E+02  0.26638813518E+02  0.00000000000E+00 0. -1.
</event>
<event>
 7    1  0.5417298E-010  0.4778727E+02  0.7816164E-02  0.1312668E+00
        -11   -1    0    0    0    0  0.00000000000E+00  0.00000000000E+00  0.45593999997E+02  0.45594000000E+02  0.51100000000E-03 0.  1.
         11   -1    0    0    0    0 -0.00000000000E+00 -0.00000000000E+00 -0.45593999997E+02  0.45594000000E+02  0.51100000000E-03 0. -1.
    9900012    2    1    2    0    0  0.10682292255E+02  0.36895762617E+02 -0.20204319806E+02  0.47787271830E+02  0.20000003581E+02 0.  0.
         12    1    1    2    0    0 -0.10682292255E+02 -0.36895762617E+02  0.20204319806E+02  0.43400728170E+02  0.00000000000E+00 0. -1.
         11    1    3    3    0    0  0.51157002662E+01  0.10173073348E+02 -0.17961905765E+00  0.11388330599E+02  0.51100000000E-03 0. -1.
        -11    1    3    3    0    0  0.64724129519E+01  0.10927669320E+02 -0.27895874327E+01  0.13003379733E+02  0.51100000000E-03 0.  1.
         12    1    3    3    0    0 -0.90582096296E+00  0.15795019948E+02 -0.17235113315E+02  0.23395561498E+02  0.00000000000E+00 0. -1.
</event>
<event>
 7    1  0.5417298E-010  0.4778727E+02  0.7816164E-02  0.1312668E+00
        -11   -1    0    0    0    0  0.00000000000E+00  0.00000000000E+00  0.45593999997E+02  0.45594000000E+02  0.51100000000E-03 0. -1.
         11   -1    0    0    0    0 -0.00000000000E+00 -0.00000000000E+00 -0.45593999997E+02  0.45594000000E+02  0.51100000000E-03 0.  1.
    9900012    2    1    2    0    0 -0.40113321686E+02  0.15724854418E+02 -0.52224445540E+01  0.47787267860E+02  0.19999985482E+02 0.  0.
         12    1    1    2    0    0  0.40113321686E+02 -0.15724854418E+02  0.52224445540E+01  0.43400732140E+02  0.00000000000E+00 0. -1.
         11    1    3    3    0    0 -0.30163176372E+01  0.11448733639E+01  0.32221905929E+01  0.45597609132E+01  0.51100000000E-03 0. -1.
        -11    1    3    3    0    0 -0.29451493534E+02  0.63781817641E+01 -0.17867433590E+01  0.30187151672E+02  0.51100000000E-03 0.  1.
        -12    1    3    3    0    0 -0.76455105147E+01  0.82017992904E+01 -0.66578917879E+01  0.13040355275E+02  0.00000000000E+00 0.  1.
</event>
<event>
 7    1  0.5417298E-010  0.4778727E+02  0.7816164E-02  0.1312668E+00
        -11   -1    0    0    0    0  0.00000000000E+00  0.00000000000E+00  0.45593999997E+02  0.45594000000E+02  0.51100000000E-03 0.  1.
         11   -1    0    0    0    0 -0.00000000000E+00 -0.00000000000E+00 -0.45593999997E+02  0.45594000000E+02  0.51100000000E-03 0. -1.
    9900012    2    1    2    0    0 -0.17968376004E+02 -0.83805027265E+01  0.38607357484E+02  0.47787269429E+02  0.19999992635E+02 0.  0.
         12    1    1    2    0    0  0.17968376004E+02  0.83805027265E+01 -0.38607357484E+02  0.43400730571E+02  0.00000000000E+00 0. -1.
         11    1    3    3    0    0 -0.51528937275E+00  0.10315236154E+00  0.80037692954E+01  0.80210028514E+01  0.51100000000E-03 0. -1.
        -11    1    3    3    0    0 -0.34376681276E+01 -0.92916082317E+01  0.64267866368E+01  0.11809112262E+02  0.51100000000E-03 0.  1.
        -12    1    3    3    0    0 -0.14015418504E+02  0.80795314365E+00  0.24176801552E+02  0.27957154315E+02  0.00000000000E+00 0.  1.
</event>
<event>
 7    1  0.5417298E-010  0.4778728E+02  0.7816164E-02  0.1312668E+00
        -11   -1    0    0    0    0  0.00000000000E+00  0.00000000000E+00  0.45593999997E+02  0.45594000000E+02  0.51100000000E-03 0.  1.
         11   -1    0    0    0    0 -0.00000000000E+00 -0.00000000000E+00 -0.45593999997E+02  0.45594000000E+02  0.51100000000E-03 0. -1.
    9900012    2    1    2    0    0  0.18654359142E+02 -0.33938141906E+02  0.19591838953E+02  0.47787277142E+02  0.20000027800E+02 0.  0.
         12    1    1    2    0    0 -0.18654359142E+02  0.33938141906E+02 -0.19591838953E+02  0.43400722858E+02  0.00000000000E+00 0. -1.
         11    1    3    3    0    0  0.69523027419E+01 -0.13625828129E+02  0.25938254591E+01  0.15515335523E+02  0.51100000000E-03 0. -1.
        -11    1    3    3    0    0  0.11024506296E+02 -0.21880612934E+02  0.12594299973E+02  0.27548454648E+02  0.51100000000E-03 0.  1.
         12    1    3    3    0    0  0.67755010475E+00  0.15682991569E+01  0.44037135203E+01  0.47234869703E+01  0.00000000000E+00 0. -1.
</event>
<event>
 7    1  0.5417298E-010  0.4778727E+02  0.7816164E-02  0.1312668E+00
        -11   -1    0    0    0    0  0.00000000000E+00  0.00000000000E+00  0.45593999997E+02  0.45594000000E+02  0.51100000000E-03 0. -1.
         11   -1    0    0    0    0 -0.00000000000E+00 -0.00000000000E+00 -0.45593999997E+02  0.45594000000E+02  0.51100000000E-03 0.  1.
    9900012    2    1    2    0    0  0.13791707487E+02 -0.25364618520E+02 -0.32404444782E+02  0.47787272936E+02  0.20000008625E+02 0.  0.
         12    1    1    2    0    0 -0.13791707487E+02  0.25364618520E+02  0.32404444782E+02  0.43400727064E+02  0.00000000000E+00 0. -1.
         11    1    3    3    0    0  0.14932297200E+02 -0.16021189740E+02 -0.25410457917E+02  0.33546138261E+02  0.51100000000E-03 0. -1.
        -11    1    3    3    0    0 -0.19889666580E+01 -0.13758225517E+01 -0.56110062862E+01  0.61100137369E+01  0.51100000000E-03 0.  1.
        -12    1    3    3    0    0  0.84837694463E+00 -0.79676062275E+01 -0.13829805787E+01  0.81311209386E+01  0.00000000000E+00 0.  1.
</event>
<event>
 7    1  0.5417298E-010  0.4778727E+02  0.7816164E-02  0.1312668E+00
        -11   -1    0    0    0    0  0.00000000000E+00  0.00000000000E+00  0.45593999997E+02  0.45594000000E+02  0.51100000000E-03 0. -1.
         11   -1    0    0    0    0 -0.00000000000E+00 -0.00000000000E+00 -0.45593999997E+02  0.45594000000E+02  0.51100000000E-03 0.  1.
    9900012    2    1    2    0    0 -0.28444057851E+02 -0.82309438623E+00 -0.32770125415E+02  0.47787273841E+02  0.20000012751E+02 0.  0.
         12    1    1    2    0    0  0.28444057851E+02  0.82309438623E+00  0.32770125415E+02  0.43400726159E+02  0.00000000000E+00 0. -1.
         11    1    3    3    0    0 -0.21683059967E+02  0.67089501847E+01 -0.24758751236E+02  0.33588106007E+02  0.51100000000E-03 0. -1.
        -11    1    3    3    0    0 -0.34868081441E+01 -0.12092499594E+01 -0.55508955897E+01  0.66657751693E+01  0.51100000000E-03 0.  1.
         12    1    3    3    0    0 -0.32741897400E+01 -0.63227946115E+01 -0.24604785887E+01  0.75333926645E+01  0.00000000000E+00 0. -1.
</event>
<event>
 7    1  0.5417298E-010  0.4778727E+02  0.7816164E-02  0.1312668E+00
        -11   -1    0    0    0    0  0.00000000000E+00  0.00000000000E+00  0.45593999997E+02  0.45594000000E+02  0.51100000000E-03 0.  1.
         11   -1    0    0    0    0 -0.00000000000E+00 -0.00000000000E+00 -0.45593999997E+02  0.45594000000E+02  0.51100000000E-03 0. -1.
    9900012    2    1    2    0    0  0.11031212782E+02  0.38538198122E+02  0.16635583268E+02  0.47787274193E+02  0.20000014356E+02 0.  0.
         12    1    1    2    0    0 -0.11031212782E+02 -0.38538198122E+02 -0.16635583268E+02  0.43400725807E+02  0.00000000000E+00 0. -1.
         11    1    3    3    0    0  0.46597434889E+01  0.24068646319E+02  0.97389393722E+01  0.26379156267E+02  0.51100000000E-03 0.  1.
        -11    1    3    3    0    0  0.68019340192E+01  0.12612586889E+02  0.10203401830E+02  0.17591278055E+02  0.51100000000E-03 0. -1.
        -12    1    3    3    0    0 -0.43046472652E+00  0.18569649141E+01 -0.33067579338E+01  0.38168398716E+01  0.00000000000E+00 0.  1.
</event>
<event>
 7    1  0.5417298E-010  0.4778727E+02  0.7816164E-02  0.1312668E+00
        -11   -1    0    0    0    0  0.00000000000E+00  0.00000000000E+00  0.45593999997E+02  0.45594000000E+02  0.51100000000E-03 0. -1.
         11   -1    0    0    0    0 -0.00000000000E+00 -0.00000000000E+00 -0.45593999997E+02  0.45594000000E+02  0.51100000000E-03 0.  1.
    9900012    2    1    2    0    0 -0.15489405264E+02 -0.56654535939E+01 -0.40144788736E+02  0.47787273019E+02  0.20000009002E+02 0.  0.
         12    1    1    2    0    0  0.15489405264E+02  0.56654535939E+01  0.40144788736E+02  0.43400726981E+02  0.00000000000E+00 0. -1.
         11    1    3    3    0    0  0.56972755434E+00  0.10395946741E+01 -0.57462111576E+01  0.58672216169E+01  0.51100000000E-03 0. -1.
        -11    1    3    3    0    0 -0.23783254031E+01 -0.73876703425E+01 -0.43509186542E+01  0.88974489720E+01  0.51100000000E-03 0.  1.
        -12    1    3    3    0    0 -0.13680807415E+02  0.68262207446E+00 -0.30047658924E+02  0.33022602430E+02  0.00000000000E+00 0.  1.
</event>
<event>
 7    1  0.5417298E-010  0.4778727E+02  0.7816164E-02  0.1312668E+00
        -11   -1    0    0    0    0  0.00000000000E+00  0.00000000000E+00  0.45593999997E+02  0.45594000000E+02  0.51100000000E-03 0. -1.
         11   -1    0    0    0    0 -0.00000000000E+00 -0.00000000000E+00 -0.45593999997E+02  0.45594000000E+02  0.51100000000E-03 0.  1.
    9900012    2    1    2    0    0  0.16154460438E+02  0.33630972055E+02 -0.22172381522E+02  0.47787269871E+02  0.19999994649E+02 0.  0.
         12    1    1    2    0    0 -0.16154460438E+02 -0.33630972055E+02  0.22172381522E+02  0.43400730129E+02  0.00000000000E+00 0. -1.
         11    1    3    3    0    0  0.45799708741E+01  0.16924522602E+02 -0.14610167074E+02  0.22822633080E+02  0.51100000000E-03 0.  1.
        -11    1    3    3    0    0  0.11866256803E+02  0.11112065673E+02 -0.97432841377E+01  0.18953037753E+02  0.51100000000E-03 0. -1.
         12    1    3    3    0    0 -0.29176723855E+00  0.55943837795E+01  0.21810696899E+01  0.60115990373E+01  0.00000000000E+00 0. -1.
</event>
<event>
 7    1  0.5417298E-010  0.4778727E+02  0.7816164E-02  0.1312668E+00
        -11   -1    0    0    0    0  0.00000000000E+00  0.00000000000E+00  0.45593999997E+02  0.45594000000E+02  0.51100000000E-03 0.  1.
         11   -1    0    0    0    0 -0.00000000000E+00 -0.00000000000E+00 -0.45593999997E+02  0.45594000000E+02  0.51100000000E-03 0. -1.
    9900012    2    1    2    0    0 -0.21511020304E+02 -0.34236320411E+02  0.15772562366E+02  0.47787270128E+02  0.19999995822E+02 0.  0.
         12    1    1    2    0    0  0.21511020304E+02  0.34236320411E+02 -0.15772562366E+02  0.43400729872E+02  0.00000000000E+00 0. -1.
         11    1    3    3    0    0 -0.29307627440E+01 -0.28210002391E-01 -0.64952044689E+00  0.30020065186E+01  0.51100000000E-03 0. -1.
        -11    1    3    3    0    0 -0.12641236589E+02 -0.20646834875E+02  0.22884913202E+01  0.24317274634E+02  0.51100000000E-03 0.  1.
        -12    1    3    3    0    0 -0.59390209708E+01 -0.13561275534E+02  0.14133591493E+02  0.20467988975E+02  0.00000000000E+00 0.  1.
</event>
<event>
 7    1  0.5417298E-010  0.4778727E+02  0.7816164E-02  0.1312668E+00
        -11   -1    0    0    0    0  0.00000000000E+00  0.00000000000E+00  0.45593999997E+02  0.45594000000E+02  0.51100000000E-03 0.  1.
         11   -1    0    0    0    0 -0.00000000000E+00 -0.00000000000E+00 -0.45593999997E+02  0.45594000000E+02  0.51100000000E-03 0. -1.
    9900012    2    1    2    0    0 -0.22847136328E+02  0.15701061785E+01  0.36866874239E+02  0.47787270882E+02  0.19999999260E+02 0.  0.
         12    1    1    2    0    0  0.22847136328E+02 -0.15701061785E+01 -0.36866874239E+02  0.43400729118E+02  0.00000000000E+00 0. -1.
         11    1    3    3    0    0 -0.91251370742E+01 -0.58327465354E+01  0.62155880860E+01  0.12486896904E+02  0.51100000000E-03 0. -1.
        -11    1    3    3    0    0 -0.89409578362E+01  0.21177446012E+01  0.23371661255E+02  0.25112947244E+02  0.51100000000E-03 0.  1.
        -12    1    3    3    0    0 -0.47810414179E+01  0.52851081127E+01  0.72796248981E+01  0.10187426734E+02  0.00000000000E+00 0.  1.
</event>
<event>
 7    1  0.5417298E-010  0.4778727E+02  0.7816164E-02  0.1312668E+00
        -11   -1    0    0    0    0  0.00000000000E+00  0.00000000000E+00  0.45593999997E+02  0.45594000000E+02  0.51100000000E-03 0. -1.
         11   -1    0    0    0    0 -0.00000000000E+00 -0.00000000000E+00 -0.45593999997E+02  0.45594000000E+02  0.51100000000E-03 0.  1.
    9900012    2    1    2    0    0 -0.23602988667E+02 -0.56235800087E+01 -0.35984684650E+02  0.47787271257E+02  0.20000000967E+02 0.  0.
         12    1    1    2    0    0  0.23602988667E+02  0.56235800087E+01  0.35984684650E+02  0.43400728743E+02  0.00000000000E+00 0. -1.
         11    1    3    3    0    0 -0.14651731749E+02 -0.42715103551E+01 -0.17719601521E+02  0.23385964215E+02  0.51100000000E-03 0. -1.
        -11    1    3    3    0    0 -0.83844488211E+01 -0.37216848782E+01 -0.19587464430E+02  0.21629116566E+02  0.51100000000E-03 0.  1.
         12    1    3    3    0    0 -0.56680809653E+00  0.23696152246E+01  0.13223813003E+01  0.27721904758E+01  0.00000000000E+00 0. -1.
</event>
<event>
 7    1  0.5417298E-010  0.4778727E+02  0.7816164E-02  0.1312668E+00
        -11   -1    0    0    0    0  0.00000000000E+00  0.00000000000E+00  0.45593999997E+02  0.45594000000E+02  0.51100000000E-03 0. -1.
         11   -1    0    0    0    0 -0.00000000000E+00 -0.00000000000E+00 -0.45593999997E+02  0.45594000000E+02  0.51100000000E-03 0.  1.
    9900012    2    1    2    0    0  0.22320785185E+02  0.34471416198E+02 -0.14040201795E+02  0.47787271292E+02  0.20000001127E+02 0.  0.
         12    1    1    2    0    0 -0.22320785185E+02 -0.34471416198E+02  0.14040201795E+02  0.43400728708E+02  0.00000000000E+00 0. -1.
         11    1    3    3    0    0  0.17286102927E+02  0.26424184372E+02 -0.15194151425E+02  0.35041534098E+02  0.51100000000E-03 0.  1.
        -11    1    3    3    0    0  0.20838889321E+01 -0.26321214182E+00 -0.24428287770E+01  0.32216899925E+01  0.51100000000E-03 0. -1.
         12    1    3    3    0    0  0.29507933260E+01  0.83104439674E+01  0.35967784066E+01  0.95240472013E+01  0.00000000000E+00 0. -1.
</event>
<event>
 7    1  0.5417298E-010  0.4778728E+02  0.7816164E-02  0.1312668E+00
        -11   -1    0    0    0    0  0.00000000000E+00  0.00000000000E+00  0.45593999997E+02  0.45594000000E+02  0.51100000000E-03 0. -1.
         11   -1    0    0    0    0 -0.00000000000E+00 -0.00000000000E+00 -0.45593999997E+02  0.45594000000E+02  0.51100000000E-03 0.  1.
    9900012    2    1    2    0    0  0.86472183822E+01  0.39649720393E+02 -0.15386614421E+02  0.47787278620E+02  0.20000034538E+02 0.  0.
         12    1    1    2    0    0 -0.86472183822E+01 -0.39649720393E+02  0.15386614421E+02  0.43400721380E+02  0.00000000000E+00 0. -1.
         11    1    3    3    0    0  0.36965048452E+01  0.19649629253E+02 -0.10117215296E+02  0.22408260161E+02  0.51100000000E-03 0. -1.
        -11    1    3    3    0    0  0.89130136394E+01  0.14984359843E+02 -0.69512769784E+01  0.18769472660E+02  0.51100000000E-03 0.  1.
         12    1    3    3    0    0 -0.39623001025E+01  0.50157312973E+01  0.16818778536E+01  0.66095457985E+01  0.00000000000E+00 0. -1.
</event>
<event>
 7    1  0.5417298E-010  0.4778729E+02  0.7816164E-02  0.1312668E+00
        -11   -1    0    0    0    0  0.00000000000E+00  0.00000000000E+00  0.45593999997E+02  0.45594000000E+02  0.51100000000E-03 0.  1.
         11   -1    0    0    0    0 -0.00000000000E+00 -0.00000000000E+00 -0.45593999997E+02  0.45594000000E+02  0.51100000000E-03 0. -1.
    9900012    2    1    2    0    0  0.27380487616E+02 -0.22157756967E+02  0.25356739237E+02  0.47787291243E+02  0.20000092092E+02 0.  0.
         12    1    1    2    0    0 -0.27380487616E+02  0.22157756967E+02 -0.25356739237E+02  0.43400708757E+02  0.00000000000E+00 0. -1.
         11    1    3    3    0    0  0.15877449479E+01 -0.80146807497E+01  0.71730264288E+01  0.10872366345E+02  0.51100000000E-03 0. -1.
        -11    1    3    3    0    0  0.17420414372E+02 -0.23967480955E+01  0.11545955933E+02  0.21036262430E+02  0.51100000000E-03 0.  1.
         12    1    3    3    0    0  0.83723282958E+01 -0.11746328122E+02  0.66377568747E+01  0.15878662468E+02  0.00000000000E+00 0. -1.
</event>
<event>
 7    1  0.5417298E-010  0.4778727E+02  0.7816164E-02  0.1312668E+00
        -11   -1    0    0    0    0  0.00000000000E+00  0.00000000000E+00  0.45593999997E+02  0.45594000000E+02  0.51100000000E-03 0.  1.
         11   -1    0    0    0    0 -0.00000000000E+00 -0.00000000000E+00 -0.45593999997E+02  0.45594000000E+02  0.51100000000E-03 0. -1.
    9900012    2    1    2    0    0 -0.71544076809E+01  0.31394920951E+02  0.29099771655E+02  0.47787270500E+02  0.19999997516E+02 0.  0.
         12    1    1    2    0    0  0.71544076809E+01 -0.31394920951E+02 -0.29099771655E+02  0.43400729500E+02  0.00000000000E+00 0. -1.
         11    1    3    3    0    0 -0.14347836575E+01  0.56353171222E+01  0.13093390927E+02  0.14326628684E+02  0.51100000000E-03 0. -1.
        -11    1    3    3    0    0  0.20354965414E+01  0.55444795357E+00  0.39200025429E+01  0.44516377773E+01  0.51100000000E-03 0.  1.
        -12    1    3    3    0    0 -0.77551205648E+01  0.25205155875E+02  0.12086378185E+02  0.29009004038E+02  0.00000000000E+00 0.  1.
</event>
<event>
 7    1  0.5417298E-010  0.4778728E+02  0.7816164E-02  0.1312668E+00
        -11   -1    0    0    0    0  0.00000000000E+00  0.00000000000E+00  0.45593999997E+02  0.45594000000E+02  0.51100000000E-03 0.  1.
         11   -1    0    0    0    0 -0.00000000000E+00 -0.00000000000E+00 -0.45593999997E+02  0.45594000000E+02  0.51100000000E-03 0. -1.
    9900012    2    1    2    0    0 -0.56660860114E+01 -0.22963416433E+02  0.36389557560E+02  0.47787275071E+02  0.20000018360E+02 0.  0.
         12    1    1    2    0    0  0.56660860114E+01  0.22963416433E+02 -0.36389557560E+02  0.43400724929E+02  0.00000000000E+00 0. -1.
         11    1    3    3    0    0 -0.12418407768E+01  0.24745971474E+01  0.17815656180E+01  0.32923814891E+01  0.51100000000E-03 0. -1.
        -11    1    3    3    0    0  0.60695238718E+00  0.91389481180E+00  0.93575476453E+00  0.14419542877E+01  0.51100000000E-03 0.  1.
        -12    1    3    3    0    0 -0.50311976218E+01 -0.26351908392E+02  0.33672237177E+02  0.43052939295E+02  0.00000000000E+00 0.  1.
</event>
<event>
 7    1  0.5417298E-010  0.4778727E+02  0.7816164E-02  0.1312668E+00
        -11   -1    0    0    0    0  0.00000000000E+00  0.00000000000E+00  0.45593999997E+02  0.45594000000E+02  0.51100000000E-03 0. -1.
         11   -1    0    0    0    0 -0.00000000000E+00 -0.00000000000E+00 -0.45593999997E+02  0.45594000000E+02  0.51100000000E-03 0.  1.
    9900012    2    1    2    0    0  0.15600032357E+02 -0.37848744314E+02 -0.14413008377E+02  0.47787271134E+02  0.20000000408E+02 0.  0.
         12    1    1    2    0    0 -0.15600032357E+02  0.37848744314E+02  0.14413008377E+02  0.43400728866E+02  0.00000000000E+00 0. -1.
         11    1    3    3    0    0  0.23113524640E+01 -0.16916029554E+01 -0.80875305464E+00  0.29762312639E+01  0.51100000000E-03 0. -1.
        -11    1    3    3    0    0  0.17624585601E+02 -0.32697585441E+02 -0.12042459608E+02  0.39048417957E+02  0.51100000000E-03 0.  1.
         12    1    3    3    0    0 -0.43359057084E+01 -0.34595559168E+01 -0.15617957142E+01  0.57626219125E+01  0.00000000000E+00 0. -1.
</event>
<event>
 7    1  0.5417298E-010  0.4778728E+02  0.7816164E-02  0.1312668E+00
        -11   -1    0    0    0    0  0.00000000000E+00  0.00000000000E+00  0.45593999997E+02  0.45594000000E+02  0.51100000000E-03 0.  1.
         11   -1    0    0    0    0 -0.00000000000E+00 -0.00000000000E+00 -0.45593999997E+02  0.45594000000E+02  0.51100000000E-03 0. -1.
    9900012    2    1    2    0    0 -0.27098007111E+02  0.26392908200E+02  0.21277568823E+02  0.47787279641E+02  0.20000039197E+02 0.  0.
         12    1    1    2    0    0  0.27098007111E+02 -0.26392908200E+02 -0.21277568823E+02  0.43400720359E+02  0.00000000000E+00 0. -1.
         11    1    3    3    0    0 -0.11657257354E+02  0.18276141591E+02  0.90289217721E+01  0.23482555847E+02  0.51100000000E-03 0. -1.
        -11    1    3    3    0    0 -0.94650389565E+01  0.10533409387E+02  0.10489922009E+02  0.17623227281E+02  0.51100000000E-03 0.  1.
         12    1    3    3    0    0 -0.59757108008E+01 -0.24166427784E+01  0.17587250413E+01  0.66814965139E+01  0.00000000000E+00 0. -1.
</event>
<event>
 7    1  0.5417298E-010  0.4778727E+02  0.7816164E-02  0.1312668E+00
        -11   -1    0    0    0    0  0.00000000000E+00  0.00000000000E+00  0.45593999997E+02  0.45594000000E+02  0.51100000000E-03 0. -1.
         11   -1    0    0    0    0 -0.00000000000E+00 -0.00000000000E+00 -0.45593999997E+02  0.45594000000E+02  0.51100000000E-03 0.  1.
    9900012    2    1    2    0    0  0.12564995002E+02 -0.40982686513E+02 -0.67943791239E+01  0.47787270963E+02  0.19999999629E+02 0.  0.
         12    1    1    2    0    0 -0.12564995002E+02  0.40982686513E+02  0.67943791239E+01  0.43400729037E+02  0.00000000000E+00 0. -1.
         11    1    3    3    0    0  0.10855346372E+02 -0.16138110821E+02 -0.16100891669E+01  0.19515879512E+02  0.51100000000E-03 0.  1.
        -11    1    3    3    0    0  0.63738838068E+01 -0.77981361394E+01 -0.26776736257E+01  0.10421480621E+02  0.51100000000E-03 0. -1.
        -12    1    3    3    0    0 -0.46642351768E+01 -0.17046439553E+02 -0.25066163313E+01  0.17849910830E+02  0.00000000000E+00 0.  1.
</event>
<event>
 7    1  0.5417298E-010  0.4778727E+02  0.7816164E-02  0.1312668E+00
        -11   -1    0    0    0    0  0.00000000000E+00  0.00000000000E+00  0.45593999997E+02  0.45594000000E+02  0.51100000000E-03 0.  1.
         11   -1    0    0    0    0 -0.00000000000E+00 -0.00000000000E+00 -0.45593999997E+02  0.45594000000E+02  0.51100000000E-03 0. -1.
    9900012    2    1    2    0    0  0.19179359922E+02 -0.23963587956E+02  0.30684229894E+02  0.47787270064E+02  0.19999995532E+02 0.  0.
         12    1    1    2    0    0 -0.19179359922E+02  0.23963587956E+02 -0.30684229894E+02  0.43400729936E+02  0.00000000000E+00 0. -1.
         11    1    3    3    0    0  0.13164767441E+02 -0.15192583531E+02  0.16547808338E+02  0.26037581630E+02  0.51100000000E-03 0. -1.
        -11    1    3    3    0    0  0.94221585025E+01 -0.77063041468E+01  0.77407618879E+01  0.14425102749E+02  0.51100000000E-03 0.  1.
         12    1    3    3    0    0 -0.34075660208E+01 -0.10647002784E+01  0.63956596680E+01  0.73245856851E+01  0.00000000000E+00 0. -1.
</event>
<event>
 7    1  0.5417298E-010  0.4778727E+02  0.7816164E-02  0.1312668E+00
        -11   -1    0    0    0    0  0.00000000000E+00  0.00000000000E+00  0.45593999997E+02  0.45594000000E+02  0.51100000000E-03 0.  1.
         11   -1    0    0    0    0 -0.00000000000E+00 -0.00000000000E+00 -0.45593999997E+02  0.45594000000E+02  0.51100000000E-03 0. -1.
    9900012    2    1    2    0    0 -0.23525546428E+02  0.12247527854E+02  0.34353604093E+02  0.47787269736E+02  0.19999994032E+02 0.  0.
         12    1    1    2    0    0  0.23525546428E+02 -0.12247527854E+02 -0.34353604093E+02  0.43400730264E+02  0.00000000000E+00 0. -1.
         11    1    3    3    0    0 -0.13926894292E+02  0.11012668919E+02  0.21691676889E+02  0.28031519900E+02  0.51100000000E-03 0. -1.
        -11    1    3    3    0    0 -0.67203215651E+01  0.55439622407E+01  0.11530502007E+02  0.14451668279E+02  0.51100000000E-03 0.  1.
         12    1    3    3    0    0 -0.28783305713E+01 -0.43091033064E+01  0.11314251974E+01  0.53040815567E+01  0.00000000000E+00 0. -1.
</event>
<event>
 7    1  0.5417298E-010  0.4778727E+02  0.7816164E-02  0.1312668E+00
        -11   -1    0    0    0    0  0.00000000000E+00  0.00000000000E+00  0.45593999997E+02  0.45594000000E+02  0.51100000000E-03 0.  1.
         11   -1    0    0    0    0 -0.00000000000E+00 -0.00000000000E+00 -0.45593999997E+02  0.45594000000E+02  0.51100000000E-03 0. -1.
    9900012    2    1    2    0    0  0.19064157501E+02 -0.33638639740E+02  0.19713527634E+02  0.47787270091E+02  0.19999995655E+02 0.  0.
         12    1    1    2    0    0 -0.19064157501E+02  0.33638639740E+02 -0.19713527634E+02  0.43400729909E+02  0.00000000000E+00 0. -1.
         11    1    3    3    0    0  0.49222260771E+01 -0.28499443182E+01  0.18339595629E+01  0.59761107846E+01  0.51100000000E-03 0. -1.
        -11    1    3    3    0    0  0.11888740486E+02 -0.25663752049E+02  0.21159495694E+02  0.35322720420E+02  0.51100000000E-03 0.  1.
         12    1    3    3    0    0  0.22531909380E+01 -0.51249433735E+01 -0.32799276224E+01  0.64884388872E+01  0.00000000000E+00 0. -1.
</event>
<event>
 7    1  0.5417298E-010  0.4778727E+02  0.7816164E-02  0.1312668E+00
        -11   -1    0    0    0    0  0.00000000000E+00  0.00000000000E+00  0.45593999997E+02  0.45594000000E+02  0.51100000000E-03 0. -1.
         11   -1    0    0    0    0 -0.00000000000E+00 -0.00000000000E+00 -0.45593999997E+02  0.45594000000E+02  0.51100000000E-03 0.  1.
    9900012    2    1    2    0    0 -0.22990734796E+02  0.36426109678E+02  0.53092208695E+01  0.47787272137E+02  0.20000004984E+02 0.  0.
         12    1    1    2    0    0  0.22990734796E+02 -0.36426109678E+02 -0.53092208695E+01  0.43400727863E+02  0.00000000000E+00 0. -1.
         11    1    3    3    0    0 -0.59597373396E+01  0.31690319835E+01  0.10178949949E+01  0.68262246778E+01  0.51100000000E-03 0. -1.
        -11    1    3    3    0    0  0.89821564854E+00  0.72848425917E+01  0.58154669983E+01  0.93645811229E+01  0.51100000000E-03 0.  1.
        -12    1    3    3    0    0 -0.17929213105E+02  0.25972235103E+02 -0.15241411237E+01  0.31596466337E+02  0.00000000000E+00 0.  1.
</event>
<event>
 7    1  0.5417298E-010  0.4778726E+02  0.7816164E-02  0.1312668E+00
        -11   -1    0    0    0    0  0.00000000000E+00  0.00000000000E+00  0.45593999997E+02  0.45594000000E+02  0.51100000000E-03 0. -1.
         11   -1    0    0    0    0 -0.00000000000E+00 -0.00000000000E+00 -0.45593999997E+02  0.45594000000E+02  0.51100000000E-03 0.  1.
    9900012    2    1    2    0    0  0.18515422504E+02  0.31593742687E+02 -0.23294604977E+02  0.47787261890E+02  0.19999958261E+02 0.  0.
         12    1    1    2    0    0 -0.18515422504E+02 -0.31593742687E+02  0.23294604977E+02  0.43400738110E+02  0.00000000000E+00 0. -1.
         11    1    3    3    0    0 -0.67043616757E+00  0.63499636570E+01 -0.36018403625E+01  0.73310829594E+01  0.51100000000E-03 0. -1.
        -11    1    3    3    0    0  0.74933117304E+01  0.20747863716E+02 -0.16445405535E+02  0.27514994693E+02  0.51100000000E-03 0.  1.
        -12    1    3    3    0    0  0.11692546941E+02  0.44959153137E+01 -0.32473590794E+01  0.12941184237E+02  0.00000000000E+00 0.  1.
</event>
<event>
 7    1  0.5417298E-010  0.4778728E+02  0.7816164E-02  0.1312668E+00
        -11   -1    0    0    0    0  0.00000000000E+00  0.00000000000E+00  0.45593999997E+02  0.45594000000E+02  0.51100000000E-03 0.  1.
         11   -1    0    0    0    0 -0.00000000000E+00 -0.00000000000E+00 -0.45593999997E+02  0.45594000000E+02  0.51100000000E-03 0. -1.
    9900012    2    1    2    0    0  0.93121453854E+00 -0.20879156088E+02  0.38037041026E+02  0.47787276395E+02  0.20000024394E+02 0.  0.
         12    1    1    2    0    0 -0.93121453854E+00  0.20879156088E+02 -0.38037041026E+02  0.43400723605E+02  0.00000000000E+00 0. -1.
         11    1    3    3    0    0 -0.70837412897E+00 -0.33578534712E+01  0.55998254894E+01  0.65677256043E+01  0.51100000000E-03 0. -1.
        -11    1    3    3    0    0 -0.78535178022E+01 -0.11445304291E+02  0.14819393410E+02  0.20304855417E+02  0.51100000000E-03 0.  1.
         12    1    3    3    0    0  0.94931064697E+01 -0.60759983261E+01  0.17617822126E+02  0.20914695374E+02  0.00000000000E+00 0. -1.
</event>
<event>
 7    1  0.5417298E-010  0.4778727E+02  0.7816164E-02  0.1312668E+00
        -11   -1    0    0    0    0  0.00000000000E+00  0.00000000000E+00  0.45593999997E+02  0.45594000000E+02  0.51100000000E-03 0.  1.
         11   -1    0    0    0    0 -0.00000000000E+00 -0.00000000000E+00 -0.45593999997E+02  0.45594000000E+02  0.51100000000E-03 0. -1.
    9900012    2    1    2    0    0 -0.36799597892E+01 -0.40642251523E+02  0.14774599003E+02  0.47787268571E+02  0.19999988722E+02 0.  0.
         12    1    1    2    0    0  0.36799597892E+01  0.40642251523E+02 -0.14774599003E+02  0.43400731429E+02  0.00000000000E+00 0. -1.
         11    1    3    3    0    0  0.14638501124E+01 -0.10183488176E+02 -0.32249898692E+01  0.10781783178E+02  0.51100000000E-03 0. -1.
        -11    1    3    3    0    0  0.30044359243E+00 -0.77715911068E+00 -0.10337106063E+01  0.13277049801E+01  0.51100000000E-03 0.  1.
        -12    1    3    3    0    0 -0.54442534940E+01 -0.29681604236E+02  0.19033299478E+02  0.35677780413E+02  0.00000000000E+00 0.  1.
</event>
<event>
 7    1  0.5417298E-010  0.4778728E+02  0.7816164E-02  0.1312668E+00
        -11   -1    0    0    0    0  0.00000000000E+00  0.00000000000E+00  0.45593999997E+02  0.45594000000E+02  0.51100000000E-03 0. -1.
         11   -1    0    0    0    0 -0.00000000000E+00 -0.00000000000E+00 -0.45593999997E+02  0.45594000000E+02  0.51100000000E-03 0.  1.
    9900012    2    1    2    0    0  0.36889994620E+02  0.11669632995E+02 -0.19661397682E+02  0.47787278853E+02  0.20000035601E+02 0.  0.
         12    1    1    2    0    0 -0.36889994620E+02 -0.11669632995E+02  0.19661397682E+02  0.43400721147E+02  0.00000000000E+00 0. -1.
         11    1    3    3    0    0  0.29193947450E+01  0.41600419892E+01 -0.47122895099E+00  0.51040054872E+01  0.51100000000E-03 0. -1.
        -11    1    3    3    0    0  0.20354053296E+02  0.65187164737E+01 -0.19636161651E+02  0.29023438712E+02  0.51100000000E-03 0.  1.
        -12    1    3    3    0    0  0.13616546579E+02  0.99087453258E+00  0.44599291969E+00  0.13659834654E+02  0.00000000000E+00 0.  1.
</event>
<event>
 7    1  0.5417298E-010  0.4778727E+02  0.7816164E-02  0.1312668E+00
        -11   -1    0    0    0    0  0.00000000000E+00  0.00000000000E+00  0.45593999997E+02  0.45594000000E+02  0.51100000000E-03 0.  1.
         11   -1    0    0    0    0 -0.00000000000E+00 -0.00000000000E+00 -0.45593999997E+02  0.45594000000E+02  0.51100000000E-03 0. -1.
    9900012    2    1    2    0    0 -0.15804839772E+02  0.73426696629E+01  0.39748151624E+02  0.47787270565E+02  0.19999997814E+02 0.  0.
         12    1    1    2    0    0  0.15804839772E+02 -0.73426696629E+01 -0.39748151624E+02  0.43400729435E+02  0.00000000000E+00 0. -1.
         11    1    3    3    0    0 -0.17776406948E+01  0.23623761702E+01  0.12616373765E+02  0.12958152447E+02  0.51100000000E-03 0. -1.
        -11    1    3    3    0    0 -0.93224074512E+01  0.74960217086E+01  0.26955983421E+02  0.29491060757E+02  0.51100000000E-03 0.  1.
         12    1    3    3    0    0 -0.47047916258E+01 -0.25157282159E+01  0.17579443772E+00  0.53380573604E+01  0.00000000000E+00 0. -1.
</event>
<event>
 7    1  0.5417298E-010  0.4778727E+02  0.7816164E-02  0.1312668E+00
        -11   -1    0    0    0    0  0.00000000000E+00  0.00000000000E+00  0.45593999997E+02  0.45594000000E+02  0.51100000000E-03 0. -1.
         11   -1    0    0    0    0 -0.00000000000E+00 -0.00000000000E+00 -0.45593999997E+02  0.45594000000E+02  0.51100000000E-03 0.  1.
    9900012    2    1    2    0    0 -0.59359417689E+01  0.36634463630E+02 -0.22501192249E+02  0.47787274398E+02  0.20000015292E+02 0.  0.
         12    1    1    2    0    0  0.59359417689E+01 -0.36634463630E+02  0.22501192249E+02  0.43400725602E+02  0.00000000000E+00 0. -1.
         11    1    3    3    0    0  0.12439505159E+00  0.54927334278E+01 -0.40579644862E+01  0.68302760317E+01  0.51100000000E-03 0. -1.
        -11    1    3    3    0    0 -0.83805510733E+01  0.31966828655E+02 -0.19393614536E+02  0.38317411911E+02  0.51100000000E-03 0.  1.
         12    1    3    3    0    0  0.23202142528E+01 -0.82509845324E+00  0.95038677302E+00  0.26395864552E+01  0.00000000000E+00 0. -1.
</event>
<event>
 7    1  0.5417298E-010  0.4778728E+02  0.7816164E-02  0.1312668E+00
        -11   -1    0    0    0    0  0.00000000000E+00  0.00000000000E+00  0.45593999997E+02  0.45594000000E+02  0.51100000000E-03 0.  1.
         11   -1    0    0    0    0 -0.00000000000E+00 -0.00000000000E+00 -0.45593999997E+02  0.45594000000E+02  0.51100000000E-03 0. -1.
    9900012    2    1    2    0    0 -0.40806218816E+02  0.84939988557E+01 -0.12096559844E+02  0.47787282602E+02  0.20000052696E+02 0.  0.
         12    1    1    2    0    0  0.40806218816E+02 -0.84939988557E+01  0.12096559844E+02  0.43400717398E+02  0.00000000000E+00 0. -1.
         11    1    3    3    0    0 -0.29995664074E+02  0.46039507534E+01 -0.87988847416E+01  0.31596781461E+02  0.51100000000E-03 0. -1.
        -11    1    3    3    0    0 -0.99617961234E+01  0.45585985108E+01  0.16920142228E+01  0.11085175451E+02  0.51100000000E-03 0.  1.
         12    1    3    3    0    0 -0.84875861870E+00 -0.66855040847E+00 -0.49896893250E+01  0.51053256900E+01  0.00000000000E+00 0. -1.
</event>
<event>
 7    1  0.5417298E-010  0.4778727E+02  0.7816164E-02  0.1312668E+00
        -11   -1    0    0    0    0  0.00000000000E+00  0.00000000000E+00  0.45593999997E+02  0.45594000000E+02  0.51100000000E-03 0. -1.
         11   -1    0    0    0    0 -0.00000000000E+00 -0.00000000000E+00 -0.45593999997E+02  0.45594000000E+02  0.51100000000E-03 0.  1.
    9900012    2    1    2    0    0  0.19033595147E+02 -0.37649778422E+02 -0.10190172572E+02  0.47787272166E+02  0.20000005114E+02 0.  0.
         12    1    1    2    0    0 -0.19033595147E+02  0.37649778422E+02  0.10190172572E+02  0.43400727834E+02  0.00000000000E+00 0. -1.
         11    1    3    3    0    0 -0.14393841115E+01 -0.52237198981E+00  0.14019915752E+01  0.20761213245E+01  0.51100000000E-03 0. -1.
        -11    1    3    3    0    0 -0.14537889361E+01 -0.57788453761E+01 -0.17125510155E+01  0.62001118856E+01  0.51100000000E-03 0.  1.
        -12    1    3    3    0    0  0.21926768195E+02 -0.31348561056E+02 -0.98796131313E+01  0.39511038956E+02  0.00000000000E+00 0.  1.
</event>
<event>
 7    1  0.5417298E-010  0.4778727E+02  0.7816164E-02  0.1312668E+00
        -11   -1    0    0    0    0  0.00000000000E+00  0.00000000000E+00  0.45593999997E+02  0.45594000000E+02  0.51100000000E-03 0.  1.
         11   -1    0    0    0    0 -0.00000000000E+00 -0.00000000000E+00 -0.45593999997E+02  0.45594000000E+02  0.51100000000E-03 0. -1.
    9900012    2    1    2    0    0  0.20786203407E+02  0.15887451776E+02  0.34628685714E+02  0.47787271316E+02  0.20000001237E+02 0.  0.
         12    1    1    2    0    0 -0.20786203407E+02 -0.15887451776E+02 -0.34628685714E+02  0.43400728684E+02  0.00000000000E+00 0. -1.
         11    1    3    3    0    0  0.29706801624E+01  0.10970860282E+01  0.12065032472E+01  0.33888329447E+01  0.51100000000E-03 0. -1.
        -11    1    3    3    0    0  0.20151149056E+02  0.84713618781E+01  0.21248106249E+02  0.30484664994E+02  0.51100000000E-03 0.  1.
         12    1    3    3    0    0 -0.23356258109E+01  0.63190038697E+01  0.12174076218E+02  0.13913773377E+02  0.00000000000E+00 0. -1.
</event>
<event>
 7    1  0.5417298E-010  0.4778728E+02  0.7816164E-02  0.1312668E+00
        -11   -1    0    0    0    0  0.00000000000E+00  0.00000000000E+00  0.45593999997E+02  0.45594000000E+02  0.51100000000E-03 0. -1.
         11   -1    0    0    0    0 -0.00000000000E+00 -0.00000000000E+00 -0.45593999997E+02  0.45594000000E+02  0.51100000000E-03 0.  1.
    9900012    2    1    2    0    0  0.31373096609E+01  0.43174646608E+02  0.31192800545E+01  0.47787277314E+02  0.20000028584E+02 0.  0.
         12    1    1    2    0    0 -0.31373096609E+01 -0.43174646608E+02 -0.31192800545E+01  0.43400722686E+02  0.00000000000E+00 0. -1.
         11    1    3    3    0    0  0.52964702397E+01  0.22860493630E+02  0.17713318091E+01  0.23532793770E+02  0.51100000000E-03 0. -1.
        -11    1    3    3    0    0 -0.10643591554E+01  0.19382634020E+02 -0.30297224484E+01  0.19646846575E+02  0.51100000000E-03 0.  1.
         12    1    3    3    0    0 -0.10948014234E+01  0.93151895801E+00  0.43776706938E+01  0.46076369680E+01  0.00000000000E+00 0. -1.
</event>
<event>
 7    1  0.5417298E-010  0.4778727E+02  0.7816164E-02  0.1312668E+00
        -11   -1    0    0    0    0  0.00000000000E+00  0.00000000000E+00  0.45593999997E+02  0.45594000000E+02  0.51100000000E-03 0. -1.
         11   -1    0    0    0    0 -0.00000000000E+00 -0.00000000000E+00 -0.45593999997E+02  0.45594000000E+02  0.51100000000E-03 0.  1.
    9900012    2    1    2    0    0  0.29543519495E+02 -0.21615146255E+02 -0.23314999270E+02  0.47787270942E+02  0.19999999535E+02 0.  0.
         12    1    1    2    0    0 -0.29543519495E+02  0.21615146255E+02  0.23314999270E+02  0.43400729058E+02  0.00000000000E+00 0. -1.
         11    1    3    3    0    0  0.18489005669E+02 -0.65663539827E+01 -0.10323108611E+02  0.22170406106E+02  0.51100000000E-03 0. -1.
        -11    1    3    3    0    0  0.12763902751E+02 -0.10953459168E+02 -0.12868004201E+02  0.21177370317E+02  0.51100000000E-03 0.  1.
        -12    1    3    3    0    0 -0.17093889251E+01 -0.40953331036E+01 -0.12388645827E+00  0.44394945187E+01  0.00000000000E+00 0.  1.
</event>
<event>
 7    1  0.5417298E-010  0.4778727E+02  0.7816164E-02  0.1312668E+00
        -11   -1    0    0    0    0  0.00000000000E+00  0.00000000000E+00  0.45593999997E+02  0.45594000000E+02  0.51100000000E-03 0.  1.
         11   -1    0    0    0    0 -0.00000000000E+00 -0.00000000000E+00 -0.45593999997E+02  0.45594000000E+02  0.51100000000E-03 0. -1.
    9900012    2    1    2    0    0 -0.25327060880E+01 -0.25564715138E+02  0.34980766739E+02  0.47787270722E+02  0.19999998528E+02 0.  0.
         12    1    1    2    0    0  0.25327060880E+01  0.25564715138E+02 -0.34980766739E+02  0.43400729278E+02  0.00000000000E+00 0. -1.
         11    1    3    3    0    0  0.32411305165E+01 -0.94968727272E+01  0.17836155107E+02  0.20465188684E+02  0.51100000000E-03 0. -1.
        -11    1    3    3    0    0 -0.20875567120E+01 -0.15801289152E+02  0.17425657756E+02  0.23615507202E+02  0.51100000000E-03 0.  1.
        -12    1    3    3    0    0 -0.36862798926E+01 -0.26655325909E+00 -0.28104612438E+00  0.37065748354E+01  0.00000000000E+00 0.  1.
</event>
<event>
 7    1  0.5417298E-010  0.4778726E+02  0.7816164E-02  0.1312668E+00
        -11   -1    0    0    0    0  0.00000000000E+00  0.00000000000E+00  0.45593999997E+02  0.45594000000E+02  0.51100000000E-03 0.  1.
         11   -1    0    0    0    0 -0.00000000000E+00 -0.00000000000E+00 -0.45593999997E+02  0.45594000000E+02  0.51100000000E-03 0. -1.
    9900012    2    1    2    0    0 -0.23663399743E+02  0.14621130887E+02  0.33315009673E+02  0.47787264692E+02  0.19999971037E+02 0.  0.
         12    1    1    2    0    0  0.23663399743E+02 -0.14621130887E+02 -0.33315009673E+02  0.43400735308E+02  0.00000000000E+00 0. -1.
         11    1    3    3    0    0 -0.61968780487E+01  0.14726838775E+01  0.58665484480E+01  0.86594737893E+01  0.51100000000E-03 0.  1.
        -11    1    3    3    0    0 -0.16704111546E+01  0.89255128745E+01  0.18207650381E+02  0.20346340854E+02  0.51100000000E-03 0. -1.
         12    1    3    3    0    0 -0.15796110539E+02  0.42229341347E+01  0.92408108440E+01  0.18781450049E+02  0.00000000000E+00 0. -1.
</event>
<event>
 7    1  0.5417298E-010  0.4778727E+02  0.7816164E-02  0.1312668E+00
        -11   -1    0    0    0    0  0.00000000000E+00  0.00000000000E+00  0.45593999997E+02  0.45594000000E+02  0.51100000000E-03 0.  1.
         11   -1    0    0    0    0 -0.00000000000E+00 -0.00000000000E+00 -0.45593999997E+02  0.45594000000E+02  0.51100000000E-03 0. -1.
    9900012    2    1    2    0    0 -0.91025693059E+01  0.17802483245E+02  0.38520619142E+02  0.47787271011E+02  0.19999999848E+02 0.  0.
         12    1    1    2    0    0  0.91025693059E+01 -0.17802483245E+02 -0.38520619142E+02  0.43400728989E+02  0.00000000000E+00 0. -1.
         11    1    3    3    0    0 -0.77229678861E+01 -0.39525328597E+00  0.65254811388E+01  0.10118416995E+02  0.51100000000E-03 0. -1.
        -11    1    3    3    0    0  0.32388730986E+00  0.13314451835E+01  0.89825569573E+01  0.90864723088E+01  0.51100000000E-03 0.  1.
        -12    1    3    3    0    0 -0.17034887297E+01  0.16866291347E+02  0.23012581046E+02  0.28582381707E+02  0.00000000000E+00 0.  1.
</event>
<event>
 7    1  0.5417298E-010  0.4778727E+02  0.7816164E-02  0.1312668E+00
        -11   -1    0    0    0    0  0.00000000000E+00  0.00000000000E+00  0.45593999997E+02  0.45594000000E+02  0.51100000000E-03 0.  1.
         11   -1    0    0    0    0 -0.00000000000E+00 -0.00000000000E+00 -0.45593999997E+02  0.45594000000E+02  0.51100000000E-03 0. -1.
    9900012    2    1    2    0    0  0.34396101312E+02  0.22154504950E+02  0.14481351254E+02  0.47787269485E+02  0.19999992891E+02 0.  0.
         12    1    1    2    0    0 -0.34396101312E+02 -0.22154504950E+02 -0.14481351254E+02  0.43400730515E+02  0.00000000000E+00 0. -1.
         11    1    3    3    0    0  0.27088586081E+02  0.16965400787E+02  0.92084913562E+01  0.33262781499E+02  0.51100000000E-03 0. -1.
        -11    1    3    3    0    0  0.83302266118E+01  0.59434245927E+01  0.69868040023E+01  0.12390819251E+02  0.51100000000E-03 0.  1.
         12    1    3    3    0    0 -0.10227113800E+01 -0.75432042937E+00 -0.17139441050E+01  0.21336687353E+01  0.00000000000E+00 0. -1.
</event>
<event>
 7    1  0.5417298E-010  0.4778727E+02  0.7816164E-02  0.1312668E+00
        -11   -1    0    0    0    0  0.00000000000E+00  0.00000000000E+00  0.45593999997E+02  0.45594000000E+02  0.51100000000E-03 0.  1.
         11   -1    0    0    0    0 -0.00000000000E+00 -0.00000000000E+00 -0.45593999997E+02  0.45594000000E+02  0.51100000000E-03 0. -1.
    9900012    2    1    2    0    0 -0.64612388392E+01  0.42647910234E+02 -0.47990924753E+01  0.47787272550E+02  0.20000006862E+02 0.  0.
         12    1    1    2    0    0  0.64612388392E+01 -0.42647910234E+02  0.47990924753E+01  0.43400727450E+02  0.00000000000E+00 0. -1.
         11    1    3    3    0    0 -0.26900959649E+01  0.13027898533E+01  0.67671469474E+00  0.30646077631E+01  0.51100000000E-03 0. -1.
        -11    1    3    3    0    0  0.65827279569E+00  0.64386938150E+00  0.28048155312E+01  0.29520977760E+01  0.51100000000E-03 0.  1.
        -12    1    3    3    0    0 -0.44294156700E+01  0.40701250999E+02 -0.82806227012E+01  0.41770567010E+02  0.00000000000E+00 0.  1.
</event>
<event>
 7    1  0.5417298E-010  0.4778727E+02  0.7816164E-02  0.1312668E+00
        -11   -1    0    0    0    0  0.00000000000E+00  0.00000000000E+00  0.45593999997E+02  0.45594000000E+02  0.51100000000E-03 0.  1.
         11   -1    0    0    0    0 -0.00000000000E+00 -0.00000000000E+00 -0.45593999997E+02  0.45594000000E+02  0.51100000000E-03 0. -1.
    9900012    2    1    2    0    0  0.22066529520E+02 -0.29319995572E+02  0.23173892173E+02  0.47787272543E+02  0.20000006830E+02 0.  0.
         12    1    1    2    0    0 -0.22066529520E+02  0.29319995572E+02 -0.23173892173E+02  0.43400727457E+02  0.00000000000E+00 0. -1.
         11    1    3    3    0    0 -0.22064684079E-01 -0.22133227552E+01  0.57831725068E+01  0.61922830179E+01  0.51100000000E-03 0. -1.
        -11    1    3    3    0    0  0.31482181540E+00 -0.81210043549E+01  0.75033323076E+01  0.11061185311E+02  0.51100000000E-03 0.  1.
        -12    1    3    3    0    0  0.21773772389E+02 -0.18985668462E+02  0.98873873589E+01  0.30533804214E+02  0.00000000000E+00 0.  1.
</event>
<event>
 7    1  0.5417298E-010  0.4778727E+02  0.7816164E-02  0.1312668E+00
        -11   -1    0    0    0    0  0.00000000000E+00  0.00000000000E+00  0.45593999997E+02  0.45594000000E+02  0.51100000000E-03 0.  1.
         11   -1    0    0    0    0 -0.00000000000E+00 -0.00000000000E+00 -0.45593999997E+02  0.45594000000E+02  0.51100000000E-03 0. -1.
    9900012    2    1    2    0    0  0.48525351791E+01  0.41245641513E+02  0.12604495553E+02  0.47787270172E+02  0.19999996021E+02 0.  0.
         12    1    1    2    0    0 -0.48525351791E+01 -0.41245641513E+02 -0.12604495553E+02  0.43400729828E+02  0.00000000000E+00 0. -1.
         11    1    3    3    0    0  0.35183482611E+01  0.10382699101E+02  0.73291663558E+00  0.10987100717E+02  0.51100000000E-03 0. -1.
        -11    1    3    3    0    0 -0.78708355441E+00  0.31585723065E+02  0.13146975126E+02  0.34221635807E+02  0.51100000000E-03 0.  1.
         12    1    3    3    0    0  0.21212704723E+01 -0.72278065280E+00 -0.12753962083E+01  0.25785336486E+01  0.00000000000E+00 0. -1.
</event>
<event>
 7    1  0.5417298E-010  0.4778727E+02  0.7816164E-02  0.1312668E+00
        -11   -1    0    0    0    0  0.00000000000E+00  0.00000000000E+00  0.45593999997E+02  0.45594000000E+02  0.51100000000E-03 0. -1.
         11   -1    0    0    0    0 -0.00000000000E+00 -0.00000000000E+00 -0.45593999997E+02  0.45594000000E+02  0.51100000000E-03 0.  1.
    9900012    2    1    2    0    0 -0.90610752165E+00  0.43277133600E+02  0.31451279792E+01  0.47787272432E+02  0.20000006324E+02 0.  0.
         12    1    1    2    0    0  0.90610752165E+00 -0.43277133600E+02 -0.31451279792E+01  0.43400727568E+02  0.00000000000E+00 0. -1.
         11    1    3    3    0    0  0.63791603280E+00  0.83180451825E+00 -0.15409739190E+01  0.18637157781E+01  0.51100000000E-03 0. -1.
        -11    1    3    3    0    0  0.10627699793E+01 -0.12551195386E+01 -0.75304106631E+00  0.18088328264E+01  0.51100000000E-03 0.  1.
         12    1    3    3    0    0 -0.26067935338E+01  0.43700448620E+02  0.54391429645E+01  0.44114723827E+02  0.00000000000E+00 0. -1.
</event>
<event>
 7    1  0.5417298E-010  0.4778727E+02  0.7816164E-02  0.1312668E+00
        -11   -1    0    0    0    0  0.00000000000E+00  0.00000000000E+00  0.45593999997E+02  0.45594000000E+02  0.51100000000E-03 0.  1.
         11   -1    0    0    0    0 -0.00000000000E+00 -0.00000000000E+00 -0.45593999997E+02  0.45594000000E+02  0.51100000000E-03 0. -1.
    9900012    2    1    2    0    0  0.15521239122E+02 -0.16643291773E+02  0.36955588641E+02  0.47787267785E+02  0.19999985140E+02 0.  0.
         12    1    1    2    0    0 -0.15521239122E+02  0.16643291773E+02 -0.36955588641E+02  0.43400732215E+02  0.00000000000E+00 0. -1.
         11    1    3    3    0    0  0.10683865066E+02 -0.20094883791E+01  0.11370463965E+02  0.15731194085E+02  0.51100000000E-03 0. -1.
        -11    1    3    3    0    0 -0.14333460096E+01 -0.33660165260E+00 -0.58395295654E+00  0.15839137515E+01  0.51100000000E-03 0.  1.
        -12    1    3    3    0    0  0.62707200650E+01 -0.14297201742E+02  0.26169077633E+02  0.30472159949E+02  0.00000000000E+00 0.  1.
</event>
<event>
 7    1  0.5417298E-010  0.4778727E+02  0.7816164E-02  0.1312668E+00
        -11   -1    0    0    0    0  0.00000000000E+00  0.00000000000E+00  0.45593999997E+02  0.45594000000E+02  0.51100000000E-03 0.  1.
         11   -1    0    0    0    0 -0.00000000000E+00 -0.00000000000E+00 -0.45593999997E+02  0.45594000000E+02  0.51100000000E-03 0. -1.
    9900012    2    1    2    0    0  0.24630547926E+02  0.24950769604E+02  0.25581607226E+02  0.47787269324E+02  0.19999992155E+02 0.  0.
         12    1    1    2    0    0 -0.24630547926E+02 -0.24950769604E+02 -0.25581607226E+02  0.43400730676E+02  0.00000000000E+00 0. -1.
         11    1    3    3    0    0  0.24125127125E+02  0.20514996689E+02  0.27632431731E+02  0.42029015353E+02  0.51100000000E-03 0.  1.
        -11    1    3    3    0    0  0.28090338005E+00  0.16795662494E+01  0.71520407451E+00  0.18469885285E+01  0.51100000000E-03 0. -1.
        -12    1    3    3    0    0  0.22451742054E+00  0.27562066659E+01 -0.27660285793E+01  0.39112654422E+01  0.00000000000E+00 0.  1.
</event>
<event>
 7    1  0.5417298E-010  0.4778727E+02  0.7816164E-02  0.1312668E+00
        -11   -1    0    0    0    0  0.00000000000E+00  0.00000000000E+00  0.45593999997E+02  0.45594000000E+02  0.51100000000E-03 0.  1.
         11   -1    0    0    0    0 -0.00000000000E+00 -0.00000000000E+00 -0.45593999997E+02  0.45594000000E+02  0.51100000000E-03 0. -1.
    9900012    2    1    2    0    0  0.23142532421E+02 -0.62588039870E+01  0.36178361966E+02  0.47787270643E+02  0.19999998168E+02 0.  0.
         12    1    1    2    0    0 -0.23142532421E+02  0.62588039870E+01 -0.36178361966E+02  0.43400729357E+02  0.00000000000E+00 0. -1.
         11    1    3    3    0    0 -0.24926724307E+01 -0.16366109094E+01  0.97533952022E+01  0.10199050414E+02  0.51100000000E-03 0. -1.
        -11    1    3    3    0    0  0.18426698202E+01  0.85875026902E+00  0.77488672043E+00  0.21756226192E+01  0.51100000000E-03 0.  1.
         12    1    3    3    0    0  0.23792535032E+02 -0.54809433466E+01  0.25650080043E+02  0.35412597609E+02  0.00000000000E+00 0. -1.
</event>
<event>
 7    1  0.5417298E-010  0.4778727E+02  0.7816164E-02  0.1312668E+00
        -11   -1    0    0    0    0  0.00000000000E+00  0.00000000000E+00  0.45593999997E+02  0.45594000000E+02  0.51100000000E-03 0.  1.
         11   -1    0    0    0    0 -0.00000000000E+00 -0.00000000000E+00 -0.45593999997E+02  0.45594000000E+02  0.51100000000E-03 0. -1.
    9900012    2    1    2    0    0  0.24897425924E+02 -0.23635821530E+02  0.26553521617E+02  0.47787269737E+02  0.19999994040E+02 0.  0.
         12    1    1    2    0    0 -0.24897425924E+02  0.23635821530E+02 -0.26553521617E+02  0.43400730263E+02  0.00000000000E+00 0. -1.
         11    1    3    3    0    0  0.42950631888E+01  0.20089041375E+01  0.53274185824E+01  0.71319459226E+01  0.51100000000E-03 0. -1.
        -11    1    3    3    0    0  0.72165710025E+01 -0.10687624541E+02  0.14686251138E+02  0.19544569275E+02  0.51100000000E-03 0.  1.
        -12    1    3    3    0    0  0.13385791733E+02 -0.14957101126E+02  0.65398518964E+01  0.21110754540E+02  0.00000000000E+00 0.  1.
</event>
<event>
 7    1  0.5417298E-010  0.4778727E+02  0.7816164E-02  0.1312668E+00
        -11   -1    0    0    0    0  0.00000000000E+00  0.00000000000E+00  0.45593999997E+02  0.45594000000E+02  0.51100000000E-03 0.  1.
         11   -1    0    0    0    0 -0.00000000000E+00 -0.00000000000E+00 -0.45593999997E+02  0.45594000000E+02  0.51100000000E-03 0. -1.
    9900012    2    1    2    0    0 -0.21716872176E+01 -0.18255002973E+02  0.39314906477E+02  0.47787271548E+02  0.20000002294E+02 0.  0.
         12    1    1    2    0    0  0.21716872176E+01  0.18255002973E+02 -0.39314906477E+02  0.43400728452E+02  0.00000000000E+00 0. -1.
         11    1    3    3    0    0  0.22619963337E+01 -0.71837975972E+00  0.13040514366E+02  0.13254724142E+02  0.51100000000E-03 0. -1.
        -11    1    3    3    0    0  0.12163801768E+01 -0.37203096018E+01  0.15849424066E+02  0.16325578941E+02  0.51100000000E-03 0.  1.
         12    1    3    3    0    0 -0.56500637280E+01 -0.13816313611E+02  0.10424968045E+02  0.18206968465E+02  0.00000000000E+00 0. -1.
</event>
<event>
 7    1  0.5417298E-010  0.4778727E+02  0.7816164E-02  0.1312668E+00
        -11   -1    0    0    0    0  0.00000000000E+00  0.00000000000E+00  0.45593999997E+02  0.45594000000E+02  0.51100000000E-03 0.  1.
         11   -1    0    0    0    0 -0.00000000000E+00 -0.00000000000E+00 -0.45593999997E+02  0.45594000000E+02  0.51100000000E-03 0. -1.
    9900012    2    1    2    0    0 -0.13138779525E+02 -0.37307037299E+02 -0.17865621825E+02  0.47787274170E+02  0.20000014250E+02 0.  0.
         12    1    1    2    0    0  0.13138779525E+02  0.37307037299E+02  0.17865621825E+02  0.43400725830E+02  0.00000000000E+00 0. -1.
         11    1    3    3    0    0 -0.78924766184E+00 -0.78300763459E+00  0.10387982966E+01  0.15215501930E+01  0.51100000000E-03 0. -1.
        -11    1    3    3    0    0 -0.16262843192E+02 -0.27595610546E+02 -0.11533460662E+02  0.34044360843E+02  0.51100000000E-03 0.  1.
        -12    1    3    3    0    0  0.39133113290E+01 -0.89284191187E+01 -0.73709594588E+01  0.12221363134E+02  0.00000000000E+00 0.  1.
</event>
<event>
 7    1  0.5417298E-010  0.4778727E+02  0.7816164E-02  0.1312668E+00
        -11   -1    0    0    0    0  0.00000000000E+00  0.00000000000E+00  0.45593999997E+02  0.45594000000E+02  0.51100000000E-03 0. -1.
         11   -1    0    0    0    0 -0.00000000000E+00 -0.00000000000E+00 -0.45593999997E+02  0.45594000000E+02  0.51100000000E-03 0.  1.
    9900012    2    1    2    0    0  0.30460939503E+02 -0.27015586091E+02 -0.15030387077E+02  0.47787271170E+02  0.20000000575E+02 0.  0.
         12    1    1    2    0    0 -0.30460939503E+02  0.27015586091E+02  0.15030387077E+02  0.43400728830E+02  0.00000000000E+00 0. -1.
         11    1    3    3    0    0  0.91466813342E+01 -0.15172078507E+01 -0.19403420693E+01  0.94725195538E+01  0.51100000000E-03 0. -1.
        -11    1    3    3    0    0  0.12507576154E+02 -0.87573946910E+01  0.74175198112E-01  0.15268821999E+02  0.51100000000E-03 0.  1.
        -12    1    3    3    0    0  0.88066820152E+01 -0.16740983550E+02 -0.13164220205E+02  0.23045929618E+02  0.00000000000E+00 0.  1.
</event>
<event>
 7    1  0.5417298E-010  0.4778727E+02  0.7816164E-02  0.1312668E+00
        -11   -1    0    0    0    0  0.00000000000E+00  0.00000000000E+00  0.45593999997E+02  0.45594000000E+02  0.51100000000E-03 0.  1.
         11   -1    0    0    0    0 -0.00000000000E+00 -0.00000000000E+00 -0.45593999997E+02  0.45594000000E+02  0.51100000000E-03 0. -1.
    9900012    2    1    2    0    0  0.15029705971E+02 -0.23492800463E+01  0.40647413327E+02  0.47787269724E+02  0.19999993981E+02 0.  0.
         12    1    1    2    0    0 -0.15029705971E+02  0.23492800463E+01 -0.40647413327E+02  0.43400730276E+02  0.00000000000E+00 0. -1.
         11    1    3    3    0    0 -0.34830083155E+01  0.10916555994E+01  0.35142873195E+01  0.50668801544E+01  0.51100000000E-03 0. -1.
        -11    1    3    3    0    0  0.20284324792E+00 -0.13268886418E+01  0.89186444991E+01  0.90190907975E+01  0.51100000000E-03 0.  1.
        -12    1    3    3    0    0  0.18309871038E+02 -0.21140470039E+01  0.28214481508E+02  0.33701298772E+02  0.00000000000E+00 0.  1.
</event>
<event>
 7    1  0.5417298E-010  0.4778731E+02  0.7816164E-02  0.1312668E+00
        -11   -1    0    0    0    0  0.00000000000E+00  0.00000000000E+00  0.45593999997E+02  0.45594000000E+02  0.51100000000E-03 0. -1.
         11   -1    0    0    0    0 -0.00000000000E+00 -0.00000000000E+00 -0.45593999997E+02  0.45594000000E+02  0.51100000000E-03 0.  1.
    9900012    2    1    2    0    0  0.39930258849E+01  0.40577370209E+02 -0.14871188758E+02  0.47787314708E+02  0.20000199077E+02 0.  0.
         12    1    1    2    0    0 -0.39930258849E+01 -0.40577370209E+02  0.14871188758E+02  0.43400685292E+02  0.00000000000E+00 0. -1.
         11    1    3    3    0    0  0.26457168027E+01  0.15636881711E+02 -0.12408937668E+01  0.15907598959E+02  0.51100000000E-03 0.  1.
        -11    1    3    3    0    0  0.38986175557E+01  0.13362776267E+02 -0.14363177304E+02  0.20001596709E+02  0.51100000000E-03 0. -1.
         12    1    3    3    0    0 -0.25513084734E+01  0.11577712231E+02  0.73288231231E+00  0.11878119039E+02  0.00000000000E+00 0. -1.
</event>
<event>
 7    1  0.5417298E-010  0.4778727E+02  0.7816164E-02  0.1312668E+00
        -11   -1    0    0    0    0  0.00000000000E+00  0.00000000000E+00  0.45593999997E+02  0.45594000000E+02  0.51100000000E-03 0.  1.
         11   -1    0    0    0    0 -0.00000000000E+00 -0.00000000000E+00 -0.45593999997E+02  0.45594000000E+02  0.51100000000E-03 0. -1.
    9900012    2    1    2    0    0  0.32581058238E+02  0.18041548226E+02  0.22284532450E+02  0.47787271840E+02  0.20000003627E+02 0.  0.
         12    1    1    2    0    0 -0.32581058238E+02 -0.18041548226E+02 -0.22284532450E+02  0.43400728160E+02  0.00000000000E+00 0. -1.
         11    1    3    3    0    0  0.14172492700E+02  0.11481797462E+02  0.10426997190E+02  0.21009842764E+02  0.51100000000E-03 0.  1.
        -11    1    3    3    0    0  0.16511354196E+02  0.40060602419E+01  0.14733482716E+02  0.22488860559E+02  0.51100000000E-03 0. -1.
         12    1    3    3    0    0  0.18972113417E+01  0.25536905224E+01 -0.28759474557E+01  0.42885685173E+01  0.00000000000E+00 0. -1.
</event>
<event>
 7    1  0.5417298E-010  0.4778727E+02  0.7816164E-02  0.1312668E+00
        -11   -1    0    0    0    0  0.00000000000E+00  0.00000000000E+00  0.45593999997E+02  0.45594000000E+02  0.51100000000E-03 0.  1.
         11   -1    0    0    0    0 -0.00000000000E+00 -0.00000000000E+00 -0.45593999997E+02  0.45594000000E+02  0.51100000000E-03 0. -1.
    9900012    2    1    2    0    0  0.14027559713E+02  0.56849239757E+01  0.40675947716E+02  0.47787268270E+02  0.19999987351E+02 0.  0.
         12    1    1    2    0    0 -0.14027559713E+02 -0.56849239757E+01 -0.40675947716E+02  0.43400731730E+02  0.00000000000E+00 0. -1.
         11    1    3    3    0    0 -0.43640220732E+01 -0.14682855474E+01  0.41751146544E+01  0.62154753432E+01  0.51100000000E-03 0. -1.
        -11    1    3    3    0    0  0.32894902367E+01  0.20570040553E+01  0.87037488815E+01  0.95292841575E+01  0.51100000000E-03 0.  1.
         12    1    3    3    0    0  0.15102091550E+02  0.50962054677E+01  0.27797084180E+02  0.32042508769E+02  0.00000000000E+00 0. -1.
</event>
<event>
 7    1  0.5417298E-010  0.4778727E+02  0.7816164E-02  0.1312668E+00
        -11   -1    0    0    0    0  0.00000000000E+00  0.00000000000E+00  0.45593999997E+02  0.45594000000E+02  0.51100000000E-03 0. -1.
         11   -1    0    0    0    0 -0.00000000000E+00 -0.00000000000E+00 -0.45593999997E+02  0.45594000000E+02  0.51100000000E-03 0.  1.
    9900012    2    1    2    0    0 -0.21199544647E+02 -0.15409144245E+02 -0.34594230546E+02  0.47787271819E+02  0.20000003533E+02 0.  0.
         12    1    1    2    0    0  0.21199544647E+02  0.15409144245E+02  0.34594230546E+02  0.43400728181E+02  0.00000000000E+00 0. -1.
         11    1    3    3    0    0 -0.83756486760E+01 -0.71019114292E+01 -0.27209496325E+01  0.11313363950E+02  0.51100000000E-03 0. -1.
        -11    1    3    3    0    0 -0.10785324720E+01  0.25722572846E+00  0.31740810141E+00  0.11533193541E+01  0.51100000000E-03 0.  1.
        -12    1    3    3    0    0 -0.11745363499E+02 -0.85644585439E+01 -0.32190689015E+02  0.35320588516E+02  0.00000000000E+00 0.  1.
</event>
<event>
 7    1  0.5417298E-010  0.4778727E+02  0.7816164E-02  0.1312668E+00
        -11   -1    0    0    0    0  0.00000000000E+00  0.00000000000E+00  0.45593999997E+02  0.45594000000E+02  0.51100000000E-03 0.  1.
         11   -1    0    0    0    0 -0.00000000000E+00 -0.00000000000E+00 -0.45593999997E+02  0.45594000000E+02  0.51100000000E-03 0. -1.
    9900012    2    1    2    0    0 -0.10117946313E+02  0.19232973601E+02  0.37567847302E+02  0.47787271180E+02  0.20000000620E+02 0.  0.
         12    1    1    2    0    0  0.10117946313E+02 -0.19232973601E+02 -0.37567847302E+02  0.43400728820E+02  0.00000000000E+00 0. -1.
         11    1    3    3    0    0 -0.56655793989E+01  0.16096098712E+01  0.17368564106E+02  0.18340028714E+02  0.51100000000E-03 0. -1.
        -11    1    3    3    0    0  0.62917545671E+00  0.64249762091E+01  0.14542814661E+02  0.15911305401E+02  0.51100000000E-03 0.  1.
         12    1    3    3    0    0 -0.50815423709E+01  0.11198387521E+02  0.56564685347E+01  0.13535937065E+02  0.00000000000E+00 0. -1.
</event>
<event>
 7    1  0.5417298E-010  0.4778729E+02  0.7816164E-02  0.1312668E+00
        -11   -1    0    0    0    0  0.00000000000E+00  0.00000000000E+00  0.45593999997E+02  0.45594000000E+02  0.51100000000E-03 0.  1.
         11   -1    0    0    0    0 -0.00000000000E+00 -0.00000000000E+00 -0.45593999997E+02  0.45594000000E+02  0.51100000000E-03 0. -1.
    9900012    2    1    2    0    0  0.77370571819E+01  0.30671047178E+02  0.29716101600E+02  0.47787287066E+02  0.20000073051E+02 0.  0.
         12    1    1    2    0    0 -0.77370571819E+01 -0.30671047178E+02 -0.29716101600E+02  0.43400712934E+02  0.00000000000E+00 0. -1.
         11    1    3    3    0    0 -0.73813276854E+00  0.21789374825E+01  0.70090902649E+01  0.73769882160E+01  0.51100000000E-03 0.  1.
        -11    1    3    3    0    0 -0.38074595380E+01  0.12439454551E+02  0.67372455460E+01  0.14650162302E+02  0.51100000000E-03 0. -1.
        -12    1    3    3    0    0  0.12282649488E+02  0.16052655145E+02  0.15969765789E+02  0.25760136549E+02  0.00000000000E+00 0.  1.
</event>
<event>
 7    1  0.5417298E-010  0.4778728E+02  0.7816164E-02  0.1312668E+00
        -11   -1    0    0    0    0  0.00000000000E+00  0.00000000000E+00  0.45593999997E+02  0.45594000000E+02  0.51100000000E-03 0.  1.
         11   -1    0    0    0    0 -0.00000000000E+00 -0.00000000000E+00 -0.45593999997E+02  0.45594000000E+02  0.51100000000E-03 0. -1.
    9900012    2    1    2    0    0  0.30132457013E+01 -0.26093440299E+02  0.34549602227E+02  0.47787282375E+02  0.20000051662E+02 0.  0.
         12    1    1    2    0    0 -0.30132457013E+01  0.26093440299E+02 -0.34549602227E+02  0.43400717625E+02  0.00000000000E+00 0. -1.
         11    1    3    3    0    0  0.16297643448E+01 -0.19223397970E+01 -0.43795876227E+00  0.25579934036E+01  0.51100000000E-03 0. -1.
        -11    1    3    3    0    0  0.40835040869E+01 -0.32281621060E+01  0.11301704258E+01  0.53266613993E+01  0.51100000000E-03 0.  1.
        -12    1    3    3    0    0 -0.27000227304E+01 -0.20942938396E+02  0.33857390564E+02  0.39902627572E+02  0.00000000000E+00 0.  1.
</event>
<event>
 7    1  0.5417298E-010  0.4778727E+02  0.7816164E-02  0.1312668E+00
        -11   -1    0    0    0    0  0.00000000000E+00  0.00000000000E+00  0.45593999997E+02  0.45594000000E+02  0.51100000000E-03 0.  1.
         11   -1    0    0    0    0 -0.00000000000E+00 -0.00000000000E+00 -0.45593999997E+02  0.45594000000E+02  0.51100000000E-03 0. -1.
    9900012    2    1    2    0    0  0.34940782777E+02  0.10055784232E+02  0.23699080171E+02  0.47787268456E+02  0.19999988200E+02 0.  0.
         12    1    1    2    0    0 -0.34940782777E+02 -0.10055784232E+02 -0.23699080171E+02  0.43400731544E+02  0.00000000000E+00 0. -1.
         11    1    3    3    0    0  0.17798514737E+02  0.30394849814E+01  0.93024320016E+01  0.20311593664E+02  0.51100000000E-03 0.  1.
        -11    1    3    3    0    0  0.77154347186E+01  0.20940950482E+00 -0.14170981914E+01  0.78472895182E+01  0.51100000000E-03 0. -1.
         12    1    3    3    0    0  0.94268333214E+01  0.68068897461E+01  0.15813746361E+02  0.19628385274E+02  0.00000000000E+00 0. -1.
</event>
<event>
 7    1  0.5417298E-010  0.4778727E+02  0.7816164E-02  0.1312668E+00
        -11   -1    0    0    0    0  0.00000000000E+00  0.00000000000E+00  0.45593999997E+02  0.45594000000E+02  0.51100000000E-03 0.  1.
         11   -1    0    0    0    0 -0.00000000000E+00 -0.00000000000E+00 -0.45593999997E+02  0.45594000000E+02  0.51100000000E-03 0. -1.
    9900012    2    1    2    0    0  0.28989423171E+02  0.22728135049E+02  0.22949269720E+02  0.47787265452E+02  0.19999974504E+02 0.  0.
         12    1    1    2    0    0 -0.28989423171E+02 -0.22728135049E+02 -0.22949269720E+02  0.43400734548E+02  0.00000000000E+00 0. -1.
         11    1    3    3    0    0  0.58315424599E+01 -0.73096973410E+00 -0.11069611019E+01  0.59805156430E+01  0.51100000000E-03 0. -1.
        -11    1    3    3    0    0  0.18614989846E+02  0.13424624939E+02  0.13948539056E+02  0.26857031551E+02  0.51100000000E-03 0.  1.
        -12    1    3    3    0    0  0.45428908656E+01  0.10034479844E+02  0.10107691766E+02  0.14949718258E+02  0.00000000000E+00 0.  1.
</event>
<event>
 7    1  0.5417298E-010  0.4778727E+02  0.7816164E-02  0.1312668E+00
        -11   -1    0    0    0    0  0.00000000000E+00  0.00000000000E+00  0.45593999997E+02  0.45594000000E+02  0.51100000000E-03 0. -1.
         11   -1    0    0    0    0 -0.00000000000E+00 -0.00000000000E+00 -0.45593999997E+02  0.45594000000E+02  0.51100000000E-03 0.  1.
    9900012    2    1    2    0    0  0.40469838400E+02 -0.13437295650E+02 -0.80780190335E+01  0.47787272748E+02  0.20000007765E+02 0.  0.
         12    1    1    2    0    0 -0.40469838400E+02  0.13437295650E+02  0.80780190335E+01  0.43400727252E+02  0.00000000000E+00 0. -1.
         11    1    3    3    0    0 -0.87060679179E+00  0.16763792206E+01 -0.20446475600E+01  0.27836643804E+01  0.51100000000E-03 0. -1.
        -11    1    3    3    0    0  0.45618850486E+01 -0.39576688855E+01 -0.19872159154E+01  0.63579057526E+01  0.51100000000E-03 0.  1.
        -12    1    3    3    0    0  0.36778560144E+02 -0.11156005985E+02 -0.40461555582E+01  0.38645702615E+02  0.00000000000E+00 0.  1.
</event>
<event>
 7    1  0.5417298E-010  0.4778727E+02  0.7816164E-02  0.1312668E+00
        -11   -1    0    0    0    0  0.00000000000E+00  0.00000000000E+00  0.45593999997E+02  0.45594000000E+02  0.51100000000E-03 0. -1.
         11   -1    0    0    0    0 -0.00000000000E+00 -0.00000000000E+00 -0.45593999997E+02  0.45594000000E+02  0.51100000000E-03 0.  1.
    9900012    2    1    2    0    0 -0.25947104445E+02 -0.29505603180E+02 -0.18433405801E+02  0.47787270772E+02  0.19999998757E+02 0.  0.
         12    1    1    2    0    0  0.25947104445E+02  0.29505603180E+02  0.18433405801E+02  0.43400729228E+02  0.00000000000E+00 0. -1.
         11    1    3    3    0    0 -0.12405179165E+02 -0.40049498047E+01 -0.37767328934E+01  0.13571728139E+02  0.51100000000E-03 0. -1.
        -11    1    3    3    0    0 -0.12421815355E+02 -0.11710734292E+02 -0.76547115437E+01  0.18709286556E+02  0.51100000000E-03 0.  1.
         12    1    3    3    0    0 -0.11201099246E+01 -0.13789919084E+02 -0.70019613641E+01  0.15506256077E+02  0.00000000000E+00 0. -1.
</event>
<event>
 7    1  0.5417298E-010  0.4778727E+02  0.7816164E-02  0.1312668E+00
        -11   -1    0    0    0    0  0.00000000000E+00  0.00000000000E+00  0.45593999997E+02  0.45594000000E+02  0.51100000000E-03 0.  1.
         11   -1    0    0    0    0 -0.00000000000E+00 -0.00000000000E+00 -0.45593999997E+02  0.45594000000E+02  0.51100000000E-03 0. -1.
    9900012    2    1    2    0    0  0.30423556254E+02  0.24865138304E+01  0.30852026108E+02  0.47787273726E+02  0.20000012225E+02 0.  0.
         12    1    1    2    0    0 -0.30423556254E+02 -0.24865138304E+01 -0.30852026108E+02  0.43400726274E+02  0.00000000000E+00 0. -1.
         11    1    3    3    0    0  0.74304706604E+00 -0.29987425859E+01 -0.13949594261E+01  0.33897622484E+01  0.51100000000E-03 0. -1.
        -11    1    3    3    0    0  0.67041677771E+01 -0.24376980682E+00  0.88845182236E+01  0.11132832238E+02  0.51100000000E-03 0.  1.
         12    1    3    3    0    0  0.22976341411E+02  0.57290262232E+01  0.23362467310E+02  0.33264679240E+02  0.00000000000E+00 0. -1.
</event>
<event>
 7    1  0.5417298E-010  0.4778727E+02  0.7816164E-02  0.1312668E+00
        -11   -1    0    0    0    0  0.00000000000E+00  0.00000000000E+00  0.45593999997E+02  0.45594000000E+02  0.51100000000E-03 0.  1.
         11   -1    0    0    0    0 -0.00000000000E+00 -0.00000000000E+00 -0.45593999997E+02  0.45594000000E+02  0.51100000000E-03 0. -1.
    9900012    2    1    2    0    0  0.39451496868E+02 -0.10499871122E+02  0.14729401668E+02  0.47787272216E+02  0.20000005342E+02 0.  0.
         12    1    1    2    0    0 -0.39451496868E+02  0.10499871122E+02 -0.14729401668E+02  0.43400727784E+02  0.00000000000E+00 0. -1.
         11    1    3    3    0    0  0.49881586742E+01  0.23935076924E+01  0.52279096959E+01  0.76119410194E+01  0.51100000000E-03 0. -1.
        -11    1    3    3    0    0  0.12155742791E+02  0.18143634599E+01  0.23221692493E+01  0.12507856245E+02  0.51100000000E-03 0.  1.
        -12    1    3    3    0    0  0.22307595403E+02 -0.14707742274E+02  0.71793227227E+01  0.27667474952E+02  0.00000000000E+00 0.  1.
</event>
<event>
 7    1  0.5417298E-010  0.4778727E+02  0.7816164E-02  0.1312668E+00
        -11   -1    0    0    0    0  0.00000000000E+00  0.00000000000E+00  0.45593999997E+02  0.45594000000E+02  0.51100000000E-03 0.  1.
         11   -1    0    0    0    0 -0.00000000000E+00 -0.00000000000E+00 -0.45593999997E+02  0.45594000000E+02  0.51100000000E-03 0. -1.
    9900012    2    1    2    0    0 -0.69529188690E+01  0.21962088209E+02  0.36782427595E+02  0.47787269832E+02  0.19999994474E+02 0.  0.
         12    1    1    2    0    0  0.69529188690E+01 -0.21962088209E+02 -0.36782427595E+02  0.43400730168E+02  0.00000000000E+00 0. -1.
         11    1    3    3    0    0 -0.30589474807E+01  0.13490533278E+02  0.11746292019E+02  0.18147369624E+02  0.51100000000E-03 0. -1.
        -11    1    3    3    0    0  0.46672605619E+01  0.42605110477E+01  0.96030785920E+01  0.11495842477E+02  0.51100000000E-03 0.  1.
         12    1    3    3    0    0 -0.85612319502E+01  0.42110438827E+01  0.15433056985E+02  0.18144057732E+02  0.00000000000E+00 0. -1.
</event>
<event>
 7    1  0.5417298E-010  0.4778727E+02  0.7816164E-02  0.1312668E+00
        -11   -1    0    0    0    0  0.00000000000E+00  0.00000000000E+00  0.45593999997E+02  0.45594000000E+02  0.51100000000E-03 0. -1.
         11   -1    0    0    0    0 -0.00000000000E+00 -0.00000000000E+00 -0.45593999997E+02  0.45594000000E+02  0.51100000000E-03 0.  1.
    9900012    2    1    2    0    0 -0.12551186309E+02  0.20200466663E+02 -0.36304711152E+02  0.47787272091E+02  0.20000004773E+02 0.  0.
         12    1    1    2    0    0  0.12551186309E+02 -0.20200466663E+02  0.36304711152E+02  0.43400727909E+02  0.00000000000E+00 0. -1.
         11    1    3    3    0    0 -0.73805402035E+01  0.15080733705E+02 -0.16097280504E+02  0.23259908484E+02  0.51100000000E-03 0. -1.
        -11    1    3    3    0    0 -0.86243855548E+01  0.21911556053E+01 -0.10154599250E+02  0.13501743416E+02  0.51100000000E-03 0.  1.
         12    1    3    3    0    0  0.34537394489E+01  0.29285773526E+01 -0.10052831398E+02  0.11025620192E+02  0.00000000000E+00 0. -1.
</event>
<event>
 7    1  0.5417298E-010  0.4778727E+02  0.7816164E-02  0.1312668E+00
        -11   -1    0    0    0    0  0.00000000000E+00  0.00000000000E+00  0.45593999997E+02  0.45594000000E+02  0.51100000000E-03 0.  1.
         11   -1    0    0    0    0 -0.00000000000E+00 -0.00000000000E+00 -0.45593999997E+02  0.45594000000E+02  0.51100000000E-03 0. -1.
    9900012    2    1    2    0    0 -0.11765906845E+02  0.88256054162E+01  0.40832529364E+02  0.47787270408E+02  0.19999997096E+02 0.  0.
         12    1    1    2    0    0  0.11765906845E+02 -0.88256054162E+01 -0.40832529364E+02  0.43400729592E+02  0.00000000000E+00 0. -1.
         11    1    3    3    0    0 -0.10217285561E+01  0.35451212114E+01 -0.37679550417E+00  0.37086100845E+01  0.51100000000E-03 0. -1.
        -11    1    3    3    0    0  0.15658751215E+01  0.12382864080E+01  0.11425894780E+02  0.11598982279E+02  0.51100000000E-03 0.  1.
        -12    1    3    3    0    0 -0.12310053411E+02  0.40421977969E+01  0.29783430089E+02  0.32479678044E+02  0.00000000000E+00 0.  1.
</event>
<event>
 7    1  0.5417298E-010  0.4778727E+02  0.7816164E-02  0.1312668E+00
        -11   -1    0    0    0    0  0.00000000000E+00  0.00000000000E+00  0.45593999997E+02  0.45594000000E+02  0.51100000000E-03 0. -1.
         11   -1    0    0    0    0 -0.00000000000E+00 -0.00000000000E+00 -0.45593999997E+02  0.45594000000E+02  0.51100000000E-03 0.  1.
    9900012    2    1    2    0    0  0.28984871133E+02 -0.23847210961E+02 -0.21790162995E+02  0.47787269263E+02  0.19999991876E+02 0.  0.
         12    1    1    2    0    0 -0.28984871133E+02  0.23847210961E+02  0.21790162995E+02  0.43400730737E+02  0.00000000000E+00 0. -1.
         11    1    3    3    0    0  0.56167897586E+01 -0.10733546860E+02 -0.17560873427E+01  0.12240963949E+02  0.51100000000E-03 0. -1.
        -11    1    3    3    0    0  0.18807155294E+02 -0.11378997748E+02 -0.95190188594E+01  0.23954172921E+02  0.51100000000E-03 0.  1.
         12    1    3    3    0    0  0.45609260804E+01 -0.17346663530E+01 -0.10515056793E+02  0.11592132393E+02  0.00000000000E+00 0. -1.
</event>
<event>
 7    1  0.5417298E-010  0.4778727E+02  0.7816164E-02  0.1312668E+00
        -11   -1    0    0    0    0  0.00000000000E+00  0.00000000000E+00  0.45593999997E+02  0.45594000000E+02  0.51100000000E-03 0.  1.
         11   -1    0    0    0    0 -0.00000000000E+00 -0.00000000000E+00 -0.45593999997E+02  0.45594000000E+02  0.51100000000E-03 0. -1.
    9900012    2    1    2    0    0  0.31376841584E+02  0.57704970596E+01  0.29424789222E+02  0.47787273683E+02  0.20000012030E+02 0.  0.
         12    1    1    2    0    0 -0.31376841584E+02 -0.57704970596E+01 -0.29424789222E+02  0.43400726317E+02  0.00000000000E+00 0. -1.
         11    1    3    3    0    0  0.84820705275E+00 -0.43468935600E+01  0.14798752490E+01  0.46695791931E+01  0.51100000000E-03 0. -1.
        -11    1    3    3    0    0  0.28359050170E+01 -0.32474750694E+00  0.46390926788E+01  0.54469256790E+01  0.51100000000E-03 0.  1.
         12    1    3    3    0    0  0.27692729514E+02  0.10442138127E+02  0.23305821294E+02  0.37670768811E+02  0.00000000000E+00 0. -1.
</event>
<event>
 7    1  0.5417298E-010  0.4778727E+02  0.7816164E-02  0.1312668E+00
        -11   -1    0    0    0    0  0.00000000000E+00  0.00000000000E+00  0.45593999997E+02  0.45594000000E+02  0.51100000000E-03 0.  1.
         11   -1    0    0    0    0 -0.00000000000E+00 -0.00000000000E+00 -0.45593999997E+02  0.45594000000E+02  0.51100000000E-03 0. -1.
    9900012    2    1    2    0    0  0.35595438108E+02 -0.36913768409E+01  0.24555280380E+02  0.47787271071E+02  0.20000000119E+02 0.  0.
         12    1    1    2    0    0 -0.35595438108E+02  0.36913768409E+01 -0.24555280380E+02  0.43400728929E+02  0.00000000000E+00 0. -1.
         11    1    3    3    0    0  0.22086698675E+01  0.25142234293E+01 -0.16696237300E+01  0.37399446115E+01  0.51100000000E-03 0. -1.
        -11    1    3    3    0    0  0.13830272262E+02  0.17588784662E+01  0.75328419626E+01  0.15846570374E+02  0.51100000000E-03 0.  1.
        -12    1    3    3    0    0  0.19556495978E+02 -0.79644787364E+01  0.18692062147E+02  0.28200756086E+02  0.00000000000E+00 0.  1.
</event>
<event>
 7    1  0.5417298E-010  0.4778728E+02  0.7816164E-02  0.1312668E+00
        -11   -1    0    0    0    0  0.00000000000E+00  0.00000000000E+00  0.45593999997E+02  0.45594000000E+02  0.51100000000E-03 0.  1.
         11   -1    0    0    0    0 -0.00000000000E+00 -0.00000000000E+00 -0.45593999997E+02  0.45594000000E+02  0.51100000000E-03 0. -1.
    9900012    2    1    2    0    0 -0.25930913836E+02  0.23361846298E+02  0.25796012180E+02  0.47787281121E+02  0.20000045942E+02 0.  0.
         12    1    1    2    0    0  0.25930913836E+02 -0.23361846298E+02 -0.25796012180E+02  0.43400718879E+02  0.00000000000E+00 0. -1.
         11    1    3    3    0    0 -0.10961609570E+02  0.32326806859E+01  0.68387701654E+01  0.13318253880E+02  0.51100000000E-03 0. -1.
        -11    1    3    3    0    0 -0.15113730446E+02  0.96101705768E+01  0.92649472471E+01  0.20164807816E+02  0.51100000000E-03 0.  1.
         12    1    3    3    0    0  0.14442617972E+00  0.10518995036E+02  0.96922947674E+01  0.14304219424E+02  0.00000000000E+00 0. -1.
</event>
<event>
 7    1  0.5417298E-010  0.4778722E+02  0.7816164E-02  0.1312668E+00
        -11   -1    0    0    0    0  0.00000000000E+00  0.00000000000E+00  0.45593999997E+02  0.45594000000E+02  0.51100000000E-03 0. -1.
         11   -1    0    0    0    0 -0.00000000000E+00 -0.00000000000E+00 -0.45593999997E+02  0.45594000000E+02  0.51100000000E-03 0.  1.
    9900012    2    1    2    0    0 -0.29614326312E+02  0.60558359842E+01 -0.31143963021E+02  0.47787217691E+02  0.19999756738E+02 0.  0.
         12    1    1    2    0    0  0.29614326312E+02 -0.60558359842E+01  0.31143963021E+02  0.43400782309E+02  0.00000000000E+00 0. -1.
         11    1    3    3    0    0 -0.14240698827E+01 -0.30080971956E+01 -0.27889798588E+01  0.43422382112E+01  0.51100000000E-03 0. -1.
        -11    1    3    3    0    0 -0.54679192060E+00  0.31765412035E+01 -0.79701666530E+01  0.85972642254E+01  0.51100000000E-03 0.  1.
         12    1    3    3    0    0 -0.27643464509E+02  0.58873919763E+01 -0.20384816509E+02  0.34847715254E+02  0.00000000000E+00 0. -1.
</event>
<event>
 7    1  0.5417298E-010  0.4778727E+02  0.7816164E-02  0.1312668E+00
        -11   -1    0    0    0    0  0.00000000000E+00  0.00000000000E+00  0.45593999997E+02  0.45594000000E+02  0.51100000000E-03 0.  1.
         11   -1    0    0    0    0 -0.00000000000E+00 -0.00000000000E+00 -0.45593999997E+02  0.45594000000E+02  0.51100000000E-03 0. -1.
    9900012    2    1    2    0    0  0.32151982593E+02 -0.27005856310E+01  0.29027229770E+02  0.47787271717E+02  0.20000003064E+02 0.  0.
         12    1    1    2    0    0 -0.32151982593E+02  0.27005856310E+01 -0.29027229770E+02  0.43400728283E+02  0.00000000000E+00 0. -1.
         11    1    3    3    0    0  0.94372217396E+01 -0.72807157295E+00  0.10846344305E+02  0.14395639181E+02  0.51100000000E-03 0. -1.
        -11    1    3    3    0    0  0.14174597318E+02 -0.32532824384E+00  0.19990251185E+02  0.24507859766E+02  0.51100000000E-03 0.  1.
         12    1    3    3    0    0  0.85401635358E+01 -0.16471858142E+01 -0.18093657202E+01  0.88837727702E+01  0.00000000000E+00 0. -1.
</event>
<event>
 7    1  0.5417298E-010  0.4778728E+02  0.7816164E-02  0.1312668E+00
        -11   -1    0    0    0    0  0.00000000000E+00  0.00000000000E+00  0.45593999997E+02  0.45594000000E+02  0.51100000000E-03 0. -1.
         11   -1    0    0    0    0 -0.00000000000E+00 -0.00000000000E+00 -0.45593999997E+02  0.45594000000E+02  0.51100000000E-03 0.  1.
    9900012    2    1    2    0    0  0.42298755397E+02  0.97164698908E+01 -0.16857933923E+00  0.47787275187E+02  0.20000018890E+02 0.  0.
         12    1    1    2    0    0 -0.42298755397E+02 -0.97164698908E+01  0.16857933923E+00  0.43400724813E+02  0.00000000000E+00 0. -1.
         11    1    3    3    0    0  0.21240611938E+01  0.16967607880E+01 -0.40755931135E+01  0.48990909988E+01  0.51100000000E-03 0. -1.
        -11    1    3    3    0    0  0.18979289733E+02 -0.14197142945E+01 -0.14098674076E+01  0.19084463676E+02  0.51100000000E-03 0.  1.
         12    1    3    3    0    0  0.21195404470E+02  0.94394233973E+01  0.53168811819E+01  0.23803720512E+02  0.00000000000E+00 0. -1.
</event>
<event>
 7    1  0.5417298E-010  0.4778727E+02  0.7816164E-02  0.1312668E+00
        -11   -1    0    0    0    0  0.00000000000E+00  0.00000000000E+00  0.45593999997E+02  0.45594000000E+02  0.51100000000E-03 0.  1.
         11   -1    0    0    0    0 -0.00000000000E+00 -0.00000000000E+00 -0.45593999997E+02  0.45594000000E+02  0.51100000000E-03 0. -1.
    9900012    2    1    2    0    0 -0.45935844968E+01  0.39731482438E+02  0.16850266302E+02  0.47787272014E+02  0.20000004421E+02 0.  0.
         12    1    1    2    0    0  0.45935844968E+01 -0.39731482438E+02 -0.16850266302E+02  0.43400727986E+02  0.00000000000E+00 0. -1.
         11    1    3    3    0    0 -0.45553372051E+01  0.14006242437E+02  0.12238875201E+02  0.19149830044E+02  0.51100000000E-03 0. -1.
        -11    1    3    3    0    0 -0.24260167255E+01  0.22749786104E+02  0.72485989305E+01  0.23999593990E+02  0.51100000000E-03 0.  1.
        -12    1    3    3    0    0  0.23877694338E+01  0.29754538963E+01 -0.26372078291E+01  0.46378479807E+01  0.00000000000E+00 0.  1.
</event>
<event>
 7    1  0.5417298E-010  0.4778727E+02  0.7816164E-02  0.1312668E+00
        -11   -1    0    0    0    0  0.00000000000E+00  0.00000000000E+00  0.45593999997E+02  0.45594000000E+02  0.51100000000E-03 0.  1.
         11   -1    0    0    0    0 -0.00000000000E+00 -0.00000000000E+00 -0.45593999997E+02  0.45594000000E+02  0.51100000000E-03 0. -1.
    9900012    2    1    2    0    0 -0.76330595181E+00 -0.41898436532E+02  0.11294316421E+02  0.47787271859E+02  0.20000003714E+02 0.  0.
         12    1    1    2    0    0  0.76330595181E+00  0.41898436532E+02 -0.11294316421E+02  0.43400728141E+02  0.00000000000E+00 0. -1.
         11    1    3    3    0    0  0.69903707256E+01 -0.15461705847E+02  0.37360477349E+01  0.17374915353E+02  0.51100000000E-03 0. -1.
        -11    1    3    3    0    0  0.99291325562E-01 -0.13370646146E+02 -0.58248273293E-01  0.13371141696E+02  0.51100000000E-03 0.  1.
        -12    1    3    3    0    0 -0.78529680030E+01 -0.13066084539E+02  0.76165169590E+01  0.17041214811E+02  0.00000000000E+00 0.  1.
</event>
<event>
 7    1  0.5417298E-010  0.4778727E+02  0.7816164E-02  0.1312668E+00
        -11   -1    0    0    0    0  0.00000000000E+00  0.00000000000E+00  0.45593999997E+02  0.45594000000E+02  0.51100000000E-03 0.  1.
         11   -1    0    0    0    0 -0.00000000000E+00 -0.00000000000E+00 -0.45593999997E+02  0.45594000000E+02  0.51100000000E-03 0. -1.
    9900012    2    1    2    0    0 -0.22684107043E+02 -0.30359106174E+02  0.21151345093E+02  0.47787269139E+02  0.19999991312E+02 0.  0.
         12    1    1    2    0    0  0.22684107043E+02  0.30359106174E+02 -0.21151345093E+02  0.43400730861E+02  0.00000000000E+00 0. -1.
         11    1    3    3    0    0 -0.51987093165E+01 -0.15754488788E+02  0.10418397422E+02  0.19590137841E+02  0.51100000000E-03 0. -1.
        -11    1    3    3    0    0 -0.21443475742E+01 -0.93058226988E+01  0.60494234682E+01  0.11304516229E+02  0.51100000000E-03 0.  1.
         12    1    3    3    0    0 -0.15341050152E+02 -0.52987946880E+01  0.46835242033E+01  0.16892615069E+02  0.00000000000E+00 0. -1.
</event>
<event>
 7    1  0.5417298E-010  0.4778730E+02  0.7816164E-02  0.1312668E+00
        -11   -1    0    0    0    0  0.00000000000E+00  0.00000000000E+00  0.45593999997E+02  0.45594000000E+02  0.51100000000E-03 0. -1.
         11   -1    0    0    0    0 -0.00000000000E+00 -0.00000000000E+00 -0.45593999997E+02  0.45594000000E+02  0.51100000000E-03 0.  1.
    9900012    2    1    2    0    0 -0.35368601612E+02 -0.16920064957E+02 -0.18611656728E+02  0.47787304795E+02  0.20000153880E+02 0.  0.
         12    1    1    2    0    0  0.35368601612E+02  0.16920064957E+02  0.18611656728E+02  0.43400695205E+02  0.00000000000E+00 0. -1.
         11    1    3    3    0    0 -0.48581602359E+01  0.18112834389E+01 -0.33078887381E+01  0.61501704642E+01  0.51100000000E-03 0. -1.
        -11    1    3    3    0    0 -0.37013866711E+01  0.39314985875E+00 -0.65963691628E+01  0.75740950940E+01  0.51100000000E-03 0.  1.
        -12    1    3    3    0    0 -0.26809054705E+02 -0.19124498255E+02 -0.87073988268E+01  0.34063039236E+02  0.00000000000E+00 0.  1.
</event>
<event>
 7    1  0.5417298E-010  0.4778724E+02  0.7816164E-02  0.1312668E+00
        -11   -1    0    0    0    0  0.00000000000E+00  0.00000000000E+00  0.45593999997E+02  0.45594000000E+02  0.51100000000E-03 0.  1.
         11   -1    0    0    0    0 -0.00000000000E+00 -0.00000000000E+00 -0.45593999997E+02  0.45594000000E+02  0.51100000000E-03 0. -1.
    9900012    2    1    2    0    0  0.65806952548E+01  0.21705534628E+02  0.37002569158E+02  0.47787240699E+02  0.19999861645E+02 0.  0.
         12    1    1    2    0    0 -0.65806952548E+01 -0.21705534628E+02 -0.37002569158E+02  0.43400759301E+02  0.00000000000E+00 0. -1.
         11    1    3    3    0    0 -0.24241570551E+01 -0.18793203786E+01  0.10518928219E+01  0.32426626842E+01  0.51100000000E-03 0. -1.
        -11    1    3    3    0    0  0.23305688830E+01  0.42462541012E+01  0.28151597970E+01  0.56024414459E+01  0.51100000000E-03 0.  1.
        -12    1    3    3    0    0  0.66742834270E+01  0.19338600906E+02  0.33135516540E+02  0.38942136569E+02  0.00000000000E+00 0.  1.
</event>
<event>
 7    1  0.5417298E-010  0.4778727E+02  0.7816164E-02  0.1312668E+00
        -11   -1    0    0    0    0  0.00000000000E+00  0.00000000000E+00  0.45593999997E+02  0.45594000000E+02  0.51100000000E-03 0.  1.
         11   -1    0    0    0    0 -0.00000000000E+00 -0.00000000000E+00 -0.45593999997E+02  0.45594000000E+02  0.51100000000E-03 0. -1.
    9900012    2    1    2    0    0 -0.22594317882E+02  0.19595441869E+02  0.31450581198E+02  0.47787267284E+02  0.19999982855E+02 0.  0.
         12    1    1    2    0    0  0.22594317882E+02 -0.19595441869E+02 -0.31450581198E+02  0.43400732716E+02  0.00000000000E+00 0. -1.
         11    1    3    3    0    0  0.14865615168E+01  0.29847729640E+01  0.25371030052E+01  0.41899435211E+01  0.51100000000E-03 0. -1.
        -11    1    3    3    0    0 -0.88034929336E+01 -0.11239382831E+01  0.10928707352E+02  0.14078400824E+02  0.51100000000E-03 0.  1.
        -12    1    3    3    0    0 -0.15277386466E+02  0.17734607188E+02  0.17984770840E+02  0.29518922939E+02  0.00000000000E+00 0.  1.
</event>
<event>
 7    1  0.5417298E-010  0.4778726E+02  0.7816164E-02  0.1312668E+00
        -11   -1    0    0    0    0  0.00000000000E+00  0.00000000000E+00  0.45593999997E+02  0.45594000000E+02  0.51100000000E-03 0.  1.
         11   -1    0    0    0    0 -0.00000000000E+00 -0.00000000000E+00 -0.45593999997E+02  0.45594000000E+02  0.51100000000E-03 0. -1.
    9900012    2    1    2    0    0  0.35994335838E+02  0.27333057843E+01  0.24094843073E+02  0.47787255356E+02  0.19999928472E+02 0.  0.
         12    1    1    2    0    0 -0.35994335838E+02 -0.27333057843E+01 -0.24094843073E+02  0.43400744644E+02  0.00000000000E+00 0. -1.
         11    1    3    3    0    0  0.18196057333E+02 -0.19664984636E+00  0.48846312050E+01  0.18841305579E+02  0.51100000000E-03 0. -1.
        -11    1    3    3    0    0  0.15924821777E+02  0.32690245696E+01  0.90444819845E+01  0.18603470776E+02  0.51100000000E-03 0.  1.
         12    1    3    3    0    0  0.18734567276E+01 -0.33906893894E+00  0.10165729883E+02  0.10342479002E+02  0.00000000000E+00 0. -1.
</event>
<event>
 7    1  0.5417298E-010  0.4778727E+02  0.7816164E-02  0.1312668E+00
        -11   -1    0    0    0    0  0.00000000000E+00  0.00000000000E+00  0.45593999997E+02  0.45594000000E+02  0.51100000000E-03 0.  1.
         11   -1    0    0    0    0 -0.00000000000E+00 -0.00000000000E+00 -0.45593999997E+02  0.45594000000E+02  0.51100000000E-03 0. -1.
    9900012    2    1    2    0    0  0.21340737396E+02  0.27339586123E+02  0.26091051969E+02  0.47787273798E+02  0.20000012556E+02 0.  0.
         12    1    1    2    0    0 -0.21340737396E+02 -0.27339586123E+02 -0.26091051969E+02  0.43400726202E+02  0.00000000000E+00 0. -1.
         11    1    3    3    0    0  0.23334116612E+01  0.12095056760E+02  0.52733707154E+01  0.13399389799E+02  0.51100000000E-03 0. -1.
        -11    1    3    3    0    0 -0.12795301516E+01  0.34349910518E+01  0.14005177523E+01  0.39240044814E+01  0.51100000000E-03 0.  1.
         12    1    3    3    0    0  0.20286855886E+02  0.11809538312E+02  0.19417163501E+02  0.30463879518E+02  0.00000000000E+00 0. -1.
</event>
<event>
 7    1  0.5417298E-010  0.4778727E+02  0.7816164E-02  0.1312668E+00
        -11   -1    0    0    0    0  0.00000000000E+00  0.00000000000E+00  0.45593999997E+02  0.45594000000E+02  0.51100000000E-03 0.  1.
         11   -1    0    0    0    0 -0.00000000000E+00 -0.00000000000E+00 -0.45593999997E+02  0.45594000000E+02  0.51100000000E-03 0. -1.
    9900012    2    1    2    0    0 -0.27442113772E+02  0.75670202301E+01  0.32761166844E+02  0.47787268941E+02  0.19999990412E+02 0.  0.
         12    1    1    2    0    0  0.27442113772E+02 -0.75670202301E+01 -0.32761166844E+02  0.43400731059E+02  0.00000000000E+00 0. -1.
         11    1    3    3    0    0  0.76002833282E+00  0.11532182181E+01  0.86770285985E+01  0.87862609161E+01  0.51100000000E-03 0.  1.
        -11    1    3    3    0    0 -0.10715628237E+02  0.72137578168E+01  0.12731883686E+02  0.18137360690E+02  0.51100000000E-03 0. -1.
         12    1    3    3    0    0 -0.17486513868E+02 -0.79995580486E+00  0.11352254559E+02  0.20863647335E+02  0.00000000000E+00 0. -1.
</event>
<event>
 7    1  0.5417298E-010  0.4778728E+02  0.7816164E-02  0.1312668E+00
        -11   -1    0    0    0    0  0.00000000000E+00  0.00000000000E+00  0.45593999997E+02  0.45594000000E+02  0.51100000000E-03 0.  1.
         11   -1    0    0    0    0 -0.00000000000E+00 -0.00000000000E+00 -0.45593999997E+02  0.45594000000E+02  0.51100000000E-03 0. -1.
    9900012    2    1    2    0    0  0.92566411730E+01 -0.40231158304E+02  0.13393699001E+02  0.47787277918E+02  0.20000031339E+02 0.  0.
         12    1    1    2    0    0 -0.92566411730E+01  0.40231158304E+02 -0.13393699001E+02  0.43400722082E+02  0.00000000000E+00 0. -1.
         11    1    3    3    0    0 -0.19886026279E+01 -0.12698314632E+02  0.35235119627E+00  0.12857911438E+02  0.51100000000E-03 0. -1.
        -11    1    3    3    0    0  0.11602900078E+02 -0.13135144953E+02  0.41734498456E+01  0.18016020844E+02  0.51100000000E-03 0.  1.
         12    1    3    3    0    0 -0.35765627735E+00 -0.14397698718E+02  0.88678979591E+01  0.16913345636E+02  0.00000000000E+00 0. -1.
</event>
<event>
 7    1  0.5417298E-010  0.4778727E+02  0.7816164E-02  0.1312668E+00
        -11   -1    0    0    0    0  0.00000000000E+00  0.00000000000E+00  0.45593999997E+02  0.45594000000E+02  0.51100000000E-03 0.  1.
         11   -1    0    0    0    0 -0.00000000000E+00 -0.00000000000E+00 -0.45593999997E+02  0.45594000000E+02  0.51100000000E-03 0. -1.
    9900012    2    1    2    0    0  0.13056913048E+02  0.27837979198E+02  0.30629844846E+02  0.47787268906E+02  0.19999990251E+02 0.  0.
         12    1    1    2    0    0 -0.13056913048E+02 -0.27837979198E+02 -0.30629844846E+02  0.43400731094E+02  0.00000000000E+00 0. -1.
         11    1    3    3    0    0  0.15587518902E+01 -0.96292899228E+00  0.19612237521E+01  0.26839036061E+01  0.51100000000E-03 0. -1.
        -11    1    3    3    0    0  0.14214354958E+01 -0.19766163255E+01  0.20328727465E+01  0.31717602103E+01  0.51100000000E-03 0.  1.
        -12    1    3    3    0    0  0.10076725662E+02  0.30777524516E+02  0.26635748347E+02  0.41931605090E+02  0.00000000000E+00 0.  1.
</event>
<event>
 7    1  0.5417298E-010  0.4778726E+02  0.7816164E-02  0.1312668E+00
        -11   -1    0    0    0    0  0.00000000000E+00  0.00000000000E+00  0.45593999997E+02  0.45594000000E+02  0.51100000000E-03 0.  1.
         11   -1    0    0    0    0 -0.00000000000E+00 -0.00000000000E+00 -0.45593999997E+02  0.45594000000E+02  0.51100000000E-03 0. -1.
    9900012    2    1    2    0    0 -0.26061135911E+02 -0.26750889129E+02  0.22109522218E+02  0.47787264443E+02  0.19999969903E+02 0.  0.
         12    1    1    2    0    0  0.26061135911E+02  0.26750889129E+02 -0.22109522218E+02  0.43400735557E+02  0.00000000000E+00 0. -1.
         11    1    3    3    0    0 -0.78744161103E+01 -0.12755476081E+02 -0.51540821825E+00  0.14999141476E+02  0.51100000000E-03 0. -1.
        -11    1    3    3    0    0 -0.74499859307E+01 -0.76722270045E+01  0.69085803738E+01  0.12731607935E+02  0.51100000000E-03 0.  1.
         12    1    3    3    0    0 -0.10736733870E+02 -0.63231860431E+01  0.15716350063E+02  0.20056515032E+02  0.00000000000E+00 0. -1.
</event>
<event>
 7    1  0.5417298E-010  0.4778728E+02  0.7816164E-02  0.1312668E+00
        -11   -1    0    0    0    0  0.00000000000E+00  0.00000000000E+00  0.45593999997E+02  0.45594000000E+02  0.51100000000E-03 0.  1.
         11   -1    0    0    0    0 -0.00000000000E+00 -0.00000000000E+00 -0.45593999997E+02  0.45594000000E+02  0.51100000000E-03 0. -1.
    9900012    2    1    2    0    0  0.25825433136E+02 -0.12113968295E+02  0.32709656418E+02  0.47787275956E+02  0.20000022396E+02 0.  0.
         12    1    1    2    0    0 -0.25825433136E+02  0.12113968295E+02 -0.32709656418E+02  0.43400724044E+02  0.00000000000E+00 0. -1.
         11    1    3    3    0    0  0.33627144945E+01 -0.66041608613E+01  0.12357957840E+02  0.14409785276E+02  0.51100000000E-03 0. -1.
        -11    1    3    3    0    0  0.30750874580E+01  0.27307836355E+01  0.79001943446E+01  0.89065376596E+01  0.51100000000E-03 0.  1.
         12    1    3    3    0    0  0.19387631184E+02 -0.82405910691E+01  0.12451504233E+02  0.24470953021E+02  0.00000000000E+00 0. -1.
</event>
<event>
 7    1  0.5417298E-010  0.4778727E+02  0.7816164E-02  0.1312668E+00
        -11   -1    0    0    0    0  0.00000000000E+00  0.00000000000E+00  0.45593999997E+02  0.45594000000E+02  0.51100000000E-03 0.  1.
         11   -1    0    0    0    0 -0.00000000000E+00 -0.00000000000E+00 -0.45593999997E+02  0.45594000000E+02  0.51100000000E-03 0. -1.
    9900012    2    1    2    0    0 -0.23859353245E+02  0.29084862609E+02  0.21643133919E+02  0.47787271711E+02  0.20000003037E+02 0.  0.
         12    1    1    2    0    0  0.23859353245E+02 -0.29084862609E+02 -0.21643133919E+02  0.43400728289E+02  0.00000000000E+00 0. -1.
         11    1    3    3    0    0 -0.22473328398E+02  0.19267127028E+02  0.11587836286E+02  0.31789158895E+02  0.51100000000E-03 0. -1.
        -11    1    3    3    0    0 -0.34806558683E+01  0.23831233323E+01  0.58234942575E+01  0.71907807447E+01  0.51100000000E-03 0.  1.
         12    1    3    3    0    0  0.20946310213E+01  0.74346122488E+01  0.42318033751E+01  0.88073320711E+01  0.00000000000E+00 0. -1.
</event>
<event>
 7    1  0.5417298E-010  0.4778730E+02  0.7816164E-02  0.1312668E+00
        -11   -1    0    0    0    0  0.00000000000E+00  0.00000000000E+00  0.45593999997E+02  0.45594000000E+02  0.51100000000E-03 0. -1.
         11   -1    0    0    0    0 -0.00000000000E+00 -0.00000000000E+00 -0.45593999997E+02  0.45594000000E+02  0.51100000000E-03 0.  1.
    9900012    2    1    2    0    0  0.27244480921E+02  0.29108123763E+02 -0.17148654284E+02  0.47787297777E+02  0.20000121884E+02 0.  0.
         12    1    1    2    0    0 -0.27244480921E+02 -0.29108123763E+02  0.17148654284E+02  0.43400702223E+02  0.00000000000E+00 0. -1.
         11    1    3    3    0    0 -0.90227127775E+00  0.77073717535E-01 -0.19853762016E+01  0.21821440694E+01  0.51100000000E-03 0. -1.
        -11    1    3    3    0    0  0.17765497915E+02  0.14551902225E+02 -0.15636717729E+02  0.27782687345E+02  0.51100000000E-03 0.  1.
        -12    1    3    3    0    0  0.10381254284E+02  0.14479147821E+02  0.47343964624E+00  0.17822466362E+02  0.00000000000E+00 0.  1.
</event>
<event>
 7    1  0.5417298E-010  0.4778727E+02  0.7816164E-02  0.1312668E+00
        -11   -1    0    0    0    0  0.00000000000E+00  0.00000000000E+00  0.45593999997E+02  0.45594000000E+02  0.51100000000E-03 0.  1.
         11   -1    0    0    0    0 -0.00000000000E+00 -0.00000000000E+00 -0.45593999997E+02  0.45594000000E+02  0.51100000000E-03 0. -1.
    9900012    2    1    2    0    0 -0.26003821752E+02  0.30152680622E+02 -0.17269630089E+02  0.47787273995E+02  0.20000013451E+02 0.  0.
         12    1    1    2    0    0  0.26003821752E+02 -0.30152680622E+02  0.17269630089E+02  0.43400726005E+02  0.00000000000E+00 0. -1.
         11    1    3    3    0    0 -0.60687580919E+01  0.69409745021E+01 -0.18497407828E+01  0.94036425411E+01  0.51100000000E-03 0. -1.
        -11    1    3    3    0    0 -0.21030572529E+02  0.21304873649E+02 -0.18048730445E+02  0.34956248269E+02  0.51100000000E-03 0.  1.
         12    1    3    3    0    0  0.10955088691E+01  0.19068324711E+01  0.26288411396E+01  0.34273831844E+01  0.00000000000E+00 0. -1.
</event>
<event>
 7    1  0.5417298E-010  0.4778727E+02  0.7816164E-02  0.1312668E+00
        -11   -1    0    0    0    0  0.00000000000E+00  0.00000000000E+00  0.45593999997E+02  0.45594000000E+02  0.51100000000E-03 0.  1.
         11   -1    0    0    0    0 -0.00000000000E+00 -0.00000000000E+00 -0.45593999997E+02  0.45594000000E+02  0.51100000000E-03 0. -1.
    9900012    2    1    2    0    0 -0.25977593254E+02  0.18533363793E+02  0.29416019247E+02  0.47787272896E+02  0.20000008443E+02 0.  0.
         12    1    1    2    0    0  0.25977593254E+02 -0.18533363793E+02 -0.29416019247E+02  0.43400727104E+02  0.00000000000E+00 0. -1.
         11    1    3    3    0    0  0.20101839352E+01 -0.14039312888E+01  0.38716932776E+01  0.45827799002E+01  0.51100000000E-03 0. -1.
        -11    1    3    3    0    0 -0.11409963987E+01  0.26479656014E+01  0.16501286881E+01  0.33221257587E+01  0.51100000000E-03 0.  1.
        -12    1    3    3    0    0 -0.26846780791E+02  0.17289329480E+02  0.23894197282E+02  0.39882367237E+02  0.00000000000E+00 0.  1.
</event>
<event>
 7    1  0.5417298E-010  0.4778727E+02  0.7816164E-02  0.1312668E+00
        -11   -1    0    0    0    0  0.00000000000E+00  0.00000000000E+00  0.45593999997E+02  0.45594000000E+02  0.51100000000E-03 0.  1.
         11   -1    0    0    0    0 -0.00000000000E+00 -0.00000000000E+00 -0.45593999997E+02  0.45594000000E+02  0.51100000000E-03 0. -1.
    9900012    2    1    2    0    0 -0.23447389671E+02  0.23443840821E+02  0.28004097162E+02  0.47787271750E+02  0.20000003217E+02 0.  0.
         12    1    1    2    0    0  0.23447389671E+02 -0.23443840821E+02 -0.28004097162E+02  0.43400728250E+02  0.00000000000E+00 0. -1.
         11    1    3    3    0    0 -0.23292188573E+01 -0.60645773830E+00  0.68597932418E+01  0.72697878274E+01  0.51100000000E-03 0.  1.
        -11    1    3    3    0    0 -0.10152963522E+02  0.12772297089E+02  0.18326496570E+02  0.24537210885E+02  0.51100000000E-03 0. -1.
         12    1    3    3    0    0 -0.10965207291E+02  0.11278001470E+02  0.28178073496E+01  0.15980273037E+02  0.00000000000E+00 0. -1.
</event>
<event>
 7    1  0.5417298E-010  0.4778727E+02  0.7816164E-02  0.1312668E+00
        -11   -1    0    0    0    0  0.00000000000E+00  0.00000000000E+00  0.45593999997E+02  0.45594000000E+02  0.51100000000E-03 0.  1.
         11   -1    0    0    0    0 -0.00000000000E+00 -0.00000000000E+00 -0.45593999997E+02  0.45594000000E+02  0.51100000000E-03 0. -1.
    9900012    2    1    2    0    0  0.34809523506E+02 -0.25390154893E+02  0.52211269510E+01  0.47787273522E+02  0.20000011296E+02 0.  0.
         12    1    1    2    0    0 -0.34809523506E+02  0.25390154893E+02 -0.52211269510E+01  0.43400726478E+02  0.00000000000E+00 0. -1.
         11    1    3    3    0    0  0.18014228588E+02 -0.95114179223E+01  0.19691747261E+01  0.20465999899E+02  0.51100000000E-03 0. -1.
        -11    1    3    3    0    0  0.90482713928E+01 -0.11879135016E+01 -0.29528394066E+01  0.95917472082E+01  0.51100000000E-03 0.  1.
        -12    1    3    3    0    0  0.77470235255E+01 -0.14690823469E+02  0.62047916315E+01  0.17729526415E+02  0.00000000000E+00 0.  1.
</event>
<event>
 7    1  0.5417298E-010  0.4778727E+02  0.7816164E-02  0.1312668E+00
        -11   -1    0    0    0    0  0.00000000000E+00  0.00000000000E+00  0.45593999997E+02  0.45594000000E+02  0.51100000000E-03 0.  1.
         11   -1    0    0    0    0 -0.00000000000E+00 -0.00000000000E+00 -0.45593999997E+02  0.45594000000E+02  0.51100000000E-03 0. -1.
    9900012    2    1    2    0    0 -0.30727325454E+02 -0.90869963218E+01  0.29272533159E+02  0.47787271559E+02  0.20000002345E+02 0.  0.
         12    1    1    2    0    0  0.30727325454E+02  0.90869963218E+01 -0.29272533159E+02  0.43400728441E+02  0.00000000000E+00 0. -1.
         11    1    3    3    0    0 -0.74494191092E+01 -0.25635743984E+00  0.78651679209E+01  0.10836070823E+02  0.51100000000E-03 0.  1.
        -11    1    3    3    0    0 -0.44692066564E-02  0.16613237471E+01  0.78925182030E+01  0.80654733533E+01  0.51100000000E-03 0. -1.
         12    1    3    3    0    0 -0.23273437138E+02 -0.10491962629E+02  0.13514847035E+02  0.28885727382E+02  0.00000000000E+00 0. -1.
</event>
<event>
 7    1  0.5417298E-010  0.4778727E+02  0.7816164E-02  0.1312668E+00
        -11   -1    0    0    0    0  0.00000000000E+00  0.00000000000E+00  0.45593999997E+02  0.45594000000E+02  0.51100000000E-03 0. -1.
         11   -1    0    0    0    0 -0.00000000000E+00 -0.00000000000E+00 -0.45593999997E+02  0.45594000000E+02  0.51100000000E-03 0.  1.
    9900012    2    1    2    0    0 -0.13536177202E+02 -0.36857909455E+02 -0.18490263556E+02  0.47787269258E+02  0.19999991853E+02 0.  0.
         12    1    1    2    0    0  0.13536177202E+02  0.36857909455E+02  0.18490263556E+02  0.43400730742E+02  0.00000000000E+00 0. -1.
         11    1    3    3    0    0 -0.71477328480E+01 -0.13246492806E+02 -0.12388364336E+02  0.19494389647E+02  0.51100000000E-03 0. -1.
        -11    1    3    3    0    0 -0.75090145557E+01 -0.22490980029E+02 -0.86938156892E+01  0.25254938403E+02  0.51100000000E-03 0.  1.
         12    1    3    3    0    0  0.11205702014E+01 -0.11204366193E+01  0.25919164692E+01  0.30379412071E+01  0.00000000000E+00 0. -1.
</event>
<event>
 7    1  0.5417298E-010  0.4778727E+02  0.7816164E-02  0.1312668E+00
        -11   -1    0    0    0    0  0.00000000000E+00  0.00000000000E+00  0.45593999997E+02  0.45594000000E+02  0.51100000000E-03 0.  1.
         11   -1    0    0    0    0 -0.00000000000E+00 -0.00000000000E+00 -0.45593999997E+02  0.45594000000E+02  0.51100000000E-03 0. -1.
    9900012    2    1    2    0    0 -0.30336598907E+02  0.30309676001E+02 -0.66811420460E+01  0.47787270149E+02  0.19999995917E+02 0.  0.
         12    1    1    2    0    0  0.30336598907E+02 -0.30309676001E+02  0.66811420460E+01  0.43400729851E+02  0.00000000000E+00 0. -1.
         11    1    3    3    0    0 -0.13638511896E+02  0.10631937426E+02  0.23614442471E+00  0.17294590617E+02  0.51100000000E-03 0.  1.
        -11    1    3    3    0    0 -0.11329955674E+02  0.21102165160E+02 -0.42271156771E+01  0.24321549647E+02  0.51100000000E-03 0. -1.
         12    1    3    3    0    0 -0.53681313381E+01 -0.14244265850E+01 -0.26901707937E+01  0.61711298850E+01  0.00000000000E+00 0. -1.
</event>
<event>
 7    1  0.5417298E-010  0.4778727E+02  0.7816164E-02  0.1312668E+00
        -11   -1    0    0    0    0  0.00000000000E+00  0.00000000000E+00  0.45593999997E+02  0.45594000000E+02  0.51100000000E-03 0.  1.
         11   -1    0    0    0    0 -0.00000000000E+00 -0.00000000000E+00 -0.45593999997E+02  0.45594000000E+02  0.51100000000E-03 0. -1.
    9900012    2    1    2    0    0 -0.39782966948E+02 -0.84018553460E+00  0.17327230094E+02  0.47787271047E+02  0.20000000013E+02 0.  0.
         12    1    1    2    0    0  0.39782966948E+02  0.84018553460E+00 -0.17327230094E+02  0.43400728953E+02  0.00000000000E+00 0. -1.
         11    1    3    3    0    0 -0.19977930753E+02  0.14283923190E+01  0.19306176868E+01  0.20121762018E+02  0.51100000000E-03 0. -1.
        -11    1    3    3    0    0 -0.19293774508E+01  0.35477499184E+01  0.15824490249E+01  0.43374153604E+01  0.51100000000E-03 0.  1.
        -12    1    3    3    0    0 -0.17875658744E+02 -0.58163277719E+01  0.13814163382E+02  0.23328093669E+02  0.00000000000E+00 0.  1.
</event>
<event>
 7    1  0.5417298E-010  0.4778727E+02  0.7816164E-02  0.1312668E+00
        -11   -1    0    0    0    0  0.00000000000E+00  0.00000000000E+00  0.45593999997E+02  0.45594000000E+02  0.51100000000E-03 0. -1.
         11   -1    0    0    0    0 -0.00000000000E+00 -0.00000000000E+00 -0.45593999997E+02  0.45594000000E+02  0.51100000000E-03 0.  1.
    9900012    2    1    2    0    0  0.21239584352E+02  0.35971152447E+02  0.11771983190E+02  0.47787270282E+02  0.19999996525E+02 0.  0.
         12    1    1    2    0    0 -0.21239584352E+02 -0.35971152447E+02 -0.11771983190E+02  0.43400729718E+02  0.00000000000E+00 0. -1.
         11    1    3    3    0    0  0.10528805066E+02  0.87977593108E+01 -0.91421375421E+00  0.13751076033E+02  0.51100000000E-03 0. -1.
        -11    1    3    3    0    0  0.56632035269E+01  0.46069283298E+01 -0.67165809195E+00  0.73312200674E+01  0.51100000000E-03 0.  1.
        -12    1    3    3    0    0  0.50475757594E+01  0.22566464806E+02  0.13357855036E+02  0.26704974182E+02  0.00000000000E+00 0.  1.
</event>
<event>
 7    1  0.5417298E-010  0.4778727E+02  0.7816164E-02  0.1312668E+00
        -11   -1    0    0    0    0  0.00000000000E+00  0.00000000000E+00  0.45593999997E+02  0.45594000000E+02  0.51100000000E-03 0.  1.
         11   -1    0    0    0    0 -0.00000000000E+00 -0.00000000000E+00 -0.45593999997E+02  0.45594000000E+02  0.51100000000E-03 0. -1.
    9900012    2    1    2    0    0  0.23395144963E+02 -0.48475149451E+01  0.36232474057E+02  0.47787269761E+02  0.19999994147E+02 0.  0.
         12    1    1    2    0    0 -0.23395144963E+02  0.48475149451E+01 -0.36232474057E+02  0.43400730239E+02  0.00000000000E+00 0. -1.
         11    1    3    3    0    0  0.15850595350E+02  0.58503443545E+01  0.17625087585E+02  0.24415397081E+02  0.51100000000E-03 0. -1.
        -11    1    3    3    0    0  0.61916186687E+01 -0.44095002641E+01  0.86242657250E+01  0.11495990339E+02  0.51100000000E-03 0.  1.
         12    1    3    3    0    0  0.13529309443E+01 -0.62883590354E+01  0.99831207477E+01  0.11875882340E+02  0.00000000000E+00 0. -1.
</event>
<event>
 7    1  0.5417298E-010  0.4778727E+02  0.7816164E-02  0.1312668E+00
        -11   -1    0    0    0    0  0.00000000000E+00  0.00000000000E+00  0.45593999997E+02  0.45594000000E+02  0.51100000000E-03 0.  1.
         11   -1    0    0    0    0 -0.00000000000E+00 -0.00000000000E+00 -0.45593999997E+02  0.45594000000E+02  0.51100000000E-03 0. -1.
    9900012    2    1    2    0    0 -0.40824963030E+02  0.70669396936E+01  0.12923008923E+02  0.47787269561E+02  0.19999993238E+02 0.  0.
         12    1    1    2    0    0  0.40824963030E+02 -0.70669396936E+01 -0.12923008923E+02  0.43400730439E+02  0.00000000000E+00 0. -1.
         11    1    3    3    0    0 -0.67715020877E+01 -0.23097958647E-01  0.54250977123E+01  0.86767193967E+01  0.51100000000E-03 0.  1.
        -11    1    3    3    0    0  0.18336242990E+01  0.44972750463E+00  0.31160783444E+00  0.19135131569E+01  0.51100000000E-03 0. -1.
         12    1    3    3    0    0 -0.35887085241E+02  0.66403101476E+01  0.71863033757E+01  0.37197037008E+02  0.00000000000E+00 0. -1.
</event>
<event>
 7    1  0.5417298E-010  0.4778727E+02  0.7816164E-02  0.1312668E+00
        -11   -1    0    0    0    0  0.00000000000E+00  0.00000000000E+00  0.45593999997E+02  0.45594000000E+02  0.51100000000E-03 0.  1.
         11   -1    0    0    0    0 -0.00000000000E+00 -0.00000000000E+00 -0.45593999997E+02  0.45594000000E+02  0.51100000000E-03 0. -1.
    9900012    2    1    2    0    0 -0.23119736157E+02 -0.25606892329E+02  0.26332267181E+02  0.47787269250E+02  0.19999991818E+02 0.  0.
         12    1    1    2    0    0  0.23119736157E+02  0.25606892329E+02 -0.26332267181E+02  0.43400730750E+02  0.00000000000E+00 0. -1.
         11    1    3    3    0    0 -0.14436668072E+02 -0.10002404503E+02  0.47361684583E+01  0.18190568237E+02  0.51100000000E-03 0. -1.
        -11    1    3    3    0    0 -0.56682502201E+01 -0.48271753055E+01  0.32874123627E+01  0.81386585069E+01  0.51100000000E-03 0.  1.
        -12    1    3    3    0    0 -0.30148178643E+01 -0.10777312521E+02  0.18308686360E+02  0.21458042506E+02  0.00000000000E+00 0.  1.
</event>
<event>
 7    1  0.5417298E-010  0.4778727E+02  0.7816164E-02  0.1312668E+00
        -11   -1    0    0    0    0  0.00000000000E+00  0.00000000000E+00  0.45593999997E+02  0.45594000000E+02  0.51100000000E-03 0. -1.
         11   -1    0    0    0    0 -0.00000000000E+00 -0.00000000000E+00 -0.45593999997E+02  0.45594000000E+02  0.51100000000E-03 0.  1.
    9900012    2    1    2    0    0 -0.36248276816E+02  0.23261586670E+02 -0.53464287596E+01  0.47787270893E+02  0.19999999308E+02 0.  0.
         12    1    1    2    0    0  0.36248276816E+02 -0.23261586670E+02  0.53464287596E+01  0.43400729107E+02  0.00000000000E+00 0. -1.
         11    1    3    3    0    0 -0.15595490975E+01 -0.75630034349E+00  0.48652584613E+00  0.18002475544E+01  0.51100000000E-03 0. -1.
        -11    1    3    3    0    0 -0.16453409239E+02  0.16781041727E+02 -0.10624659231E+02  0.25791499008E+02  0.51100000000E-03 0.  1.
        -12    1    3    3    0    0 -0.18235318480E+02  0.72368452865E+01  0.47917046251E+01  0.20195524330E+02  0.00000000000E+00 0.  1.
</event>
<event>
 7    1  0.5417298E-010  0.4778727E+02  0.7816164E-02  0.1312668E+00
        -11   -1    0    0    0    0  0.00000000000E+00  0.00000000000E+00  0.45593999997E+02  0.45594000000E+02  0.51100000000E-03 0.  1.
         11   -1    0    0    0    0 -0.00000000000E+00 -0.00000000000E+00 -0.45593999997E+02  0.45594000000E+02  0.51100000000E-03 0. -1.
    9900012    2    1    2    0    0  0.26235586615E+02  0.95652958980E+01  0.33223824562E+02  0.47787269486E+02  0.19999992894E+02 0.  0.
         12    1    1    2    0    0 -0.26235586615E+02 -0.95652958980E+01 -0.33223824562E+02  0.43400730514E+02  0.00000000000E+00 0. -1.
         11    1    3    3    0    0  0.16821830770E+02  0.89534149838E+01  0.19414540415E+02  0.27204080763E+02  0.51100000000E-03 0. -1.
        -11    1    3    3    0    0  0.80043777831E+01  0.49826360250E+01  0.12771950537E+02  0.15875120353E+02  0.51100000000E-03 0.  1.
         12    1    3    3    0    0  0.14093780616E+01 -0.43707551108E+01  0.10373336095E+01  0.47080683700E+01  0.00000000000E+00 0. -1.
</event>
<event>
 7    1  0.5417298E-010  0.4778727E+02  0.7816164E-02  0.1312668E+00
        -11   -1    0    0    0    0  0.00000000000E+00  0.00000000000E+00  0.45593999997E+02  0.45594000000E+02  0.51100000000E-03 0.  1.
         11   -1    0    0    0    0 -0.00000000000E+00 -0.00000000000E+00 -0.45593999997E+02  0.45594000000E+02  0.51100000000E-03 0. -1.
    9900012    2    1    2    0    0  0.22656957771E+02  0.23396768962E+02  0.28685825663E+02  0.47787272733E+02  0.20000007699E+02 0.  0.
         12    1    1    2    0    0 -0.22656957771E+02 -0.23396768962E+02 -0.28685825663E+02  0.43400727267E+02  0.00000000000E+00 0. -1.
         11    1    3    3    0    0  0.90617241830E+01  0.11707965624E+02  0.44740481128E+01  0.15466363858E+02  0.51100000000E-03 0. -1.
        -11    1    3    3    0    0  0.17068139175E+01  0.78015394668E+01  0.50852071919E+01  0.94676588578E+01  0.51100000000E-03 0.  1.
         12    1    3    3    0    0  0.11888419671E+02  0.38872638717E+01  0.19126570358E+02  0.22853250017E+02  0.00000000000E+00 0. -1.
</event>
<event>
 7    1  0.5417298E-010  0.4778727E+02  0.7816164E-02  0.1312668E+00
        -11   -1    0    0    0    0  0.00000000000E+00  0.00000000000E+00  0.45593999997E+02  0.45594000000E+02  0.51100000000E-03 0.  1.
         11   -1    0    0    0    0 -0.00000000000E+00 -0.00000000000E+00 -0.45593999997E+02  0.45594000000E+02  0.51100000000E-03 0. -1.
    9900012    2    1    2    0    0 -0.13898498240E+02 -0.22418233496E+01  0.41053976775E+02  0.47787273804E+02  0.20000012582E+02 0.  0.
         12    1    1    2    0    0  0.13898498240E+02  0.22418233496E+01 -0.41053976775E+02  0.43400726196E+02  0.00000000000E+00 0. -1.
         11    1    3    3    0    0  0.57783977093E+00 -0.20061038166E+01  0.18821433531E+02  0.18936861190E+02  0.51100000000E-03 0. -1.
        -11    1    3    3    0    0  0.10353641225E+01  0.21717257770E+01  0.49464078940E+01  0.55004838906E+01  0.51100000000E-03 0.  1.
         12    1    3    3    0    0 -0.15511702134E+02 -0.24074453099E+01  0.17286135351E+02  0.23349928723E+02  0.00000000000E+00 0. -1.
</event>
<event>
 7    1  0.5417298E-010  0.4778727E+02  0.7816164E-02  0.1312668E+00
        -11   -1    0    0    0    0  0.00000000000E+00  0.00000000000E+00  0.45593999997E+02  0.45594000000E+02  0.51100000000E-03 0. -1.
         11   -1    0    0    0    0 -0.00000000000E+00 -0.00000000000E+00 -0.45593999997E+02  0.45594000000E+02  0.51100000000E-03 0.  1.
    9900012    2    1    2    0    0  0.11385336720E+01  0.19918656841E+02 -0.38543148676E+02  0.47787268910E+02  0.19999990270E+02 0.  0.
         12    1    1    2    0    0 -0.11385336720E+01 -0.19918656841E+02  0.38543148676E+02  0.43400731090E+02  0.00000000000E+00 0. -1.
         11    1    3    3    0    0 -0.40060385799E+01  0.72647728241E+01 -0.13683384893E+02  0.16001884004E+02  0.51100000000E-03 0. -1.
        -11    1    3    3    0    0  0.51730039622E+00  0.11535015730E+02 -0.24410462981E+02  0.27003608847E+02  0.51100000000E-03 0.  1.
         12    1    3    3    0    0  0.46272718557E+01  0.11188682866E+01 -0.44930080247E+00  0.47817760592E+01  0.00000000000E+00 0. -1.
</event>
<event>
 7    1  0.5417298E-010  0.4778727E+02  0.7816164E-02  0.1312668E+00
        -11   -1    0    0    0    0  0.00000000000E+00  0.00000000000E+00  0.45593999997E+02  0.45594000000E+02  0.51100000000E-03 0.  1.
         11   -1    0    0    0    0 -0.00000000000E+00 -0.00000000000E+00 -0.45593999997E+02  0.45594000000E+02  0.51100000000E-03 0. -1.
    9900012    2    1    2    0    0  0.26461832826E+02  0.25334170948E+02  0.23271751409E+02  0.47787271576E+02  0.20000002422E+02 0.  0.
         12    1    1    2    0    0 -0.26461832826E+02 -0.25334170948E+02 -0.23271751409E+02  0.43400728424E+02  0.00000000000E+00 0. -1.
         11    1    3    3    0    0  0.76092659117E+01  0.91815794694E+00  0.74719789622E+01  0.10703943741E+02  0.51100000000E-03 0. -1.
        -11    1    3    3    0    0  0.14233832546E+02  0.79915990551E+01  0.58977204456E+01  0.17356576596E+02  0.51100000000E-03 0.  1.
         12    1    3    3    0    0  0.46187343679E+01  0.16424413946E+02  0.99020520011E+01  0.19726751239E+02  0.00000000000E+00 0. -1.
</event>
<event>
 7    1  0.5417298E-010  0.4778727E+02  0.7816164E-02  0.1312668E+00
        -11   -1    0    0    0    0  0.00000000000E+00  0.00000000000E+00  0.45593999997E+02  0.45594000000E+02  0.51100000000E-03 0.  1.
         11   -1    0    0    0    0 -0.00000000000E+00 -0.00000000000E+00 -0.45593999997E+02  0.45594000000E+02  0.51100000000E-03 0. -1.
    9900012    2    1    2    0    0 -0.37818388986E+02 -0.18014760006E+02  0.11351695111E+02  0.47787272985E+02  0.20000008847E+02 0.  0.
         12    1    1    2    0    0  0.37818388986E+02  0.18014760006E+02 -0.11351695111E+02  0.43400727015E+02  0.00000000000E+00 0. -1.
         11    1    3    3    0    0 -0.56719561474E+01 -0.58227119279E+01  0.76168684306E+01  0.11139647467E+02  0.51100000000E-03 0.  1.
        -11    1    3    3    0    0 -0.14150120517E+02 -0.11842634230E+02  0.15817643388E+01  0.18519607847E+02  0.51100000000E-03 0. -1.
        -12    1    3    3    0    0 -0.17996312322E+02 -0.34941384812E+00  0.21530623415E+01  0.18128017671E+02  0.00000000000E+00 0.  1.
</event>
<event>
 7    1  0.5417298E-010  0.4778727E+02  0.7816164E-02  0.1312668E+00
        -11   -1    0    0    0    0  0.00000000000E+00  0.00000000000E+00  0.45593999997E+02  0.45594000000E+02  0.51100000000E-03 0.  1.
         11   -1    0    0    0    0 -0.00000000000E+00 -0.00000000000E+00 -0.45593999997E+02  0.45594000000E+02  0.51100000000E-03 0. -1.
    9900012    2    1    2    0    0  0.17215161548E+02 -0.14586582326E+02  0.37074159218E+02  0.47787268983E+02  0.19999990603E+02 0.  0.
         12    1    1    2    0    0 -0.17215161548E+02  0.14586582326E+02 -0.37074159218E+02  0.43400731017E+02  0.00000000000E+00 0. -1.
         11    1    3    3    0    0  0.50280885654E+01 -0.56436072160E+00  0.14402946188E+02  0.15265812681E+02  0.51100000000E-03 0. -1.
        -11    1    3    3    0    0  0.90861054202E+01 -0.70224378182E+01  0.37019466290E+01  0.12065502630E+02  0.51100000000E-03 0.  1.
         12    1    3    3    0    0  0.31009675626E+01 -0.69997837859E+01  0.18969266401E+02  0.20455953672E+02  0.00000000000E+00 0. -1.
</event>
<event>
 7    1  0.5417298E-010  0.4778727E+02  0.7816164E-02  0.1312668E+00
        -11   -1    0    0    0    0  0.00000000000E+00  0.00000000000E+00  0.45593999997E+02  0.45594000000E+02  0.51100000000E-03 0.  1.
         11   -1    0    0    0    0 -0.00000000000E+00 -0.00000000000E+00 -0.45593999997E+02  0.45594000000E+02  0.51100000000E-03 0. -1.
    9900012    2    1    2    0    0 -0.11132526433E+02  0.40630342228E+02  0.10433854661E+02  0.47787272155E+02  0.20000005064E+02 0.  0.
         12    1    1    2    0    0  0.11132526433E+02 -0.40630342228E+02 -0.10433854661E+02  0.43400727845E+02  0.00000000000E+00 0. -1.
         11    1    3    3    0    0 -0.94508556860E+00 -0.82502445690E-01  0.11873917591E+01  0.15198331606E+01  0.51100000000E-03 0. -1.
        -11    1    3    3    0    0  0.14537699425E+01  0.24470985331E+02  0.67396271611E+00  0.24523392835E+02  0.51100000000E-03 0.  1.
        -12    1    3    3    0    0 -0.11641210807E+02  0.16241859343E+02  0.85725001859E+01  0.21744046160E+02  0.00000000000E+00 0.  1.
</event>
<event>
 7    1  0.5417298E-010  0.4778727E+02  0.7816164E-02  0.1312668E+00
        -11   -1    0    0    0    0  0.00000000000E+00  0.00000000000E+00  0.45593999997E+02  0.45594000000E+02  0.51100000000E-03 0. -1.
         11   -1    0    0    0    0 -0.00000000000E+00 -0.00000000000E+00 -0.45593999997E+02  0.45594000000E+02  0.51100000000E-03 0.  1.
    9900012    2    1    2    0    0 -0.36567125021E+02 -0.22746633459E+02  0.53906649843E+01  0.47787271493E+02  0.20000002043E+02 0.  0.
         12    1    1    2    0    0  0.36567125021E+02  0.22746633459E+02 -0.53906649843E+01  0.43400728507E+02  0.00000000000E+00 0. -1.
         11    1    3    3    0    0 -0.15418822455E+01 -0.10492074513E+01  0.33030784341E+01  0.37932261385E+01  0.51100000000E-03 0. -1.
        -11    1    3    3    0    0 -0.13355274838E+02 -0.64088616971E+01  0.79813206974E+01  0.16826715502E+02  0.51100000000E-03 0.  1.
        -12    1    3    3    0    0 -0.21669967938E+02 -0.15288564311E+02 -0.58937341472E+01  0.27167329852E+02  0.00000000000E+00 0.  1.
</event>
<event>
 7    1  0.5417298E-010  0.4778727E+02  0.7816164E-02  0.1312668E+00
        -11   -1    0    0    0    0  0.00000000000E+00  0.00000000000E+00  0.45593999997E+02  0.45594000000E+02  0.51100000000E-03 0. -1.
         11   -1    0    0    0    0 -0.00000000000E+00 -0.00000000000E+00 -0.45593999997E+02  0.45594000000E+02  0.51100000000E-03 0.  1.
    9900012    2    1    2    0    0 -0.20963989493E+02 -0.25278997467E+02 -0.28374400483E+02  0.47787272228E+02  0.20000005398E+02 0.  0.
         12    1    1    2    0    0  0.20963989493E+02  0.25278997467E+02  0.28374400483E+02  0.43400727772E+02  0.00000000000E+00 0. -1.
         11    1    3    3    0    0  0.13211749942E+01 -0.33647137410E+01 -0.85782288177E+01  0.93087492089E+01  0.51100000000E-03 0. -1.
        -11    1    3    3    0    0 -0.85220788676E+01 -0.23516028616E+01 -0.74500255832E+01  0.11561087565E+02  0.51100000000E-03 0.  1.
         12    1    3    3    0    0 -0.13763085619E+02 -0.19562680864E+02 -0.12346146082E+02  0.26917435454E+02  0.00000000000E+00 0. -1.
</event>
<event>
 7    1  0.5417298E-010  0.4778727E+02  0.7816164E-02  0.1312668E+00
        -11   -1    0    0    0    0  0.00000000000E+00  0.00000000000E+00  0.45593999997E+02  0.45594000000E+02  0.51100000000E-03 0.  1.
         11   -1    0    0    0    0 -0.00000000000E+00 -0.00000000000E+00 -0.45593999997E+02  0.45594000000E+02  0.51100000000E-03 0. -1.
    9900012    2    1    2    0    0 -0.39764362428E+02 -0.36923555446E+01  0.16993680541E+02  0.47787272045E+02  0.20000004560E+02 0.  0.
         12    1    1    2    0    0  0.39764362428E+02  0.36923555446E+01 -0.16993680541E+02  0.43400727955E+02  0.00000000000E+00 0. -1.
         11    1    3    3    0    0 -0.94722406583E+00  0.31001400931E+01 -0.64792058708E+00  0.33057379473E+01  0.51100000000E-03 0. -1.
        -11    1    3    3    0    0 -0.13346791862E+02 -0.52539296083E+01  0.18223342836E+01  0.14458960262E+02  0.51100000000E-03 0.  1.
        -12    1    3    3    0    0 -0.25470346499E+02 -0.15385660294E+01  0.15819266844E+02  0.30022573836E+02  0.00000000000E+00 0.  1.
</event>
<event>
 7    1  0.5417298E-010  0.4778727E+02  0.7816164E-02  0.1312668E+00
        -11   -1    0    0    0    0  0.00000000000E+00  0.00000000000E+00  0.45593999997E+02  0.45594000000E+02  0.51100000000E-03 0.  1.
         11   -1    0    0    0    0 -0.00000000000E+00 -0.00000000000E+00 -0.45593999997E+02  0.45594000000E+02  0.51100000000E-03 0. -1.
    9900012    2    1    2    0    0  0.26385927632E+02 -0.20943569642E+02  0.27363717323E+02  0.47787270604E+02  0.19999997992E+02 0.  0.
         12    1    1    2    0    0 -0.26385927632E+02  0.20943569642E+02 -0.27363717323E+02  0.43400729396E+02  0.00000000000E+00 0. -1.
         11    1    3    3    0    0  0.11425490419E+02 -0.10428623117E+02  0.19096425927E+01  0.15586684912E+02  0.51100000000E-03 0. -1.
        -11    1    3    3    0    0  0.15210425066E+01  0.27378522966E+00  0.10656896491E+00  0.15491565009E+01  0.51100000000E-03 0.  1.
        -12    1    3    3    0    0  0.13439394706E+02 -0.10788731755E+02  0.25347505766E+02  0.30651429191E+02  0.00000000000E+00 0.  1.
</event>
<event>
 7    1  0.5417298E-010  0.4778727E+02  0.7816164E-02  0.1312668E+00
        -11   -1    0    0    0    0  0.00000000000E+00  0.00000000000E+00  0.45593999997E+02  0.45594000000E+02  0.51100000000E-03 0. -1.
         11   -1    0    0    0    0 -0.00000000000E+00 -0.00000000000E+00 -0.45593999997E+02  0.45594000000E+02  0.51100000000E-03 0.  1.
    9900012    2    1    2    0    0  0.37956866861E+02 -0.20634076592E+02 -0.41393911790E+01  0.47787269384E+02  0.19999992430E+02 0.  0.
         12    1    1    2    0    0 -0.37956866861E+02  0.20634076592E+02  0.41393911790E+01  0.43400730616E+02  0.00000000000E+00 0. -1.
         11    1    3    3    0    0  0.12624247415E+02 -0.10012011092E+02  0.22539174773E+01  0.16269361793E+02  0.51100000000E-03 0.  1.
        -11    1    3    3    0    0  0.63470620598E+01 -0.89740259805E+01  0.10871522855E+01  0.11045371856E+02  0.51100000000E-03 0. -1.
         12    1    3    3    0    0  0.18985557386E+02 -0.16480395190E+01 -0.74804609417E+01  0.20472535734E+02  0.00000000000E+00 0. -1.
</event>
<event>
 7    1  0.5417298E-010  0.4778727E+02  0.7816164E-02  0.1312668E+00
        -11   -1    0    0    0    0  0.00000000000E+00  0.00000000000E+00  0.45593999997E+02  0.45594000000E+02  0.51100000000E-03 0.  1.
         11   -1    0    0    0    0 -0.00000000000E+00 -0.00000000000E+00 -0.45593999997E+02  0.45594000000E+02  0.51100000000E-03 0. -1.
    9900012    2    1    2    0    0  0.38153341513E+02 -0.82401166259E+01  0.18974884456E+02  0.47787271541E+02  0.20000002266E+02 0.  0.
         12    1    1    2    0    0 -0.38153341513E+02  0.82401166259E+01 -0.18974884456E+02  0.43400728459E+02  0.00000000000E+00 0. -1.
         11    1    3    3    0    0  0.50110014567E+01 -0.14084924642E+01 -0.34633780584E+01  0.62521175979E+01  0.51100000000E-03 0. -1.
        -11    1    3    3    0    0  0.21215919092E+02 -0.95306017523E-01  0.14590607369E+02  0.25748983083E+02  0.51100000000E-03 0.  1.
        -12    1    3    3    0    0  0.11926420964E+02 -0.67363181441E+01  0.78476551455E+01  0.15786170861E+02  0.00000000000E+00 0.  1.
</event>
<event>
 7    1  0.5417298E-010  0.4778727E+02  0.7816164E-02  0.1312668E+00
        -11   -1    0    0    0    0  0.00000000000E+00  0.00000000000E+00  0.45593999997E+02  0.45594000000E+02  0.51100000000E-03 0.  1.
         11   -1    0    0    0    0 -0.00000000000E+00 -0.00000000000E+00 -0.45593999997E+02  0.45594000000E+02  0.51100000000E-03 0. -1.
    9900012    2    1    2    0    0  0.84569922177E+01  0.41407553274E+01  0.42366931297E+02  0.47787269135E+02  0.19999991295E+02 0.  0.
         12    1    1    2    0    0 -0.84569922177E+01 -0.41407553274E+01 -0.42366931297E+02  0.43400730865E+02  0.00000000000E+00 0. -1.
         11    1    3    3    0    0 -0.57931828888E+00  0.64473499622E+00 -0.30032121570E+00  0.91732545419E+00  0.51100000000E-03 0. -1.
        -11    1    3    3    0    0 -0.32743348375E+01  0.42944650504E+01  0.23221041320E+02  0.23840731091E+02  0.51100000000E-03 0.  1.
         12    1    3    3    0    0  0.12310645344E+02 -0.79844471925E+00  0.19446211193E+02  0.23029212590E+02  0.00000000000E+00 0. -1.
</event>
<event>
 7    1  0.5417298E-010  0.4778727E+02  0.7816164E-02  0.1312668E+00
        -11   -1    0    0    0    0  0.00000000000E+00  0.00000000000E+00  0.45593999997E+02  0.45594000000E+02  0.51100000000E-03 0.  1.
         11   -1    0    0    0    0 -0.00000000000E+00 -0.00000000000E+00 -0.45593999997E+02  0.45594000000E+02  0.51100000000E-03 0. -1.
    9900012    2    1    2    0    0 -0.34972941938E+02 -0.22689408801E+02 -0.12070922696E+02  0.47787272883E+02  0.20000008382E+02 0.  0.
         12    1    1    2    0    0  0.34972941938E+02  0.22689408801E+02  0.12070922696E+02  0.43400727117E+02  0.00000000000E+00 0. -1.
         11    1    3    3    0    0 -0.13140573207E+02 -0.42932434074E+01 -0.30179309916E+01  0.14149717696E+02  0.51100000000E-03 0. -1.
        -11    1    3    3    0    0 -0.10369953471E+02 -0.94202182997E+01 -0.12388550031E+02  0.18701674255E+02  0.51100000000E-03 0.  1.
         12    1    3    3    0    0 -0.11462415261E+02 -0.89759470944E+01  0.33355583270E+01  0.14935880931E+02  0.00000000000E+00 0. -1.
</event>
<event>
 7    1  0.5417298E-010  0.4778727E+02  0.7816164E-02  0.1312668E+00
        -11   -1    0    0    0    0  0.00000000000E+00  0.00000000000E+00  0.45593999997E+02  0.45594000000E+02  0.51100000000E-03 0. -1.
         11   -1    0    0    0    0 -0.00000000000E+00 -0.00000000000E+00 -0.45593999997E+02  0.45594000000E+02  0.51100000000E-03 0.  1.
    9900012    2    1    2    0    0 -0.19260883100E+02 -0.38722405671E+02 -0.36355426808E+01  0.47787268563E+02  0.19999988685E+02 0.  0.
         12    1    1    2    0    0  0.19260883100E+02  0.38722405671E+02  0.36355426808E+01  0.43400731437E+02  0.00000000000E+00 0. -1.
         11    1    3    3    0    0 -0.39912279506E+01 -0.10073887308E+02  0.40486307245E+01  0.11567390243E+02  0.51100000000E-03 0. -1.
        -11    1    3    3    0    0 -0.45349353730E+00 -0.76002462306E+01  0.32184526095E+01  0.82660653648E+01  0.51100000000E-03 0.  1.
         12    1    3    3    0    0 -0.14816161612E+02 -0.21048272132E+02 -0.10902626015E+02  0.27953812955E+02  0.00000000000E+00 0. -1.
</event>
<event>
 7    1  0.5417298E-010  0.4778725E+02  0.7816164E-02  0.1312668E+00
        -11   -1    0    0    0    0  0.00000000000E+00  0.00000000000E+00  0.45593999997E+02  0.45594000000E+02  0.51100000000E-03 0.  1.
         11   -1    0    0    0    0 -0.00000000000E+00 -0.00000000000E+00 -0.45593999997E+02  0.45594000000E+02  0.51100000000E-03 0. -1.
    9900012    2    1    2    0    0  0.13329264264E+02  0.24273007329E+02  0.33418208038E+02  0.47787253473E+02  0.19999919887E+02 0.  0.
         12    1    1    2    0    0 -0.13329264264E+02 -0.24273007329E+02 -0.33418208038E+02  0.43400746527E+02  0.00000000000E+00 0. -1.
         11    1    3    3    0    0  0.43119057166E+01  0.66539015790E+01  0.23411212071E+02  0.24717438946E+02  0.51100000000E-03 0.  1.
        -11    1    3    3    0    0  0.20177260921E+01  0.82306258760E+00 -0.23067144354E+00  0.21913147154E+01  0.51100000000E-03 0. -1.
        -12    1    3    3    0    0  0.69996324558E+01  0.16796043162E+02  0.10237667410E+02  0.20878499812E+02  0.00000000000E+00 0.  1.
</event>
<event>
 7    1  0.5417298E-010  0.4778726E+02  0.7816164E-02  0.1312668E+00
        -11   -1    0    0    0    0  0.00000000000E+00  0.00000000000E+00  0.45593999997E+02  0.45594000000E+02  0.51100000000E-03 0.  1.
         11   -1    0    0    0    0 -0.00000000000E+00 -0.00000000000E+00 -0.45593999997E+02  0.45594000000E+02  0.51100000000E-03 0. -1.
    9900012    2    1    2    0    0  0.36477114133E+02  0.82592262974E+01  0.22018847119E+02  0.47787259188E+02  0.19999945943E+02 0.  0.
         12    1    1    2    0    0 -0.36477114133E+02 -0.82592262974E+01 -0.22018847119E+02  0.43400740812E+02  0.00000000000E+00 0. -1.
         11    1    3    3    0    0  0.18959096794E+02 -0.27560711859E+01  0.10929103996E+02  0.22056486439E+02  0.51100000000E-03 0. -1.
        -11    1    3    3    0    0  0.11581048735E+02  0.10637049940E+01  0.54688052496E+01  0.12851458642E+02  0.51100000000E-03 0.  1.
        -12    1    3    3    0    0  0.59369686050E+01  0.99515924893E+01  0.56209378742E+01  0.12879314107E+02  0.00000000000E+00 0.  1.
</event>
<event>
 7    1  0.5417298E-010  0.4778728E+02  0.7816164E-02  0.1312668E+00
        -11   -1    0    0    0    0  0.00000000000E+00  0.00000000000E+00  0.45593999997E+02  0.45594000000E+02  0.51100000000E-03 0.  1.
         11   -1    0    0    0    0 -0.00000000000E+00 -0.00000000000E+00 -0.45593999997E+02  0.45594000000E+02  0.51100000000E-03 0. -1.
    9900012    2    1    2    0    0  0.27382304225E+02 -0.13303118128E+02  0.30933140432E+02  0.47787277499E+02  0.20000029430E+02 0.  0.
         12    1    1    2    0    0 -0.27382304225E+02  0.13303118128E+02 -0.30933140432E+02  0.43400722501E+02  0.00000000000E+00 0. -1.
         11    1    3    3    0    0  0.19941787390E+02 -0.48095608974E+01  0.17760961334E+02  0.27134083882E+02  0.51100000000E-03 0. -1.
        -11    1    3    3    0    0  0.89863394873E+01 -0.47626433208E+01  0.13137997352E+02  0.16614573226E+02  0.51100000000E-03 0.  1.
         12    1    3    3    0    0 -0.15458226526E+01 -0.37309139097E+01  0.34181745886E-01  0.40386203915E+01  0.00000000000E+00 0. -1.
</event>
<event>
 7    1  0.5417298E-010  0.4778727E+02  0.7816164E-02  0.1312668E+00
        -11   -1    0    0    0    0  0.00000000000E+00  0.00000000000E+00  0.45593999997E+02  0.45594000000E+02  0.51100000000E-03 0.  1.
         11   -1    0    0    0    0 -0.00000000000E+00 -0.00000000000E+00 -0.45593999997E+02  0.45594000000E+02  0.51100000000E-03 0. -1.
    9900012    2    1    2    0    0 -0.39502607983E+01  0.17725692167E+01  0.43184216275E+02  0.47787273079E+02  0.20000009277E+02 0.  0.
         12    1    1    2    0    0  0.39502607983E+01 -0.17725692167E+01 -0.43184216275E+02  0.43400726921E+02  0.00000000000E+00 0. -1.
         11    1    3    3    0    0 -0.28151737203E+01 -0.13494440045E+01  0.89616483359E+01  0.94898547594E+01  0.51100000000E-03 0. -1.
        -11    1    3    3    0    0  0.49182896689E+01  0.34470248795E+01  0.30708780275E+02  0.31290585486E+02  0.51100000000E-03 0.  1.
         12    1    3    3    0    0 -0.60533767469E+01 -0.32501165828E+00  0.35137876635E+01  0.70068328339E+01  0.00000000000E+00 0. -1.
</event>
<event>
 7    1  0.5417298E-010  0.4778727E+02  0.7816164E-02  0.1312668E+00
        -11   -1    0    0    0    0  0.00000000000E+00  0.00000000000E+00  0.45593999997E+02  0.45594000000E+02  0.51100000000E-03 0. -1.
         11   -1    0    0    0    0 -0.00000000000E+00 -0.00000000000E+00 -0.45593999997E+02  0.45594000000E+02  0.51100000000E-03 0.  1.
    9900012    2    1    2    0    0  0.18664478163E+02  0.48013964118E+01 -0.38887107596E+02  0.47787270861E+02  0.19999999165E+02 0.  0.
         12    1    1    2    0    0 -0.18664478163E+02 -0.48013964118E+01  0.38887107596E+02  0.43400729139E+02  0.00000000000E+00 0. -1.
         11    1    3    3    0    0  0.43296194595E+01  0.16100261858E+01 -0.14661005869E+02  0.15371495774E+02  0.51100000000E-03 0. -1.
        -11    1    3    3    0    0  0.88859170307E+01  0.95547248697E+01 -0.16339150327E+02  0.20909809241E+02  0.51100000000E-03 0.  1.
         12    1    3    3    0    0  0.54489416726E+01 -0.63633546436E+01 -0.78869513998E+01  0.11505965846E+02  0.00000000000E+00 0. -1.
</event>
<event>
 7    1  0.5417298E-010  0.4778727E+02  0.7816164E-02  0.1312668E+00
        -11   -1    0    0    0    0  0.00000000000E+00  0.00000000000E+00  0.45593999997E+02  0.45594000000E+02  0.51100000000E-03 0.  1.
         11   -1    0    0    0    0 -0.00000000000E+00 -0.00000000000E+00 -0.45593999997E+02  0.45594000000E+02  0.51100000000E-03 0. -1.
    9900012    2    1    2    0    0 -0.30514571702E+02 -0.28041207950E+02  0.12890888966E+02  0.47787269040E+02  0.19999990863E+02 0.  0.
         12    1    1    2    0    0  0.30514571702E+02  0.28041207950E+02 -0.12890888966E+02  0.43400730960E+02  0.00000000000E+00 0. -1.
         11    1    3    3    0    0 -0.17838051165E+02 -0.13739562744E+02  0.34508249673E+01  0.22778934281E+02  0.51100000000E-03 0. -1.
        -11    1    3    3    0    0  0.18410307071E+01 -0.61447185791E+01  0.36373809310E+01  0.73741101686E+01  0.51100000000E-03 0.  1.
         12    1    3    3    0    0 -0.14517551245E+02 -0.81569266269E+01  0.58026830681E+01  0.17634224591E+02  0.00000000000E+00 0. -1.
</event>
<event>
 7    1  0.5417298E-010  0.4778727E+02  0.7816164E-02  0.1312668E+00
        -11   -1    0    0    0    0  0.00000000000E+00  0.00000000000E+00  0.45593999997E+02  0.45594000000E+02  0.51100000000E-03 0.  1.
         11   -1    0    0    0    0 -0.00000000000E+00 -0.00000000000E+00 -0.45593999997E+02  0.45594000000E+02  0.51100000000E-03 0. -1.
    9900012    2    1    2    0    0 -0.57827776062E+00 -0.38162737242E+02 -0.20661430785E+02  0.47787266814E+02  0.19999980712E+02 0.  0.
         12    1    1    2    0    0  0.57827776062E+00  0.38162737242E+02  0.20661430785E+02  0.43400733186E+02  0.00000000000E+00 0. -1.
         11    1    3    3    0    0 -0.56252706187E+00 -0.24749498919E+02 -0.18643354969E+02  0.30990786021E+02  0.51100000000E-03 0. -1.
        -11    1    3    3    0    0 -0.27894508564E+01 -0.73226343769E+01 -0.51813937047E+01  0.93940859738E+01  0.51100000000E-03 0.  1.
         12    1    3    3    0    0  0.27737001576E+01 -0.60906039463E+01  0.31633178889E+01  0.74023948193E+01  0.00000000000E+00 0. -1.
</event>
<event>
 7    1  0.5417298E-010  0.4778726E+02  0.7816164E-02  0.1312668E+00
        -11   -1    0    0    0    0  0.00000000000E+00  0.00000000000E+00  0.45593999997E+02  0.45594000000E+02  0.51100000000E-03 0.  1.
         11   -1    0    0    0    0 -0.00000000000E+00 -0.00000000000E+00 -0.45593999997E+02  0.45594000000E+02  0.51100000000E-03 0. -1.
    9900012    2    1    2    0    0 -0.32637137979E+01  0.32984251163E+02  0.28018053984E+02  0.47787262661E+02  0.19999961774E+02 0.  0.
         12    1    1    2    0    0  0.32637137979E+01 -0.32984251163E+02 -0.28018053984E+02  0.43400737339E+02  0.00000000000E+00 0. -1.
         11    1    3    3    0    0 -0.87697607768E+01  0.52529005999E+01  0.74957915886E+01  0.12676299168E+02  0.51100000000E-03 0.  1.
        -11    1    3    3    0    0  0.96562625735E+00  0.60501171481E+01  0.27701718006E+01  0.67238533328E+01  0.51100000000E-03 0. -1.
        -12    1    3    3    0    0  0.45404207215E+01  0.21681233415E+02  0.17752090595E+02  0.28387110160E+02  0.00000000000E+00 0.  1.
</event>
<event>
 7    1  0.5417298E-010  0.4778727E+02  0.7816164E-02  0.1312668E+00
        -11   -1    0    0    0    0  0.00000000000E+00  0.00000000000E+00  0.45593999997E+02  0.45594000000E+02  0.51100000000E-03 0. -1.
         11   -1    0    0    0    0 -0.00000000000E+00 -0.00000000000E+00 -0.45593999997E+02  0.45594000000E+02  0.51100000000E-03 0.  1.
    9900012    2    1    2    0    0 -0.16031816965E+02  0.33050870431E+02 -0.23113720867E+02  0.47787270930E+02  0.19999999480E+02 0.  0.
         12    1    1    2    0    0  0.16031816965E+02 -0.33050870431E+02  0.23113720867E+02  0.43400729070E+02  0.00000000000E+00 0. -1.
         11    1    3    3    0    0 -0.13725993766E+02  0.22237769375E+02 -0.11371141958E+02  0.28499546686E+02  0.51100000000E-03 0. -1.
        -11    1    3    3    0    0 -0.55169270511E+01  0.10597654398E+02 -0.10242043072E+02  0.15736778876E+02  0.51100000000E-03 0.  1.
         12    1    3    3    0    0  0.32111038521E+01  0.21544665838E+00 -0.15005358371E+01  0.35509453685E+01  0.00000000000E+00 0. -1.
</event>
<event>
 7    1  0.5417298E-010  0.4778727E+02  0.7816164E-02  0.1312668E+00
        -11   -1    0    0    0    0  0.00000000000E+00  0.00000000000E+00  0.45593999997E+02  0.45594000000E+02  0.51100000000E-03 0.  1.
         11   -1    0    0    0    0 -0.00000000000E+00 -0.00000000000E+00 -0.45593999997E+02  0.45594000000E+02  0.51100000000E-03 0. -1.
    9900012    2    1    2    0    0 -0.39027268336E+02 -0.18822977012E+02  0.24881822345E+01  0.47787272031E+02  0.20000004499E+02 0.  0.
         12    1    1    2    0    0  0.39027268336E+02  0.18822977012E+02 -0.24881822345E+01  0.43400727969E+02  0.00000000000E+00 0. -1.
         11    1    3    3    0    0 -0.62041859086E+01 -0.14811941657E+01 -0.62531539363E+01  0.89324013209E+01  0.51100000000E-03 0. -1.
        -11    1    3    3    0    0 -0.16720890705E+02 -0.48102324354E+01  0.50758122881E+01  0.18124303923E+02  0.51100000000E-03 0.  1.
        -12    1    3    3    0    0 -0.16102191723E+02 -0.12531550411E+02  0.36655238826E+01  0.20730566787E+02  0.00000000000E+00 0.  1.
</event>
<event>
 7    1  0.5417298E-010  0.4778727E+02  0.7816164E-02  0.1312668E+00
        -11   -1    0    0    0    0  0.00000000000E+00  0.00000000000E+00  0.45593999997E+02  0.45594000000E+02  0.51100000000E-03 0.  1.
         11   -1    0    0    0    0 -0.00000000000E+00 -0.00000000000E+00 -0.45593999997E+02  0.45594000000E+02  0.51100000000E-03 0. -1.
    9900012    2    1    2    0    0 -0.46466308546E+01 -0.94872477373E+01  0.42095420032E+02  0.47787269181E+02  0.19999991505E+02 0.  0.
         12    1    1    2    0    0  0.46466308546E+01  0.94872477373E+01 -0.42095420032E+02  0.43400730819E+02  0.00000000000E+00 0. -1.
         11    1    3    3    0    0  0.50801334774E+01 -0.86843429641E+00  0.11917543057E+02  0.12984212223E+02  0.51100000000E-03 0. -1.
        -11    1    3    3    0    0 -0.17617933948E+01 -0.25230141550E+01  0.20947207521E+02  0.21172033903E+02  0.51100000000E-03 0.  1.
         12    1    3    3    0    0 -0.79649709373E+01 -0.60957992859E+01  0.92306694540E+01  0.13631023055E+02  0.00000000000E+00 0. -1.
</event>
<event>
 7    1  0.5417298E-010  0.4778727E+02  0.7816164E-02  0.1312668E+00
        -11   -1    0    0    0    0  0.00000000000E+00  0.00000000000E+00  0.45593999997E+02  0.45594000000E+02  0.51100000000E-03 0. -1.
         11   -1    0    0    0    0 -0.00000000000E+00 -0.00000000000E+00 -0.45593999997E+02  0.45594000000E+02  0.51100000000E-03 0.  1.
    9900012    2    1    2    0    0 -0.38525003021E+02  0.13796739350E+02  0.14460208429E+02  0.47787268413E+02  0.19999988001E+02 0.  0.
         12    1    1    2    0    0  0.38525003021E+02 -0.13796739350E+02 -0.14460208429E+02  0.43400731587E+02  0.00000000000E+00 0. -1.
         11    1    3    3    0    0 -0.46554924204E+01 -0.10993458882E+01  0.54130101492E+01  0.72237698049E+01  0.51100000000E-03 0. -1.
        -11    1    3    3    0    0 -0.13737519516E+02  0.10184333819E+02  0.10099870670E+02  0.19860702042E+02  0.51100000000E-03 0.  1.
        -12    1    3    3    0    0 -0.20131991085E+02  0.47117514194E+01 -0.10526723898E+01  0.20702796566E+02  0.00000000000E+00 0.  1.
</event>
<event>
 7    1  0.5417298E-010  0.4778727E+02  0.7816164E-02  0.1312668E+00
        -11   -1    0    0    0    0  0.00000000000E+00  0.00000000000E+00  0.45593999997E+02  0.45594000000E+02  0.51100000000E-03 0.  1.
         11   -1    0    0    0    0 -0.00000000000E+00 -0.00000000000E+00 -0.45593999997E+02  0.45594000000E+02  0.51100000000E-03 0. -1.
    9900012    2    1    2    0    0  0.30729296477E+02 -0.19292642070E+02  0.23814434828E+02  0.47787274128E+02  0.20000014061E+02 0.  0.
         12    1    1    2    0    0 -0.30729296477E+02  0.19292642070E+02 -0.23814434828E+02  0.43400725872E+02  0.00000000000E+00 0. -1.
         11    1    3    3    0    0  0.24276851643E+02 -0.10842667485E+02  0.71688293767E+01  0.27537630232E+02  0.51100000000E-03 0. -1.
        -11    1    3    3    0    0  0.41147886129E+01 -0.19091356157E+01  0.56770730675E+01  0.72667353745E+01  0.51100000000E-03 0.  1.
         12    1    3    3    0    0  0.23376562204E+01 -0.65408389690E+01  0.10968532384E+02  0.12982908522E+02  0.00000000000E+00 0. -1.
</event>
<event>
 7    1  0.5417298E-010  0.4778727E+02  0.7816164E-02  0.1312668E+00
        -11   -1    0    0    0    0  0.00000000000E+00  0.00000000000E+00  0.45593999997E+02  0.45594000000E+02  0.51100000000E-03 0.  1.
         11   -1    0    0    0    0 -0.00000000000E+00 -0.00000000000E+00 -0.45593999997E+02  0.45594000000E+02  0.51100000000E-03 0. -1.
    9900012    2    1    2    0    0 -0.43005659440E+02  0.53146456874E+01  0.24271113152E+01  0.47787273370E+02  0.20000010602E+02 0.  0.
         12    1    1    2    0    0  0.43005659440E+02 -0.53146456874E+01 -0.24271113152E+01  0.43400726630E+02  0.00000000000E+00 0. -1.
         11    1    3    3    0    0 -0.21650296607E+01 -0.22640786435E+01  0.14768701418E+01  0.34633150611E+01  0.51100000000E-03 0. -1.
        -11    1    3    3    0    0 -0.12198178823E+02  0.96978861119E+01 -0.10536512373E+00  0.15583826992E+02  0.51100000000E-03 0.  1.
        -12    1    3    3    0    0 -0.28642450957E+02 -0.21191617810E+01  0.10556062971E+01  0.28740131317E+02  0.00000000000E+00 0.  1.
</event>
<event>
 7    1  0.5417298E-010  0.4778728E+02  0.7816164E-02  0.1312668E+00
        -11   -1    0    0    0    0  0.00000000000E+00  0.00000000000E+00  0.45593999997E+02  0.45594000000E+02  0.51100000000E-03 0.  1.
         11   -1    0    0    0    0 -0.00000000000E+00 -0.00000000000E+00 -0.45593999997E+02  0.45594000000E+02  0.51100000000E-03 0. -1.
    9900012    2    1    2    0    0  0.23300167988E+02  0.33773893306E+02  0.14143868458E+02  0.47787277515E+02  0.20000029501E+02 0.  0.
         12    1    1    2    0    0 -0.23300167988E+02 -0.33773893306E+02 -0.14143868458E+02  0.43400722485E+02  0.00000000000E+00 0. -1.
         11    1    3    3    0    0  0.72344699458E+01  0.13382324180E+02  0.64894961848E+00  0.15226466817E+02  0.51100000000E-03 0. -1.
        -11    1    3    3    0    0  0.13294506810E+02  0.11981731744E+02  0.19379948417E+01  0.18001711896E+02  0.51100000000E-03 0.  1.
        -12    1    3    3    0    0  0.27711912314E+01  0.84098373815E+01  0.11556923998E+02  0.14559098802E+02  0.00000000000E+00 0.  1.
</event>
<event>
 7    1  0.5417298E-010  0.4778728E+02  0.7816164E-02  0.1312668E+00
        -11   -1    0    0    0    0  0.00000000000E+00  0.00000000000E+00  0.45593999997E+02  0.45594000000E+02  0.51100000000E-03 0.  1.
         11   -1    0    0    0    0 -0.00000000000E+00 -0.00000000000E+00 -0.45593999997E+02  0.45594000000E+02  0.51100000000E-03 0. -1.
    9900012    2    1    2    0    0 -0.20573127271E+02 -0.56749114513E+01  0.37791056296E+02  0.47787284318E+02  0.20000060520E+02 0.  0.
         12    1    1    2    0    0  0.20573127271E+02  0.56749114513E+01 -0.37791056296E+02  0.43400715682E+02  0.00000000000E+00 0. -1.
         11    1    3    3    0    0 -0.11833101647E+01 -0.43888251739E+01  0.12929659348E+02  0.13705404061E+02  0.51100000000E-03 0. -1.
        -11    1    3    3    0    0 -0.12253750256E+02 -0.55438651111E+00  0.23873923613E+02  0.26840752014E+02  0.51100000000E-03 0.  1.
        -12    1    3    3    0    0 -0.71360668510E+01 -0.73169976632E+00  0.98747333544E+00  0.72411282435E+01  0.00000000000E+00 0.  1.
</event>
<event>
 7    1  0.5417298E-010  0.4778728E+02  0.7816164E-02  0.1312668E+00
        -11   -1    0    0    0    0  0.00000000000E+00  0.00000000000E+00  0.45593999997E+02  0.45594000000E+02  0.51100000000E-03 0. -1.
         11   -1    0    0    0    0 -0.00000000000E+00 -0.00000000000E+00 -0.45593999997E+02  0.45594000000E+02  0.51100000000E-03 0.  1.
    9900012    2    1    2    0    0 -0.38432886573E+02  0.18933690854E+02 -0.69319012165E+01  0.47787277954E+02  0.20000031502E+02 0.  0.
         12    1    1    2    0    0  0.38432886573E+02 -0.18933690854E+02  0.69319012165E+01  0.43400722046E+02  0.00000000000E+00 0. -1.
         11    1    3    3    0    0 -0.10631475106E+02  0.36102763193E+01 -0.59846498108E+01  0.12723143938E+02  0.51100000000E-03 0. -1.
        -11    1    3    3    0    0 -0.15939328762E+02  0.34492087983E+00 -0.26295265008E+00  0.15945228633E+02  0.51100000000E-03 0.  1.
        -12    1    3    3    0    0 -0.11862082704E+02  0.14978493655E+02 -0.68429875562E+00  0.19118905383E+02  0.00000000000E+00 0.  1.
</event>
<event>
 7    1  0.5417298E-010  0.4778727E+02  0.7816164E-02  0.1312668E+00
        -11   -1    0    0    0    0  0.00000000000E+00  0.00000000000E+00  0.45593999997E+02  0.45594000000E+02  0.51100000000E-03 0.  1.
         11   -1    0    0    0    0 -0.00000000000E+00 -0.00000000000E+00 -0.45593999997E+02  0.45594000000E+02  0.51100000000E-03 0. -1.
    9900012    2    1    2    0    0  0.34337470898E+02 -0.12665885308E+02  0.23326736098E+02  0.47787272181E+02  0.20000005181E+02 0.  0.
         12    1    1    2    0    0 -0.34337470898E+02  0.12665885308E+02 -0.23326736098E+02  0.43400727819E+02  0.00000000000E+00 0. -1.
         11    1    3    3    0    0  0.19210025032E+02 -0.34207354987E+01  0.15623823807E+01  0.19574665567E+02  0.51100000000E-03 0. -1.
        -11    1    3    3    0    0  0.56005945225E+01 -0.18809223222E+01  0.73822539328E+01  0.94552737230E+01  0.51100000000E-03 0.  1.
         12    1    3    3    0    0  0.95268513434E+01 -0.73642274866E+01  0.14382099784E+02  0.18757332891E+02  0.00000000000E+00 0. -1.
</event>
<event>
 7    1  0.5417298E-010  0.4778727E+02  0.7816164E-02  0.1312668E+00
        -11   -1    0    0    0    0  0.00000000000E+00  0.00000000000E+00  0.45593999997E+02  0.45594000000E+02  0.51100000000E-03 0. -1.
         11   -1    0    0    0    0 -0.00000000000E+00 -0.00000000000E+00 -0.45593999997E+02  0.45594000000E+02  0.51100000000E-03 0.  1.
    9900012    2    1    2    0    0  0.11385582333E+02 -0.41478962549E+02 -0.57868492174E+01  0.47787269096E+02  0.19999991115E+02 0.  0.
         12    1    1    2    0    0 -0.11385582333E+02  0.41478962549E+02  0.57868492174E+01  0.43400730904E+02  0.00000000000E+00 0. -1.
         11    1    3    3    0    0 -0.82667043600E+00 -0.40023871089E+01  0.11835230485E+01  0.42547871447E+01  0.51100000000E-03 0. -1.
        -11    1    3    3    0    0  0.64441881086E+01 -0.19733791408E+02 -0.12299603828E+02  0.24129449606E+02  0.51100000000E-03 0.  1.
        -12    1    3    3    0    0  0.57680646607E+01 -0.17742784032E+02  0.53292315622E+01  0.19403032345E+02  0.00000000000E+00 0.  1.
</event>
<event>
 7    1  0.5417298E-010  0.4778727E+02  0.7816164E-02  0.1312668E+00
        -11   -1    0    0    0    0  0.00000000000E+00  0.00000000000E+00  0.45593999997E+02  0.45594000000E+02  0.51100000000E-03 0. -1.
         11   -1    0    0    0    0 -0.00000000000E+00 -0.00000000000E+00 -0.45593999997E+02  0.45594000000E+02  0.51100000000E-03 0.  1.
    9900012    2    1    2    0    0  0.12744960244E+02  0.41339553937E+02  0.34971735625E+01  0.47787274727E+02  0.20000016790E+02 0.  0.
         12    1    1    2    0    0 -0.12744960244E+02 -0.41339553937E+02 -0.34971735625E+01  0.43400725273E+02  0.00000000000E+00 0. -1.
         11    1    3    3    0    0 -0.12313281031E+01  0.22409960556E+01 -0.23498954080E+01  0.34727857562E+01  0.51100000000E-03 0. -1.
        -11    1    3    3    0    0  0.56102259469E+01  0.44933189525E+01  0.49011657999E+01  0.86997687810E+01  0.51100000000E-03 0.  1.
        -12    1    3    3    0    0  0.83660624003E+01  0.34605238929E+02  0.94590317062E+00  0.35614720190E+02  0.00000000000E+00 0.  1.
</event>
<event>
 7    1  0.5417298E-010  0.4778728E+02  0.7816164E-02  0.1312668E+00
        -11   -1    0    0    0    0  0.00000000000E+00  0.00000000000E+00  0.45593999997E+02  0.45594000000E+02  0.51100000000E-03 0.  1.
         11   -1    0    0    0    0 -0.00000000000E+00 -0.00000000000E+00 -0.45593999997E+02  0.45594000000E+02  0.51100000000E-03 0. -1.
    9900012    2    1    2    0    0 -0.25620480954E+02  0.32854431903E+02  0.12157304188E+02  0.47787276675E+02  0.20000025673E+02 0.  0.
         12    1    1    2    0    0  0.25620480954E+02 -0.32854431903E+02 -0.12157304188E+02  0.43400723325E+02  0.00000000000E+00 0. -1.
         11    1    3    3    0    0 -0.70325207395E+01  0.62831519604E+01 -0.31290473325E+01  0.99360597814E+01  0.51100000000E-03 0. -1.
        -11    1    3    3    0    0 -0.30958350647E+01  0.11257817317E+02  0.82522677745E+00  0.11704855615E+02  0.51100000000E-03 0.  1.
        -12    1    3    3    0    0 -0.15492125150E+02  0.15313462626E+02  0.14461124744E+02  0.26146361278E+02  0.00000000000E+00 0.  1.
</event>
<event>
 7    1  0.5417298E-010  0.4778727E+02  0.7816164E-02  0.1312668E+00
        -11   -1    0    0    0    0  0.00000000000E+00  0.00000000000E+00  0.45593999997E+02  0.45594000000E+02  0.51100000000E-03 0.  1.
         11   -1    0    0    0    0 -0.00000000000E+00 -0.00000000000E+00 -0.45593999997E+02  0.45594000000E+02  0.51100000000E-03 0. -1.
    9900012    2    1    2    0    0 -0.19145644641E+02  0.62598032622E+01  0.38443237485E+02  0.47787270122E+02  0.19999995795E+02 0.  0.
         12    1    1    2    0    0  0.19145644641E+02 -0.62598032622E+01 -0.38443237485E+02  0.43400729878E+02  0.00000000000E+00 0. -1.
         11    1    3    3    0    0 -0.61482800957E+01  0.61066735985E+01  0.76800298215E+01  0.11579104840E+02  0.51100000000E-03 0. -1.
        -11    1    3    3    0    0 -0.67609336843E-01  0.30378543499E+01  0.16356750821E+02  0.16636599044E+02  0.51100000000E-03 0.  1.
        -12    1    3    3    0    0 -0.12929755209E+02 -0.28847246861E+01  0.14406456843E+02  0.19571566239E+02  0.00000000000E+00 0.  1.
</event>
<event>
 7    1  0.5417298E-010  0.4778727E+02  0.7816164E-02  0.1312668E+00
        -11   -1    0    0    0    0  0.00000000000E+00  0.00000000000E+00  0.45593999997E+02  0.45594000000E+02  0.51100000000E-03 0. -1.
         11   -1    0    0    0    0 -0.00000000000E+00 -0.00000000000E+00 -0.45593999997E+02  0.45594000000E+02  0.51100000000E-03 0.  1.
    9900012    2    1    2    0    0 -0.36787379061E+02  0.56561407122E+01 -0.22323086060E+02  0.47787270084E+02  0.19999995623E+02 0.  0.
         12    1    1    2    0    0  0.36787379061E+02 -0.56561407122E+01  0.22323086060E+02  0.43400729916E+02  0.00000000000E+00 0. -1.
         11    1    3    3    0    0 -0.10091485504E+02  0.25724493945E+01  0.24113055646E+00  0.10416991878E+02  0.51100000000E-03 0. -1.
        -11    1    3    3    0    0 -0.75642438799E+01 -0.47749473675E+01 -0.50772286469E+01  0.10285725975E+02  0.51100000000E-03 0.  1.
        -12    1    3    3    0    0 -0.19131649677E+02  0.78586386852E+01 -0.17486987970E+02  0.27084552232E+02  0.00000000000E+00 0.  1.
</event>
<event>
 7    1  0.5417298E-010  0.4778727E+02  0.7816164E-02  0.1312668E+00
        -11   -1    0    0    0    0  0.00000000000E+00  0.00000000000E+00  0.45593999997E+02  0.45594000000E+02  0.51100000000E-03 0. -1.
         11   -1    0    0    0    0 -0.00000000000E+00 -0.00000000000E+00 -0.45593999997E+02  0.45594000000E+02  0.51100000000E-03 0.  1.
    9900012    2    1    2    0    0  0.20177860863E+02  0.37611264448E+02  0.78657455478E+01  0.47787271487E+02  0.20000002019E+02 0.  0.
         12    1    1    2    0    0 -0.20177860863E+02 -0.37611264448E+02 -0.78657455478E+01  0.43400728513E+02  0.00000000000E+00 0. -1.
         11    1    3    3    0    0  0.62217155081E+01  0.14194873146E+01  0.30847849131E+01  0.70880594186E+01  0.51100000000E-03 0. -1.
        -11    1    3    3    0    0  0.60952428593E+01  0.11417393586E+02 -0.35227960413E+01  0.13413387120E+02  0.51100000000E-03 0.  1.
        -12    1    3    3    0    0  0.78609024960E+01  0.24774383548E+02  0.83037566760E+01  0.27285824949E+02  0.00000000000E+00 0.  1.
</event>
<event>
 7    1  0.5417298E-010  0.4778727E+02  0.7816164E-02  0.1312668E+00
        -11   -1    0    0    0    0  0.00000000000E+00  0.00000000000E+00  0.45593999997E+02  0.45594000000E+02  0.51100000000E-03 0.  1.
         11   -1    0    0    0    0 -0.00000000000E+00 -0.00000000000E+00 -0.45593999997E+02  0.45594000000E+02  0.51100000000E-03 0. -1.
    9900012    2    1    2    0    0 -0.24626316438E+02 -0.33636041752E+02  0.12074134273E+02  0.47787268618E+02  0.19999988935E+02 0.  0.
         12    1    1    2    0    0  0.24626316438E+02  0.33636041752E+02 -0.12074134273E+02  0.43400731382E+02  0.00000000000E+00 0. -1.
         11    1    3    3    0    0 -0.11048720575E+01  0.74141517106E+00  0.19058763508E+01  0.23243931778E+01  0.51100000000E-03 0. -1.
        -11    1    3    3    0    0 -0.22327517461E+02 -0.20898891806E+02  0.50533139054E+01  0.30997059480E+02  0.51100000000E-03 0.  1.
        -12    1    3    3    0    0 -0.11939269200E+01 -0.13478565117E+02  0.51149440168E+01  0.14465815960E+02  0.00000000000E+00 0.  1.
</event>
<event>
 7    1  0.5417298E-010  0.4778727E+02  0.7816164E-02  0.1312668E+00
        -11   -1    0    0    0    0  0.00000000000E+00  0.00000000000E+00  0.45593999997E+02  0.45594000000E+02  0.51100000000E-03 0. -1.
         11   -1    0    0    0    0 -0.00000000000E+00 -0.00000000000E+00 -0.45593999997E+02  0.45594000000E+02  0.51100000000E-03 0.  1.
    9900012    2    1    2    0    0  0.41191363323E+02 -0.95206068553E+01  0.98108524964E+01  0.47787271965E+02  0.20000004197E+02 0.  0.
         12    1    1    2    0    0 -0.41191363323E+02  0.95206068553E+01 -0.98108524964E+01  0.43400728035E+02  0.00000000000E+00 0. -1.
         11    1    3    3    0    0  0.28380710095E+01 -0.11555252762E+00  0.75172153240E+01  0.80359520861E+01  0.51100000000E-03 0. -1.
        -11    1    3    3    0    0  0.65935272160E+01 -0.14607664945E+01  0.18809406521E+01  0.70104477673E+01  0.51100000000E-03 0.  1.
         12    1    3    3    0    0  0.31759765097E+02 -0.79442878333E+01  0.41269652034E+00  0.32740872111E+02  0.00000000000E+00 0. -1.
</event>
<event>
 7    1  0.5417298E-010  0.4778727E+02  0.7816164E-02  0.1312668E+00
        -11   -1    0    0    0    0  0.00000000000E+00  0.00000000000E+00  0.45593999997E+02  0.45594000000E+02  0.51100000000E-03 0.  1.
         11   -1    0    0    0    0 -0.00000000000E+00 -0.00000000000E+00 -0.45593999997E+02  0.45594000000E+02  0.51100000000E-03 0. -1.
    9900012    2    1    2    0    0  0.14257904095E+02  0.11050180038E+02  0.39474407439E+02  0.47787272463E+02  0.20000006468E+02 0.  0.
         12    1    1    2    0    0 -0.14257904095E+02 -0.11050180038E+02 -0.39474407439E+02  0.43400727537E+02  0.00000000000E+00 0. -1.
         11    1    3    3    0    0  0.48893782560E+01 -0.21227824049E+01  0.28902610146E+01  0.60634836408E+01  0.51100000000E-03 0.  1.
        -11    1    3    3    0    0  0.86570700921E+01  0.31845832491E+01  0.11689351643E+02  0.14890512924E+02  0.51100000000E-03 0. -1.
        -12    1    3    3    0    0  0.71145574736E+00  0.99883791939E+01  0.24894794782E+02  0.26833275898E+02  0.00000000000E+00 0.  1.
</event>
<event>
 7    1  0.5417298E-010  0.4778727E+02  0.7816164E-02  0.1312668E+00
        -11   -1    0    0    0    0  0.00000000000E+00  0.00000000000E+00  0.45593999997E+02  0.45594000000E+02  0.51100000000E-03 0.  1.
         11   -1    0    0    0    0 -0.00000000000E+00 -0.00000000000E+00 -0.45593999997E+02  0.45594000000E+02  0.51100000000E-03 0. -1.
    9900012    2    1    2    0    0  0.22792155440E+02 -0.10572285541E+01 -0.36919145270E+02  0.47787269945E+02  0.19999994987E+02 0.  0.
         12    1    1    2    0    0 -0.22792155440E+02  0.10572285541E+01  0.36919145270E+02  0.43400730055E+02  0.00000000000E+00 0. -1.
         11    1    3    3    0    0  0.52482315732E+01  0.39545951303E+01 -0.97642391692E+01  0.11769584704E+02  0.51100000000E-03 0. -1.
        -11    1    3    3    0    0  0.95881379014E+01  0.39429476358E+01 -0.67954043474E+01  0.12395835792E+02  0.51100000000E-03 0.  1.
         12    1    3    3    0    0  0.79557859656E+01 -0.89547713202E+01 -0.20359501754E+02  0.23621849449E+02  0.00000000000E+00 0. -1.
</event>
<event>
 7    1  0.5417298E-010  0.4778727E+02  0.7816164E-02  0.1312668E+00
        -11   -1    0    0    0    0  0.00000000000E+00  0.00000000000E+00  0.45593999997E+02  0.45594000000E+02  0.51100000000E-03 0.  1.
         11   -1    0    0    0    0 -0.00000000000E+00 -0.00000000000E+00 -0.45593999997E+02  0.45594000000E+02  0.51100000000E-03 0. -1.
    9900012    2    1    2    0    0 -0.74538604971E+01  0.42293197218E+02  0.62728612844E+01  0.47787270100E+02  0.19999995692E+02 0.  0.
         12    1    1    2    0    0  0.74538604971E+01 -0.42293197218E+02 -0.62728612844E+01  0.43400729900E+02  0.00000000000E+00 0. -1.
         11    1    3    3    0    0 -0.21418127099E+01  0.76381641549E+01 -0.36867492764E+01  0.87476301836E+01  0.51100000000E-03 0. -1.
        -11    1    3    3    0    0 -0.50510576941E+01  0.16539547326E+02 -0.18818508348E+01  0.17395722819E+02  0.51100000000E-03 0.  1.
         12    1    3    3    0    0 -0.26099009307E+00  0.18115485736E+02  0.11841461396E+02  0.21643917096E+02  0.00000000000E+00 0. -1.
</event>
<event>
 7    1  0.5417298E-010  0.4778727E+02  0.7816164E-02  0.1312668E+00
        -11   -1    0    0    0    0  0.00000000000E+00  0.00000000000E+00  0.45593999997E+02  0.45594000000E+02  0.51100000000E-03 0.  1.
         11   -1    0    0    0    0 -0.00000000000E+00 -0.00000000000E+00 -0.45593999997E+02  0.45594000000E+02  0.51100000000E-03 0. -1.
    9900012    2    1    2    0    0  0.16203271550E+02  0.31186508627E+02  0.25465250334E+02  0.47787270699E+02  0.19999998426E+02 0.  0.
         12    1    1    2    0    0 -0.16203271550E+02 -0.31186508627E+02 -0.25465250334E+02  0.43400729301E+02  0.00000000000E+00 0. -1.
         11    1    3    3    0    0  0.11607894930E+01  0.31991592844E+01  0.83939463489E+01  0.90576149147E+01  0.51100000000E-03 0. -1.
        -11    1    3    3    0    0  0.41585337021E+00 -0.16535534298E+01  0.99491318354E+00  0.19740885174E+01  0.51100000000E-03 0.  1.
        -12    1    3    3    0    0  0.14626628687E+02  0.29640902773E+02  0.16076390801E+02  0.36755567267E+02  0.00000000000E+00 0.  1.
</event>
<event>
 7    1  0.5417298E-010  0.4778726E+02  0.7816164E-02  0.1312668E+00
        -11   -1    0    0    0    0  0.00000000000E+00  0.00000000000E+00  0.45593999997E+02  0.45594000000E+02  0.51100000000E-03 0.  1.
         11   -1    0    0    0    0 -0.00000000000E+00 -0.00000000000E+00 -0.45593999997E+02  0.45594000000E+02  0.51100000000E-03 0. -1.
    9900012    2    1    2    0    0  0.20871630519E+02  0.42650770334E+01  0.37812804702E+02  0.47787262194E+02  0.19999959649E+02 0.  0.
         12    1    1    2    0    0 -0.20871630519E+02 -0.42650770334E+01 -0.37812804702E+02  0.43400737806E+02  0.00000000000E+00 0. -1.
         11    1    3    3    0    0 -0.29320841161E+01 -0.21553849067E+01  0.62923094728E+01  0.72688348531E+01  0.51100000000E-03 0. -1.
        -11    1    3    3    0    0  0.20183488385E+01  0.12647942829E+01  0.81331257380E+00  0.25169255483E+01  0.51100000000E-03 0.  1.
        -12    1    3    3    0    0  0.21785365796E+02  0.51556676572E+01  0.30707182656E+02  0.38001501793E+02  0.00000000000E+00 0.  1.
</event>
<event>
 7    1  0.5417298E-010  0.4778727E+02  0.7816164E-02  0.1312668E+00
        -11   -1    0    0    0    0  0.00000000000E+00  0.00000000000E+00  0.45593999997E+02  0.45594000000E+02  0.51100000000E-03 0. -1.
         11   -1    0    0    0    0 -0.00000000000E+00 -0.00000000000E+00 -0.45593999997E+02  0.45594000000E+02  0.51100000000E-03 0.  1.
    9900012    2    1    2    0    0 -0.33632921233E+01  0.42557466253E+02  0.78213477192E+01  0.47787272495E+02  0.20000006614E+02 0.  0.
         12    1    1    2    0    0  0.33632921233E+01 -0.42557466253E+02 -0.78213477192E+01  0.43400727505E+02  0.00000000000E+00 0. -1.
         11    1    3    3    0    0  0.17852710858E+01  0.12209377767E+02 -0.12474826154E+01  0.12402109153E+02  0.51100000000E-03 0. -1.
        -11    1    3    3    0    0  0.53467791586E-01  0.28305031029E+02  0.92937243212E+01  0.29791793373E+02  0.51100000000E-03 0.  1.
         12    1    3    3    0    0 -0.52020310007E+01  0.20430574573E+01 -0.22489398655E+00  0.55933699691E+01  0.00000000000E+00 0. -1.
</event>
<event>
 7    1  0.5417298E-010  0.4778727E+02  0.7816164E-02  0.1312668E+00
        -11   -1    0    0    0    0  0.00000000000E+00  0.00000000000E+00  0.45593999997E+02  0.45594000000E+02  0.51100000000E-03 0.  1.
         11   -1    0    0    0    0 -0.00000000000E+00 -0.00000000000E+00 -0.45593999997E+02  0.45594000000E+02  0.51100000000E-03 0. -1.
    9900012    2    1    2    0    0 -0.11384348478E+02 -0.52135458571E+01  0.41555247462E+02  0.47787273712E+02  0.20000012163E+02 0.  0.
         12    1    1    2    0    0  0.11384348478E+02  0.52135458571E+01 -0.41555247462E+02  0.43400726288E+02  0.00000000000E+00 0. -1.
         11    1    3    3    0    0 -0.46419728680E+01  0.42997042283E+01  0.14942512930E+02  0.16226954781E+02  0.51100000000E-03 0. -1.
        -11    1    3    3    0    0 -0.42605626027E+00 -0.80292898320E+00  0.17318767486E+02  0.17342604371E+02  0.51100000000E-03 0.  1.
        -12    1    3    3    0    0 -0.63163193498E+01 -0.87103211022E+01  0.92939670471E+01  0.14217714560E+02  0.00000000000E+00 0.  1.
</event>
<event>
 7    1  0.5417298E-010  0.4778727E+02  0.7816164E-02  0.1312668E+00
        -11   -1    0    0    0    0  0.00000000000E+00  0.00000000000E+00  0.45593999997E+02  0.45594000000E+02  0.51100000000E-03 0.  1.
         11   -1    0    0    0    0 -0.00000000000E+00 -0.00000000000E+00 -0.45593999997E+02  0.45594000000E+02  0.51100000000E-03 0. -1.
    9900012    2    1    2    0    0  0.39555974925E+02 -0.98548214539E+01  0.14893984755E+02  0.47787269130E+02  0.19999991271E+02 0.  0.
         12    1    1    2    0    0 -0.39555974925E+02  0.98548214539E+01 -0.14893984755E+02  0.43400730870E+02  0.00000000000E+00 0. -1.
         11    1    3    3    0    0  0.24334180408E+02 -0.14787734303E+02  0.10582783764E+02  0.30378030457E+02  0.51100000000E-03 0. -1.
        -11    1    3    3    0    0  0.84630638426E+01  0.41572307850E+01  0.48154641533E+01  0.10587479052E+02  0.51100000000E-03 0.  1.
        -12    1    3    3    0    0  0.67587306745E+01  0.77568206392E+00 -0.50426316310E+00  0.68217596214E+01  0.00000000000E+00 0.  1.
</event>
<event>
 7    1  0.5417298E-010  0.4778727E+02  0.7816164E-02  0.1312668E+00
        -11   -1    0    0    0    0  0.00000000000E+00  0.00000000000E+00  0.45593999997E+02  0.45594000000E+02  0.51100000000E-03 0. -1.
         11   -1    0    0    0    0 -0.00000000000E+00 -0.00000000000E+00 -0.45593999997E+02  0.45594000000E+02  0.51100000000E-03 0.  1.
    9900012    2    1    2    0    0 -0.41554461575E+02 -0.11118632088E+02 -0.57642198622E+01  0.47787268590E+02  0.19999988810E+02 0.  0.
         12    1    1    2    0    0  0.41554461575E+02  0.11118632088E+02  0.57642198622E+01  0.43400731410E+02  0.00000000000E+00 0. -1.
         11    1    3    3    0    0 -0.23535569881E+01 -0.26475551065E+01 -0.89170582549E+00  0.36529328051E+01  0.51100000000E-03 0. -1.
        -11    1    3    3    0    0 -0.33837904722E+02 -0.55592144247E+00 -0.64284902394E+01  0.34447617213E+02  0.51100000000E-03 0.  1.
        -12    1    3    3    0    0 -0.53629998651E+01 -0.79151555388E+01  0.15559762027E+01  0.96867185724E+01  0.00000000000E+00 0.  1.
</event>
<event>
 7    1  0.5417298E-010  0.4778727E+02  0.7816164E-02  0.1312668E+00
        -11   -1    0    0    0    0  0.00000000000E+00  0.00000000000E+00  0.45593999997E+02  0.45594000000E+02  0.51100000000E-03 0. -1.
         11   -1    0    0    0    0 -0.00000000000E+00 -0.00000000000E+00 -0.45593999997E+02  0.45594000000E+02  0.51100000000E-03 0.  1.
    9900012    2    1    2    0    0 -0.26430841762E+01 -0.40321632252E+02 -0.15836768766E+02  0.47787272283E+02  0.20000005645E+02 0.  0.
         12    1    1    2    0    0  0.26430841762E+01  0.40321632252E+02  0.15836768766E+02  0.43400727717E+02  0.00000000000E+00 0. -1.
         11    1    3    3    0    0 -0.25850397072E+01 -0.80062286781E+01 -0.71643257184E+01  0.11050325389E+02  0.51100000000E-03 0. -1.
        -11    1    3    3    0    0 -0.74892379127E+01 -0.18826019993E+02 -0.41000154036E+01  0.20671667564E+02  0.51100000000E-03 0.  1.
        -12    1    3    3    0    0  0.74311934437E+01 -0.13489383581E+02 -0.45724276440E+01  0.16065279330E+02  0.00000000000E+00 0.  1.
</event>
<event>
 7    1  0.5417298E-010  0.4778727E+02  0.7816164E-02  0.1312668E+00
        -11   -1    0    0    0    0  0.00000000000E+00  0.00000000000E+00  0.45593999997E+02  0.45594000000E+02  0.51100000000E-03 0. -1.
         11   -1    0    0    0    0 -0.00000000000E+00 -0.00000000000E+00 -0.45593999997E+02  0.45594000000E+02  0.51100000000E-03 0.  1.
    9900012    2    1    2    0    0  0.21928973786E+02  0.10442483018E+02 -0.35968010192E+02  0.47787273047E+02  0.20000009129E+02 0.  0.
         12    1    1    2    0    0 -0.21928973786E+02 -0.10442483018E+02  0.35968010192E+02  0.43400726953E+02  0.00000000000E+00 0. -1.
         11    1    3    3    0    0  0.34630837937E+01  0.20317032884E+01  0.87457759671E+00  0.41092157217E+01  0.51100000000E-03 0.  1.
        -11    1    3    3    0    0 -0.10294553499E+01  0.30147062820E+01 -0.60108335460E+01  0.68028194496E+01  0.51100000000E-03 0. -1.
        -12    1    3    3    0    0  0.19495345342E+02  0.53960734474E+01 -0.30831754243E+02  0.36875237875E+02  0.00000000000E+00 0.  1.
</event>
<event>
 7    1  0.5417298E-010  0.4778727E+02  0.7816164E-02  0.1312668E+00
        -11   -1    0    0    0    0  0.00000000000E+00  0.00000000000E+00  0.45593999997E+02  0.45594000000E+02  0.51100000000E-03 0.  1.
         11   -1    0    0    0    0 -0.00000000000E+00 -0.00000000000E+00 -0.45593999997E+02  0.45594000000E+02  0.51100000000E-03 0. -1.
    9900012    2    1    2    0    0  0.18071602799E+02  0.25977803366E+02 -0.29701760763E+02  0.47787266275E+02  0.19999978253E+02 0.  0.
         12    1    1    2    0    0 -0.18071602799E+02 -0.25977803366E+02  0.29701760763E+02  0.43400733725E+02  0.00000000000E+00 0. -1.
         11    1    3    3    0    0  0.27235650557E+01  0.45231808892E+01 -0.93780838920E+01  0.10762222341E+02  0.51100000000E-03 0. -1.
        -11    1    3    3    0    0  0.80010960500E+01  0.64344269522E+01 -0.17175602390E+02  0.20010514884E+02  0.51100000000E-03 0.  1.
        -12    1    3    3    0    0  0.73469416936E+01  0.15020195525E+02 -0.31480744816E+01  0.17014529050E+02  0.00000000000E+00 0.  1.
</event>
<event>
 7    1  0.5417298E-010  0.4778727E+02  0.7816164E-02  0.1312668E+00
        -11   -1    0    0    0    0  0.00000000000E+00  0.00000000000E+00  0.45593999997E+02  0.45594000000E+02  0.51100000000E-03 0. -1.
         11   -1    0    0    0    0 -0.00000000000E+00 -0.00000000000E+00 -0.45593999997E+02  0.45594000000E+02  0.51100000000E-03 0.  1.
    9900012    2    1    2    0    0  0.40590157372E+02 -0.43622063396E+01 -0.14732056431E+02  0.47787271823E+02  0.20000003551E+02 0.  0.
         12    1    1    2    0    0 -0.40590157372E+02  0.43622063396E+01  0.14732056431E+02  0.43400728177E+02  0.00000000000E+00 0. -1.
         11    1    3    3    0    0  0.52329743760E+00 -0.67337148484E+00  0.11101499756E+01  0.13998937797E+01  0.51100000000E-03 0. -1.
        -11    1    3    3    0    0  0.14342598553E+02  0.46396508720E+01 -0.11592920514E+02  0.19016632188E+02  0.51100000000E-03 0.  1.
        -12    1    3    3    0    0  0.25724261381E+02 -0.83284857268E+01 -0.42492858922E+01  0.27370745855E+02  0.00000000000E+00 0.  1.
</event>
<event>
 7    1  0.5417298E-010  0.4778727E+02  0.7816164E-02  0.1312668E+00
        -11   -1    0    0    0    0  0.00000000000E+00  0.00000000000E+00  0.45593999997E+02  0.45594000000E+02  0.51100000000E-03 0. -1.
         11   -1    0    0    0    0 -0.00000000000E+00 -0.00000000000E+00 -0.45593999997E+02  0.45594000000E+02  0.51100000000E-03 0.  1.
    9900012    2    1    2    0    0  0.37559240980E+02 -0.21280894538E+02  0.44777240489E+01  0.47787273416E+02  0.20000010813E+02 0.  0.
         12    1    1    2    0    0 -0.37559240980E+02  0.21280894538E+02 -0.44777240489E+01  0.43400726584E+02  0.00000000000E+00 0. -1.
         11    1    3    3    0    0  0.58494133792E+01 -0.15065978340E+01 -0.25569147171E+01  0.65592139046E+01  0.51100000000E-03 0. -1.
        -11    1    3    3    0    0  0.15613117226E+02 -0.65960056142E+01  0.10784895871E+02  0.20089566913E+02  0.51100000000E-03 0.  1.
        -12    1    3    3    0    0  0.16096710375E+02 -0.13178291090E+02 -0.37502571047E+01  0.21138492598E+02  0.00000000000E+00 0.  1.
</event>
<event>
 7    1  0.5417298E-010  0.4778728E+02  0.7816164E-02  0.1312668E+00
        -11   -1    0    0    0    0  0.00000000000E+00  0.00000000000E+00  0.45593999997E+02  0.45594000000E+02  0.51100000000E-03 0.  1.
         11   -1    0    0    0    0 -0.00000000000E+00 -0.00000000000E+00 -0.45593999997E+02  0.45594000000E+02  0.51100000000E-03 0. -1.
    9900012    2    1    2    0    0  0.14998083480E+02  0.29456051625E+02  0.28125103442E+02  0.47787275018E+02  0.20000018115E+02 0.  0.
         12    1    1    2    0    0 -0.14998083480E+02 -0.29456051625E+02 -0.28125103442E+02  0.43400724982E+02  0.00000000000E+00 0. -1.
         11    1    3    3    0    0  0.64613761533E+01  0.14215619345E+02  0.37902843012E+01  0.16068586450E+02  0.51100000000E-03 0. -1.
        -11    1    3    3    0    0  0.87237212638E+01  0.14435821285E+02  0.15695837758E+02  0.23040303211E+02  0.51100000000E-03 0.  1.
        -12    1    3    3    0    0 -0.18701393736E+00  0.80461099440E+00  0.86389813823E+01  0.86783853561E+01  0.00000000000E+00 0.  1.
</event>
<event>
 7    1  0.5417298E-010  0.4778727E+02  0.7816164E-02  0.1312668E+00
        -11   -1    0    0    0    0  0.00000000000E+00  0.00000000000E+00  0.45593999997E+02  0.45594000000E+02  0.51100000000E-03 0.  1.
         11   -1    0    0    0    0 -0.00000000000E+00 -0.00000000000E+00 -0.45593999997E+02  0.45594000000E+02  0.51100000000E-03 0. -1.
    9900012    2    1    2    0    0  0.14608295221E+02  0.20958697959E+02  0.35084956503E+02  0.47787268644E+02  0.19999989057E+02 0.  0.
         12    1    1    2    0    0 -0.14608295221E+02 -0.20958697959E+02 -0.35084956503E+02  0.43400731356E+02  0.00000000000E+00 0. -1.
         11    1    3    3    0    0  0.60634653017E+01  0.12811847765E+02  0.14040865032E+02  0.19951314386E+02  0.51100000000E-03 0.  1.
        -11    1    3    3    0    0 -0.19380344792E+01  0.59007795906E+01  0.13083366885E+02  0.14482736853E+02  0.51100000000E-03 0. -1.
        -12    1    3    3    0    0  0.10482864399E+02  0.22460706032E+01  0.79607245855E+01  0.13353217406E+02  0.00000000000E+00 0.  1.
</event>
<event>
 7    1  0.5417298E-010  0.4778727E+02  0.7816164E-02  0.1312668E+00
        -11   -1    0    0    0    0  0.00000000000E+00  0.00000000000E+00  0.45593999997E+02  0.45594000000E+02  0.51100000000E-03 0.  1.
         11   -1    0    0    0    0 -0.00000000000E+00 -0.00000000000E+00 -0.45593999997E+02  0.45594000000E+02  0.51100000000E-03 0. -1.
    9900012    2    1    2    0    0  0.38903106979E+02  0.14989244197E+02  0.12062098466E+02  0.47787269665E+02  0.19999993709E+02 0.  0.
         12    1    1    2    0    0 -0.38903106979E+02 -0.14989244197E+02 -0.12062098466E+02  0.43400730335E+02  0.00000000000E+00 0. -1.
         11    1    3    3    0    0  0.36258762273E+01 -0.81915414365E+00 -0.22439262386E+01  0.43420268484E+01  0.51100000000E-03 0. -1.
        -11    1    3    3    0    0  0.50267633725E+01  0.81063492393E+01  0.12921824643E+01  0.96255381031E+01  0.51100000000E-03 0.  1.
        -12    1    3    3    0    0  0.30250467379E+02  0.77020491016E+01  0.13013842240E+02  0.33819704713E+02  0.00000000000E+00 0.  1.
</event>
<event>
 7    1  0.5417298E-010  0.4778727E+02  0.7816164E-02  0.1312668E+00
        -11   -1    0    0    0    0  0.00000000000E+00  0.00000000000E+00  0.45593999997E+02  0.45594000000E+02  0.51100000000E-03 0.  1.
         11   -1    0    0    0    0 -0.00000000000E+00 -0.00000000000E+00 -0.45593999997E+02  0.45594000000E+02  0.51100000000E-03 0. -1.
    9900012    2    1    2    0    0  0.14374745435E+02  0.40776805709E+02  0.37738917381E+01  0.47787269027E+02  0.19999990803E+02 0.  0.
         12    1    1    2    0    0 -0.14374745435E+02 -0.40776805709E+02 -0.37738917381E+01  0.43400730973E+02  0.00000000000E+00 0. -1.
         11    1    3    3    0    0 -0.49751634066E+00  0.26942672490E+01  0.33198810917E+01  0.43044406422E+01  0.51100000000E-03 0. -1.
        -11    1    3    3    0    0 -0.11222506351E+01  0.74289482910E+01  0.43611353724E+01  0.86872447413E+01  0.51100000000E-03 0.  1.
        -12    1    3    3    0    0  0.15994512411E+02  0.30653590169E+02 -0.39071247259E+01  0.34795583644E+02  0.00000000000E+00 0.  1.
</event>
<event>
 7    1  0.5417298E-010  0.4778727E+02  0.7816164E-02  0.1312668E+00
        -11   -1    0    0    0    0  0.00000000000E+00  0.00000000000E+00  0.45593999997E+02  0.45594000000E+02  0.51100000000E-03 0. -1.
         11   -1    0    0    0    0 -0.00000000000E+00 -0.00000000000E+00 -0.45593999997E+02  0.45594000000E+02  0.51100000000E-03 0.  1.
    9900012    2    1    2    0    0  0.13987788985E+02 -0.20641450810E+02 -0.35523164747E+02  0.47787274593E+02  0.20000016178E+02 0.  0.
         12    1    1    2    0    0 -0.13987788985E+02  0.20641450810E+02  0.35523164747E+02  0.43400725407E+02  0.00000000000E+00 0. -1.
         11    1    3    3    0    0  0.24818165356E+00 -0.11492541296E+02 -0.12082038585E+02  0.16676802937E+02  0.51100000000E-03 0.  1.
        -11    1    3    3    0    0  0.27327427320E+01 -0.75032479017E+00  0.10126093153E+01  0.30093600676E+01  0.51100000000E-03 0. -1.
        -12    1    3    3    0    0  0.11006864599E+02 -0.83985847242E+01 -0.24453735478E+02  0.28101111588E+02  0.00000000000E+00 0.  1.
</event>
<event>
 7    1  0.5417298E-010  0.4778727E+02  0.7816164E-02  0.1312668E+00
        -11   -1    0    0    0    0  0.00000000000E+00  0.00000000000E+00  0.45593999997E+02  0.45594000000E+02  0.51100000000E-03 0. -1.
         11   -1    0    0    0    0 -0.00000000000E+00 -0.00000000000E+00 -0.45593999997E+02  0.45594000000E+02  0.51100000000E-03 0.  1.
    9900012    2    1    2    0    0  0.12753626639E+02  0.38735968440E+02  0.14849008974E+02  0.47787270617E+02  0.19999998052E+02 0.  0.
         12    1    1    2    0    0 -0.12753626639E+02 -0.38735968440E+02 -0.14849008974E+02  0.43400729383E+02  0.00000000000E+00 0. -1.
         11    1    3    3    0    0  0.26203539260E+01  0.11884170202E+02  0.65697543231E+01  0.13829729867E+02  0.51100000000E-03 0. -1.
        -11    1    3    3    0    0  0.20510883708E+01  0.24035452783E+02  0.79255031823E+01  0.25391407108E+02  0.51100000000E-03 0.  1.
         12    1    3    3    0    0  0.80821843423E+01  0.28163454560E+01  0.35375146846E+00  0.85661336420E+01  0.00000000000E+00 0. -1.
</event>
<event>
 7    1  0.5417298E-010  0.4778727E+02  0.7816164E-02  0.1312668E+00
        -11   -1    0    0    0    0  0.00000000000E+00  0.00000000000E+00  0.45593999997E+02  0.45594000000E+02  0.51100000000E-03 0. -1.
         11   -1    0    0    0    0 -0.00000000000E+00 -0.00000000000E+00 -0.45593999997E+02  0.45594000000E+02  0.51100000000E-03 0.  1.
    9900012    2    1    2    0    0 -0.37429413292E+02 -0.10732205904E+02  0.19169822358E+02  0.47787270603E+02  0.19999997988E+02 0.  0.
         12    1    1    2    0    0  0.37429413292E+02  0.10732205904E+02 -0.19169822358E+02  0.43400729397E+02  0.00000000000E+00 0. -1.
         11    1    3    3    0    0 -0.27277435690E+01 -0.51392564496E+01  0.23785088127E+01  0.62856858231E+01  0.51100000000E-03 0. -1.
        -11    1    3    3    0    0 -0.48279409002E+01  0.41010147377E+01  0.12389525435E+01  0.64546370061E+01  0.51100000000E-03 0.  1.
        -12    1    3    3    0    0 -0.29873728823E+02 -0.96939641920E+01  0.15552361001E+02  0.35046947774E+02  0.00000000000E+00 0.  1.
</event>
<event>
 7    1  0.5417298E-010  0.4778728E+02  0.7816164E-02  0.1312668E+00
        -11   -1    0    0    0    0  0.00000000000E+00  0.00000000000E+00  0.45593999997E+02  0.45594000000E+02  0.51100000000E-03 0. -1.
         11   -1    0    0    0    0 -0.00000000000E+00 -0.00000000000E+00 -0.45593999997E+02  0.45594000000E+02  0.51100000000E-03 0.  1.
    9900012    2    1    2    0    0  0.27717767993E+02 -0.27024489369E+02 -0.19622058363E+02  0.47787275783E+02  0.20000021605E+02 0.  0.
         12    1    1    2    0    0 -0.27717767993E+02  0.27024489369E+02  0.19622058363E+02  0.43400724217E+02  0.00000000000E+00 0. -1.
         11    1    3    3    0    0  0.11431570431E+02 -0.49897494915E+01 -0.28016836371E+01  0.12783889626E+02  0.51100000000E-03 0.  1.
        -11    1    3    3    0    0  0.35860488401E+01 -0.16268350029E+02 -0.78148244918E+01  0.18400827184E+02  0.51100000000E-03 0. -1.
        -12    1    3    3    0    0  0.12700148722E+02 -0.57663898482E+01 -0.90055502342E+01  0.16602558973E+02  0.00000000000E+00 0.  1.
</event>
<event>
 7    1  0.5417298E-010  0.4778729E+02  0.7816164E-02  0.1312668E+00
        -11   -1    0    0    0    0  0.00000000000E+00  0.00000000000E+00  0.45593999997E+02  0.45594000000E+02  0.51100000000E-03 0.  1.
         11   -1    0    0    0    0 -0.00000000000E+00 -0.00000000000E+00 -0.45593999997E+02  0.45594000000E+02  0.51100000000E-03 0. -1.
    9900012    2    1    2    0    0 -0.15007526375E+02  0.54139428494E+01  0.40361929703E+02  0.47787285784E+02  0.20000067203E+02 0.  0.
         12    1    1    2    0    0  0.15007526375E+02 -0.54139428494E+01 -0.40361929703E+02  0.43400714216E+02  0.00000000000E+00 0. -1.
         11    1    3    3    0    0  0.11781190989E+01  0.36735251936E+01  0.10512532362E+02  0.11198039511E+02  0.51100000000E-03 0. -1.
        -11    1    3    3    0    0 -0.10322865076E+02 -0.10030934914E+01  0.27997212300E+02  0.29856517492E+02  0.51100000000E-03 0.  1.
         12    1    3    3    0    0 -0.58627803984E+01  0.27435111473E+01  0.18521850417E+01  0.67327287814E+01  0.00000000000E+00 0. -1.
</event>
<event>
 7    1  0.5417298E-010  0.4778727E+02  0.7816164E-02  0.1312668E+00
        -11   -1    0    0    0    0  0.00000000000E+00  0.00000000000E+00  0.45593999997E+02  0.45594000000E+02  0.51100000000E-03 0. -1.
         11   -1    0    0    0    0 -0.00000000000E+00 -0.00000000000E+00 -0.45593999997E+02  0.45594000000E+02  0.51100000000E-03 0.  1.
    9900012    2    1    2    0    0 -0.17121134014E+02 -0.22920935111E+02 -0.32636188005E+02  0.47787271161E+02  0.20000000531E+02 0.  0.
         12    1    1    2    0    0  0.17121134014E+02  0.22920935111E+02  0.32636188005E+02  0.43400728839E+02  0.00000000000E+00 0. -1.
         11    1    3    3    0    0  0.21110209778E+01 -0.12100389491E+01  0.15429630212E+01  0.28812044310E+01  0.51100000000E-03 0. -1.
        -11    1    3    3    0    0 -0.30733106955E+01 -0.22085212377E+01 -0.49388479523E+01  0.62221398285E+01  0.51100000000E-03 0.  1.
         12    1    3    3    0    0 -0.16158844296E+02 -0.19502374924E+02 -0.29240303074E+02  0.38683926901E+02  0.00000000000E+00 0. -1.
</event>
<event>
 7    1  0.5417298E-010  0.4778727E+02  0.7816164E-02  0.1312668E+00
        -11   -1    0    0    0    0  0.00000000000E+00  0.00000000000E+00  0.45593999997E+02  0.45594000000E+02  0.51100000000E-03 0. -1.
         11   -1    0    0    0    0 -0.00000000000E+00 -0.00000000000E+00 -0.45593999997E+02  0.45594000000E+02  0.51100000000E-03 0.  1.
    9900012    2    1    2    0    0 -0.42075683689E+02 -0.96465997858E+00  0.10598579471E+02  0.47787267131E+02  0.19999982156E+02 0.  0.
         12    1    1    2    0    0  0.42075683689E+02  0.96465997858E+00 -0.10598579471E+02  0.43400732869E+02  0.00000000000E+00 0. -1.
         11    1    3    3    0    0 -0.43070087418E+01 -0.27674687400E+01 -0.32851733270E+01  0.60828917119E+01  0.51100000000E-03 0. -1.
        -11    1    3    3    0    0 -0.18804931782E+02 -0.25486617164E+01  0.24432081098E+01  0.19133489018E+02  0.51100000000E-03 0.  1.
        -12    1    3    3    0    0 -0.18963743165E+02  0.43514704778E+01  0.11440544688E+02  0.22570886401E+02  0.00000000000E+00 0.  1.
</event>
<event>
 7    1  0.5417298E-010  0.4778727E+02  0.7816164E-02  0.1312668E+00
        -11   -1    0    0    0    0  0.00000000000E+00  0.00000000000E+00  0.45593999997E+02  0.45594000000E+02  0.51100000000E-03 0.  1.
         11   -1    0    0    0    0 -0.00000000000E+00 -0.00000000000E+00 -0.45593999997E+02  0.45594000000E+02  0.51100000000E-03 0. -1.
    9900012    2    1    2    0    0 -0.38695592912E+02  0.80425424487E+01  0.17932983006E+02  0.47787270981E+02  0.19999999710E+02 0.  0.
         12    1    1    2    0    0  0.38695592912E+02 -0.80425424487E+01 -0.17932983006E+02  0.43400729019E+02  0.00000000000E+00 0. -1.
         11    1    3    3    0    0 -0.16154560063E+02  0.70346794600E+01 -0.78780063130E+00  0.17637379512E+02  0.51100000000E-03 0. -1.
        -11    1    3    3    0    0 -0.57425677086E+01 -0.22816449548E+01  0.28416842374E+01  0.68013349538E+01  0.51100000000E-03 0.  1.
         12    1    3    3    0    0 -0.16798465140E+02  0.32895079435E+01  0.15879099400E+02  0.23348556515E+02  0.00000000000E+00 0. -1.
</event>
<event>
 7    1  0.5417298E-010  0.4778728E+02  0.7816164E-02  0.1312668E+00
        -11   -1    0    0    0    0  0.00000000000E+00  0.00000000000E+00  0.45593999997E+02  0.45594000000E+02  0.51100000000E-03 0.  1.
         11   -1    0    0    0    0 -0.00000000000E+00 -0.00000000000E+00 -0.45593999997E+02  0.45594000000E+02  0.51100000000E-03 0. -1.
    9900012    2    1    2    0    0 -0.29143886713E+02 -0.11464100376E+02  0.30047145987E+02  0.47787277515E+02  0.20000029504E+02 0.  0.
         12    1    1    2    0    0  0.29143886713E+02  0.11464100376E+02 -0.30047145987E+02  0.43400722485E+02  0.00000000000E+00 0. -1.
         11    1    3    3    0    0 -0.23590320274E+02 -0.65362778894E+01  0.17735627214E+02  0.30228771266E+02  0.51100000000E-03 0. -1.
        -11    1    3    3    0    0 -0.66469597540E+01  0.25999912700E+00  0.93827550870E+01  0.11501554973E+02  0.51100000000E-03 0.  1.
         12    1    3    3    0    0  0.10933933150E+01 -0.51878216137E+01  0.29287636862E+01  0.60569512765E+01  0.00000000000E+00 0. -1.
</event>
<event>
 7    1  0.5417298E-010  0.4778727E+02  0.7816164E-02  0.1312668E+00
        -11   -1    0    0    0    0  0.00000000000E+00  0.00000000000E+00  0.45593999997E+02  0.45594000000E+02  0.51100000000E-03 0.  1.
         11   -1    0    0    0    0 -0.00000000000E+00 -0.00000000000E+00 -0.45593999997E+02  0.45594000000E+02  0.51100000000E-03 0. -1.
    9900012    2    1    2    0    0 -0.22226083371E+02  0.52074394473E+01  0.36912154915E+02  0.47787269729E+02  0.19999994001E+02 0.  0.
         12    1    1    2    0    0  0.22226083371E+02 -0.52074394473E+01 -0.36912154915E+02  0.43400730271E+02  0.00000000000E+00 0. -1.
         11    1    3    3    0    0 -0.36329390561E+01 -0.15389932815E+01  0.19015202478E+01  0.43797860701E+01  0.51100000000E-03 0. -1.
        -11    1    3    3    0    0 -0.10817372044E+02  0.27480299939E+01  0.32421264913E+02  0.34288564065E+02  0.51100000000E-03 0.  1.
        -12    1    3    3    0    0 -0.77757722709E+01  0.39984027349E+01  0.25893697541E+01  0.91189195940E+01  0.00000000000E+00 0.  1.
</event>
<event>
 7    1  0.5417298E-010  0.4778727E+02  0.7816164E-02  0.1312668E+00
        -11   -1    0    0    0    0  0.00000000000E+00  0.00000000000E+00  0.45593999997E+02  0.45594000000E+02  0.51100000000E-03 0.  1.
         11   -1    0    0    0    0 -0.00000000000E+00 -0.00000000000E+00 -0.45593999997E+02  0.45594000000E+02  0.51100000000E-03 0. -1.
    9900012    2    1    2    0    0 -0.22668519344E+02 -0.21430872523E+02  0.30174146021E+02  0.47787272421E+02  0.20000006275E+02 0.  0.
         12    1    1    2    0    0  0.22668519344E+02  0.21430872523E+02 -0.30174146021E+02  0.43400727579E+02  0.00000000000E+00 0. -1.
         11    1    3    3    0    0 -0.41811721025E+00 -0.31119789718E+01  0.95037395262E+00  0.32806167154E+01  0.51100000000E-03 0. -1.
        -11    1    3    3    0    0 -0.17723105391E+02 -0.79557166172E+01  0.26528384142E+02  0.32880952800E+02  0.51100000000E-03 0.  1.
        -12    1    3    3    0    0 -0.45272967421E+01 -0.10363176934E+02  0.26953879261E+01  0.11625702905E+02  0.00000000000E+00 0.  1.
</event>
<event>
 7    1  0.5417298E-010  0.4778727E+02  0.7816164E-02  0.1312668E+00
        -11   -1    0    0    0    0  0.00000000000E+00  0.00000000000E+00  0.45593999997E+02  0.45594000000E+02  0.51100000000E-03 0.  1.
         11   -1    0    0    0    0 -0.00000000000E+00 -0.00000000000E+00 -0.45593999997E+02  0.45594000000E+02  0.51100000000E-03 0. -1.
    9900012    2    1    2    0    0  0.33218851887E+02  0.75553640302E+01  0.26889551003E+02  0.47787267293E+02  0.19999982898E+02 0.  0.
         12    1    1    2    0    0 -0.33218851887E+02 -0.75553640302E+01 -0.26889551003E+02  0.43400732707E+02  0.00000000000E+00 0. -1.
         11    1    3    3    0    0  0.60262530468E+01  0.46998658112E+01  0.84375891675E+01  0.11384084313E+02  0.51100000000E-03 0. -1.
        -11    1    3    3    0    0  0.20848639160E+02 -0.22529588003E+01  0.18921309658E+02  0.28244601920E+02  0.51100000000E-03 0.  1.
        -12    1    3    3    0    0  0.63439596804E+01  0.51084570193E+01 -0.46934782227E+00  0.81585810606E+01  0.00000000000E+00 0.  1.
</event>
<event>
 7    1  0.5417298E-010  0.4778727E+02  0.7816164E-02  0.1312668E+00
        -11   -1    0    0    0    0  0.00000000000E+00  0.00000000000E+00  0.45593999997E+02  0.45594000000E+02  0.51100000000E-03 0.  1.
         11   -1    0    0    0    0 -0.00000000000E+00 -0.00000000000E+00 -0.45593999997E+02  0.45594000000E+02  0.51100000000E-03 0. -1.
    9900012    2    1    2    0    0  0.91430617832E+01 -0.41012173742E+02  0.10864124432E+02  0.47787272201E+02  0.20000005271E+02 0.  0.
         12    1    1    2    0    0 -0.91430617832E+01  0.41012173742E+02 -0.10864124432E+02  0.43400727799E+02  0.00000000000E+00 0. -1.
         11    1    3    3    0    0  0.71843013552E+00 -0.18074119326E+02 -0.91878049085E+00  0.18111711380E+02  0.51100000000E-03 0. -1.
        -11    1    3    3    0    0  0.27699104259E+00 -0.24287576294E+01 -0.24135542654E+01  0.34352339241E+01  0.51100000000E-03 0.  1.
        -12    1    3    3    0    0  0.81476406051E+01 -0.20509296787E+02  0.14196459189E+02  0.26240326896E+02  0.00000000000E+00 0.  1.
</event>
<event>
 7    1  0.5417298E-010  0.4778727E+02  0.7816164E-02  0.1312668E+00
        -11   -1    0    0    0    0  0.00000000000E+00  0.00000000000E+00  0.45593999997E+02  0.45594000000E+02  0.51100000000E-03 0.  1.
         11   -1    0    0    0    0 -0.00000000000E+00 -0.00000000000E+00 -0.45593999997E+02  0.45594000000E+02  0.51100000000E-03 0. -1.
    9900012    2    1    2    0    0  0.17808960167E+02  0.22248666445E+02  0.32733177655E+02  0.47787272584E+02  0.20000007021E+02 0.  0.
         12    1    1    2    0    0 -0.17808960167E+02 -0.22248666445E+02 -0.32733177655E+02  0.43400727416E+02  0.00000000000E+00 0. -1.
         11    1    3    3    0    0  0.53751309958E+01  0.10247113395E+02  0.69524757923E+01  0.13499343912E+02  0.51100000000E-03 0. -1.
        -11    1    3    3    0    0 -0.22129058788E+01 -0.23861704044E+00  0.19681874688E-01  0.22258207829E+01  0.51100000000E-03 0.  1.
        -12    1    3    3    0    0  0.14646735050E+02  0.12240170090E+02  0.25761019988E+02  0.32062107889E+02  0.00000000000E+00 0.  1.
</event>
<event>
 7    1  0.5417298E-010  0.4778727E+02  0.7816164E-02  0.1312668E+00
        -11   -1    0    0    0    0  0.00000000000E+00  0.00000000000E+00  0.45593999997E+02  0.45594000000E+02  0.51100000000E-03 0.  1.
         11   -1    0    0    0    0 -0.00000000000E+00 -0.00000000000E+00 -0.45593999997E+02  0.45594000000E+02  0.51100000000E-03 0. -1.
    9900012    2    1    2    0    0 -0.30218991967E+02  0.24122615713E+02 -0.19711288625E+02  0.47787274619E+02  0.20000016299E+02 0.  0.
         12    1    1    2    0    0  0.30218991967E+02 -0.24122615713E+02  0.19711288625E+02  0.43400725381E+02  0.00000000000E+00 0. -1.
         11    1    3    3    0    0 -0.69468370223E+01  0.11276123612E+02 -0.20313728707E+01  0.13399103863E+02  0.51100000000E-03 0. -1.
        -11    1    3    3    0    0 -0.95531798248E+01  0.23577452831E+01 -0.23695103434E+00  0.98426802061E+01  0.51100000000E-03 0.  1.
        -12    1    3    3    0    0 -0.13718975120E+02  0.10488746819E+02 -0.17442964720E+02  0.24545490551E+02  0.00000000000E+00 0.  1.
</event>
<event>
 7    1  0.5417298E-010  0.4778727E+02  0.7816164E-02  0.1312668E+00
        -11   -1    0    0    0    0  0.00000000000E+00  0.00000000000E+00  0.45593999997E+02  0.45594000000E+02  0.51100000000E-03 0. -1.
         11   -1    0    0    0    0 -0.00000000000E+00 -0.00000000000E+00 -0.45593999997E+02  0.45594000000E+02  0.51100000000E-03 0.  1.
    9900012    2    1    2    0    0 -0.19210053497E+02  0.18614195451E+02 -0.34177606014E+02  0.47787272120E+02  0.20000004904E+02 0.  0.
         12    1    1    2    0    0  0.19210053497E+02 -0.18614195451E+02  0.34177606014E+02  0.43400727880E+02  0.00000000000E+00 0. -1.
         11    1    3    3    0    0 -0.95206145459E+01  0.37302332555E+01 -0.67217581851E+01  0.12236779594E+02  0.51100000000E-03 0. -1.
        -11    1    3    3    0    0 -0.13104997665E+02  0.95556272905E+01 -0.18833692764E+02  0.24854757293E+02  0.51100000000E-03 0.  1.
         12    1    3    3    0    0  0.34155587145E+01  0.53283349052E+01 -0.86221550655E+01  0.10695735233E+02  0.00000000000E+00 0. -1.
</event>
<event>
 7    1  0.5417298E-010  0.4778727E+02  0.7816164E-02  0.1312668E+00
        -11   -1    0    0    0    0  0.00000000000E+00  0.00000000000E+00  0.45593999997E+02  0.45594000000E+02  0.51100000000E-03 0.  1.
         11   -1    0    0    0    0 -0.00000000000E+00 -0.00000000000E+00 -0.45593999997E+02  0.45594000000E+02  0.51100000000E-03 0. -1.
    9900012    2    1    2    0    0 -0.28396812625E+02  0.72646356436E+01  0.32007331597E+02  0.47787272192E+02  0.20000005233E+02 0.  0.
         12    1    1    2    0    0  0.28396812625E+02 -0.72646356436E+01 -0.32007331597E+02  0.43400727808E+02  0.00000000000E+00 0. -1.
         11    1    3    3    0    0 -0.25736943597E+00 -0.37292360085E+01  0.30266920524E+01  0.48098134345E+01  0.51100000000E-03 0. -1.
        -11    1    3    3    0    0 -0.36341423797E+01  0.12122566845E+01  0.63263845422E-01  0.38315218491E+01  0.51100000000E-03 0.  1.
        -12    1    3    3    0    0 -0.24505300809E+02  0.97816149677E+01  0.28917375699E+02  0.39145936909E+02  0.00000000000E+00 0.  1.
</event>
<event>
 7    1  0.5417298E-010  0.4778727E+02  0.7816164E-02  0.1312668E+00
        -11   -1    0    0    0    0  0.00000000000E+00  0.00000000000E+00  0.45593999997E+02  0.45594000000E+02  0.51100000000E-03 0.  1.
         11   -1    0    0    0    0 -0.00000000000E+00 -0.00000000000E+00 -0.45593999997E+02  0.45594000000E+02  0.51100000000E-03 0. -1.
    9900012    2    1    2    0    0 -0.95258653988E+01 -0.17474003394E+02  0.38568644308E+02  0.47787271550E+02  0.20000002306E+02 0.  0.
         12    1    1    2    0    0  0.95258653988E+01  0.17474003394E+02 -0.38568644308E+02  0.43400728450E+02  0.00000000000E+00 0. -1.
         11    1    3    3    0    0 -0.97652223815E+01 -0.15217986751E+02  0.29240681802E+02  0.34379705662E+02  0.51100000000E-03 0. -1.
        -11    1    3    3    0    0  0.17715079646E+01 -0.55870428483E+01  0.66680434991E+01  0.88778427912E+01  0.51100000000E-03 0.  1.
        -12    1    3    3    0    0 -0.15321509819E+01  0.33310262053E+01  0.26599190068E+01  0.45297230969E+01  0.00000000000E+00 0.  1.
</event>
<event>
 7    1  0.5417298E-010  0.4778726E+02  0.7816164E-02  0.1312668E+00
        -11   -1    0    0    0    0  0.00000000000E+00  0.00000000000E+00  0.45593999997E+02  0.45594000000E+02  0.51100000000E-03 0. -1.
         11   -1    0    0    0    0 -0.00000000000E+00 -0.00000000000E+00 -0.45593999997E+02  0.45594000000E+02  0.51100000000E-03 0.  1.
    9900012    2    1    2    0    0 -0.15430196211E+02 -0.39704148984E+02 -0.83134769139E+01  0.47787259222E+02  0.19999946099E+02 0.  0.
         12    1    1    2    0    0  0.15430196211E+02  0.39704148984E+02  0.83134769139E+01  0.43400740778E+02  0.00000000000E+00 0. -1.
         11    1    3    3    0    0  0.62975506530E+00 -0.14329088950E+01 -0.29247443135E+01  0.33172200567E+01  0.51100000000E-03 0. -1.
        -11    1    3    3    0    0 -0.96587377425E+01 -0.14317675527E+02 -0.88987206173E+01  0.19428697233E+02  0.51100000000E-03 0.  1.
        -12    1    3    3    0    0 -0.64012135336E+01 -0.23953564562E+02  0.35099880170E+01  0.25041341933E+02  0.00000000000E+00 0.  1.
</event>
<event>
 7    1  0.5417298E-010  0.4778728E+02  0.7816164E-02  0.1312668E+00
        -11   -1    0    0    0    0  0.00000000000E+00  0.00000000000E+00  0.45593999997E+02  0.45594000000E+02  0.51100000000E-03 0.  1.
         11   -1    0    0    0    0 -0.00000000000E+00 -0.00000000000E+00 -0.45593999997E+02  0.45594000000E+02  0.51100000000E-03 0. -1.
    9900012    2    1    2    0    0 -0.34560569997E+02 -0.13476499405E+02  0.22529389210E+02  0.47787280964E+02  0.20000045226E+02 0.  0.
         12    1    1    2    0    0  0.34560569997E+02  0.13476499405E+02 -0.22529389210E+02  0.43400719036E+02  0.00000000000E+00 0. -1.
         11    1    3    3    0    0 -0.21708976348E+02 -0.77362585599E+01  0.41150898700E+01  0.23410752134E+02  0.51100000000E-03 0. -1.
        -11    1    3    3    0    0 -0.11707062668E+02 -0.73535432365E+01  0.14774903691E+02  0.20234319702E+02  0.51100000000E-03 0.  1.
        -12    1    3    3    0    0 -0.11445309803E+01  0.16133023914E+01  0.36393956487E+01  0.41422091278E+01  0.00000000000E+00 0.  1.
</event>
<event>
 7    1  0.5417298E-010  0.4778729E+02  0.7816164E-02  0.1312668E+00
        -11   -1    0    0    0    0  0.00000000000E+00  0.00000000000E+00  0.45593999997E+02  0.45594000000E+02  0.51100000000E-03 0.  1.
         11   -1    0    0    0    0 -0.00000000000E+00 -0.00000000000E+00 -0.45593999997E+02  0.45594000000E+02  0.51100000000E-03 0. -1.
    9900012    2    1    2    0    0 -0.23616508938E+02  0.68464449723E+01  0.35763224306E+02  0.47787291297E+02  0.20000092339E+02 0.  0.
         12    1    1    2    0    0  0.23616508938E+02 -0.68464449723E+01 -0.35763224306E+02  0.43400708703E+02  0.00000000000E+00 0. -1.
         11    1    3    3    0    0 -0.96922916075E+01  0.73093769484E+01  0.19178140520E+02  0.22697325438E+02  0.51100000000E-03 0.  1.
        -11    1    3    3    0    0 -0.15220272442E+01  0.36592409706E+01  0.93417604959E+01  0.10147664797E+02  0.51100000000E-03 0. -1.
        -12    1    3    3    0    0 -0.12402190086E+02 -0.41221729468E+01  0.72433232907E+01  0.14942301062E+02  0.00000000000E+00 0.  1.
</event>
<event>
 7    1  0.5417298E-010  0.4778727E+02  0.7816164E-02  0.1312668E+00
        -11   -1    0    0    0    0  0.00000000000E+00  0.00000000000E+00  0.45593999997E+02  0.45594000000E+02  0.51100000000E-03 0.  1.
         11   -1    0    0    0    0 -0.00000000000E+00 -0.00000000000E+00 -0.45593999997E+02  0.45594000000E+02  0.51100000000E-03 0. -1.
    9900012    2    1    2    0    0 -0.36309650206E+02 -0.13269894325E+02  0.19726694054E+02  0.47787271299E+02  0.20000001160E+02 0.  0.
         12    1    1    2    0    0  0.36309650206E+02  0.13269894325E+02 -0.19726694054E+02  0.43400728701E+02  0.00000000000E+00 0. -1.
         11    1    3    3    0    0 -0.56051082303E+01  0.57819713690E+00  0.83862342334E+01  0.10103488263E+02  0.51100000000E-03 0. -1.
        -11    1    3    3    0    0 -0.16852551831E+02 -0.11498249168E+02  0.11908029638E+02  0.23622434406E+02  0.51100000000E-03 0.  1.
         12    1    3    3    0    0 -0.13851990145E+02 -0.23498422939E+01 -0.56756981778E+00  0.14061348630E+02  0.00000000000E+00 0. -1.
</event>
<event>
 7    1  0.5417298E-010  0.4778727E+02  0.7816164E-02  0.1312668E+00
        -11   -1    0    0    0    0  0.00000000000E+00  0.00000000000E+00  0.45593999997E+02  0.45594000000E+02  0.51100000000E-03 0.  1.
         11   -1    0    0    0    0 -0.00000000000E+00 -0.00000000000E+00 -0.45593999997E+02  0.45594000000E+02  0.51100000000E-03 0. -1.
    9900012    2    1    2    0    0  0.23454994378E+02 -0.21604922063E+02  0.29440004936E+02  0.47787270636E+02  0.19999998140E+02 0.  0.
         12    1    1    2    0    0 -0.23454994378E+02  0.21604922063E+02 -0.29440004936E+02  0.43400729364E+02  0.00000000000E+00 0. -1.
         11    1    3    3    0    0  0.89117367808E+01 -0.82341842103E+01  0.16436656295E+02  0.20429990516E+02  0.51100000000E-03 0. -1.
        -11    1    3    3    0    0  0.15536692580E+02 -0.90293454619E+01  0.14016468475E+02  0.22789894352E+02  0.51100000000E-03 0.  1.
         12    1    3    3    0    0 -0.99343498291E+00 -0.43413923908E+01 -0.10131198339E+01  0.45673857680E+01  0.00000000000E+00 0. -1.
</event>
<event>
 7    1  0.5417298E-010  0.4778727E+02  0.7816164E-02  0.1312668E+00
        -11   -1    0    0    0    0  0.00000000000E+00  0.00000000000E+00  0.45593999997E+02  0.45594000000E+02  0.51100000000E-03 0.  1.
         11   -1    0    0    0    0 -0.00000000000E+00 -0.00000000000E+00 -0.45593999997E+02  0.45594000000E+02  0.51100000000E-03 0. -1.
    9900012    2    1    2    0    0 -0.94921451030E+01 -0.42028520836E+02 -0.52082425952E+01  0.47787272204E+02  0.20000005286E+02 0.  0.
         12    1    1    2    0    0  0.94921451030E+01  0.42028520836E+02  0.52082425952E+01  0.43400727796E+02  0.00000000000E+00 0. -1.
         11    1    3    3    0    0  0.10036587446E+01 -0.16592441005E+01 -0.32802887082E+01  0.38106057433E+01  0.51100000000E-03 0. -1.
        -11    1    3    3    0    0 -0.81227209283E+01 -0.11947011633E+02 -0.50068327446E+01  0.15289802373E+02  0.51100000000E-03 0.  1.
        -12    1    3    3    0    0 -0.23730829193E+01 -0.28422265103E+02  0.30788788576E+01  0.28686864087E+02  0.00000000000E+00 0.  1.
</event>
<event>
 7    1  0.5417298E-010  0.4778727E+02  0.7816164E-02  0.1312668E+00
        -11   -1    0    0    0    0  0.00000000000E+00  0.00000000000E+00  0.45593999997E+02  0.45594000000E+02  0.51100000000E-03 0.  1.
         11   -1    0    0    0    0 -0.00000000000E+00 -0.00000000000E+00 -0.45593999997E+02  0.45594000000E+02  0.51100000000E-03 0. -1.
    9900012    2    1    2    0    0  0.34419824903E+02  0.22936220907E+02  0.13146438201E+02  0.47787269439E+02  0.19999992678E+02 0.  0.
         12    1    1    2    0    0 -0.34419824903E+02 -0.22936220907E+02 -0.13146438201E+02  0.43400730561E+02  0.00000000000E+00 0. -1.
         11    1    3    3    0    0  0.11852113244E+01 -0.71500272929E+00 -0.29320132905E+01  0.32423227759E+01  0.51100000000E-03 0. -1.
        -11    1    3    3    0    0  0.29539410761E+01  0.50079106281E+01  0.37033086625E+01  0.68934339810E+01  0.51100000000E-03 0.  1.
        -12    1    3    3    0    0  0.30280672503E+02  0.18643313009E+02  0.12375142829E+02  0.37651512682E+02  0.00000000000E+00 0.  1.
</event>
<event>
 7    1  0.5417298E-010  0.4778727E+02  0.7816164E-02  0.1312668E+00
        -11   -1    0    0    0    0  0.00000000000E+00  0.00000000000E+00  0.45593999997E+02  0.45594000000E+02  0.51100000000E-03 0.  1.
         11   -1    0    0    0    0 -0.00000000000E+00 -0.00000000000E+00 -0.45593999997E+02  0.45594000000E+02  0.51100000000E-03 0. -1.
    9900012    2    1    2    0    0 -0.91301777597E+01  0.43408073444E+01  0.42206875831E+02  0.47787272797E+02  0.20000007991E+02 0.  0.
         12    1    1    2    0    0  0.91301777597E+01 -0.43408073444E+01 -0.42206875831E+02  0.43400727203E+02  0.00000000000E+00 0. -1.
         11    1    3    3    0    0  0.15521129540E+01  0.41995598024E+01  0.21086751913E+02  0.21556819423E+02  0.51100000000E-03 0. -1.
        -11    1    3    3    0    0 -0.72356540115E+01 -0.33832579237E+00  0.21540037245E+02  0.22725368162E+02  0.51100000000E-03 0.  1.
         12    1    3    3    0    0 -0.34466367022E+01  0.47957333439E+00 -0.41991332674E+00  0.35050852118E+01  0.00000000000E+00 0. -1.
</event>
<event>
 7    1  0.5417298E-010  0.4778732E+02  0.7816164E-02  0.1312668E+00
        -11   -1    0    0    0    0  0.00000000000E+00  0.00000000000E+00  0.45593999997E+02  0.45594000000E+02  0.51100000000E-03 0.  1.
         11   -1    0    0    0    0 -0.00000000000E+00 -0.00000000000E+00 -0.45593999997E+02  0.45594000000E+02  0.51100000000E-03 0. -1.
    9900012    2    1    2    0    0 -0.24840467939E+02 -0.23371615076E+02  0.26839111073E+02  0.47787318878E+02  0.20000218091E+02 0.  0.
         12    1    1    2    0    0  0.24840467939E+02  0.23371615076E+02 -0.26839111073E+02  0.43400681122E+02  0.00000000000E+00 0. -1.
         11    1    3    3    0    0 -0.43929451010E+01 -0.46577115353E+01  0.99149517046E+00  0.64788352611E+01  0.51100000000E-03 0. -1.
        -11    1    3    3    0    0 -0.18570724239E+02 -0.13615115005E+02  0.11042341305E+02  0.25537745733E+02  0.51100000000E-03 0.  1.
         12    1    3    3    0    0 -0.18767985995E+01 -0.50987885350E+01  0.14805274597E+02  0.15770737884E+02  0.00000000000E+00 0. -1.
</event>
<event>
 7    1  0.5417298E-010  0.4778726E+02  0.7816164E-02  0.1312668E+00
        -11   -1    0    0    0    0  0.00000000000E+00  0.00000000000E+00  0.45593999997E+02  0.45594000000E+02  0.51100000000E-03 0.  1.
         11   -1    0    0    0    0 -0.00000000000E+00 -0.00000000000E+00 -0.45593999997E+02  0.45594000000E+02  0.51100000000E-03 0. -1.
    9900012    2    1    2    0    0  0.21779975613E+02  0.35488636134E+02  0.12239848704E+02  0.47787256589E+02  0.19999934091E+02 0.  0.
         12    1    1    2    0    0 -0.21779975613E+02 -0.35488636134E+02 -0.12239848704E+02  0.43400743411E+02  0.00000000000E+00 0. -1.
         11    1    3    3    0    0  0.50825775301E+01  0.10919541721E+01  0.26298316445E+01  0.58258881729E+01  0.51100000000E-03 0. -1.
        -11    1    3    3    0    0  0.45570730324E+01  0.18199028103E+02  0.10865433732E+02  0.21680156572E+02  0.51100000000E-03 0.  1.
         12    1    3    3    0    0  0.12140325051E+02  0.16197653858E+02 -0.12554166723E+01  0.20281211844E+02  0.00000000000E+00 0. -1.
</event>
<event>
 7    1  0.5417298E-010  0.4778734E+02  0.7816164E-02  0.1312667E+00
        -11   -1    0    0    0    0  0.00000000000E+00  0.00000000000E+00  0.45593999997E+02  0.45594000000E+02  0.51100000000E-03 0.  1.
         11   -1    0    0    0    0 -0.00000000000E+00 -0.00000000000E+00 -0.45593999997E+02  0.45594000000E+02  0.51100000000E-03 0. -1.
    9900012    2    1    2    0    0 -0.33502828656E+02  0.10150358889E+02  0.25654403051E+02  0.47787335150E+02  0.20000292279E+02 0.  0.
         12    1    1    2    0    0  0.33502828656E+02 -0.10150358889E+02 -0.25654403051E+02  0.43400664850E+02  0.00000000000E+00 0. -1.
         11    1    3    3    0    0  0.20390065675E+00 -0.29078003237E+00 -0.44195327949E+00  0.56696690152E+00  0.51100000000E-03 0. -1.
        -11    1    3    3    0    0 -0.23438672497E+02  0.15270115669E+02  0.19434262935E+02  0.34062272048E+02  0.51100000000E-03 0.  1.
        -12    1    3    3    0    0 -0.10268056816E+02 -0.48289767475E+01  0.66620933959E+01  0.13158096200E+02  0.00000000000E+00 0.  1.
</event>
<event>
 7    1  0.5417298E-010  0.4778726E+02  0.7816164E-02  0.1312668E+00
        -11   -1    0    0    0    0  0.00000000000E+00  0.00000000000E+00  0.45593999997E+02  0.45594000000E+02  0.51100000000E-03 0.  1.
         11   -1    0    0    0    0 -0.00000000000E+00 -0.00000000000E+00 -0.45593999997E+02  0.45594000000E+02  0.51100000000E-03 0. -1.
    9900012    2    1    2    0    0 -0.10203235515E+02  0.34767542005E+02  0.23890080227E+02  0.47787263540E+02  0.19999965784E+02 0.  0.
         12    1    1    2    0    0  0.10203235515E+02 -0.34767542005E+02 -0.23890080227E+02  0.43400736460E+02  0.00000000000E+00 0. -1.
         11    1    3    3    0    0  0.26232940885E+01  0.10715040198E+02  0.64812586566E+01  0.12794548540E+02  0.51100000000E-03 0. -1.
        -11    1    3    3    0    0 -0.16642147058E+01  0.23875809259E+01  0.85985307966E+01  0.90777136651E+01  0.51100000000E-03 0.  1.
         12    1    3    3    0    0 -0.11162314898E+02  0.21664920881E+02  0.88102907735E+01  0.25915001335E+02  0.00000000000E+00 0. -1.
</event>
<event>
 7    1  0.5417298E-010  0.4778727E+02  0.7816164E-02  0.1312668E+00
        -11   -1    0    0    0    0  0.00000000000E+00  0.00000000000E+00  0.45593999997E+02  0.45594000000E+02  0.51100000000E-03 0. -1.
         11   -1    0    0    0    0 -0.00000000000E+00 -0.00000000000E+00 -0.45593999997E+02  0.45594000000E+02  0.51100000000E-03 0.  1.
    9900012    2    1    2    0    0 -0.28094000059E+02  0.50126223599E+01 -0.32698992318E+02  0.47787270503E+02  0.19999997531E+02 0.  0.
         12    1    1    2    0    0  0.28094000059E+02 -0.50126223599E+01  0.32698992318E+02  0.43400729497E+02  0.00000000000E+00 0. -1.
         11    1    3    3    0    0 -0.26267469164E+01  0.27808751411E+01 -0.87366046649E+01  0.95373647957E+01  0.51100000000E-03 0. -1.
        -11    1    3    3    0    0 -0.10388739097E+02 -0.62391933087E+01 -0.13005146897E+02  0.17776031032E+02  0.51100000000E-03 0.  1.
         12    1    3    3    0    0 -0.15078514045E+02  0.84709405274E+01 -0.10957240756E+02  0.20473874675E+02  0.00000000000E+00 0. -1.
</event>
<event>
 7    1  0.5417298E-010  0.4778726E+02  0.7816164E-02  0.1312668E+00
        -11   -1    0    0    0    0  0.00000000000E+00  0.00000000000E+00  0.45593999997E+02  0.45594000000E+02  0.51100000000E-03 0.  1.
         11   -1    0    0    0    0 -0.00000000000E+00 -0.00000000000E+00 -0.45593999997E+02  0.45594000000E+02  0.51100000000E-03 0. -1.
    9900012    2    1    2    0    0  0.26887546245E+02  0.29925188754E+02  0.16283951950E+02  0.47787260880E+02  0.19999953656E+02 0.  0.
         12    1    1    2    0    0 -0.26887546245E+02 -0.29925188754E+02 -0.16283951950E+02  0.43400739120E+02  0.00000000000E+00 0. -1.
         11    1    3    3    0    0  0.12228785009E+02  0.10265258946E+02  0.20980366177E+01  0.16103430750E+02  0.51100000000E-03 0. -1.
        -11    1    3    3    0    0 -0.92612319472E+00  0.27794036299E+01 -0.20286902734E+01  0.35634776829E+01  0.51100000000E-03 0.  1.
        -12    1    3    3    0    0  0.15584884431E+02  0.16880526179E+02  0.16214605606E+02  0.28120352447E+02  0.00000000000E+00 0.  1.
</event>
<event>
 7    1  0.5417298E-010  0.4778727E+02  0.7816164E-02  0.1312668E+00
        -11   -1    0    0    0    0  0.00000000000E+00  0.00000000000E+00  0.45593999997E+02  0.45594000000E+02  0.51100000000E-03 0. -1.
         11   -1    0    0    0    0 -0.00000000000E+00 -0.00000000000E+00 -0.45593999997E+02  0.45594000000E+02  0.51100000000E-03 0.  1.
    9900012    2    1    2    0    0 -0.19474243974E+02 -0.38008862887E+02  0.77267998891E+01  0.47787271056E+02  0.20000000052E+02 0.  0.
         12    1    1    2    0    0  0.19474243974E+02  0.38008862887E+02 -0.77267998891E+01  0.43400728944E+02  0.00000000000E+00 0. -1.
         11    1    3    3    0    0 -0.31690040076E+01 -0.16344832708E+02 -0.99447371740E+00  0.16678882483E+02  0.51100000000E-03 0. -1.
        -11    1    3    3    0    0  0.60456164785E-01 -0.93947070863E+01  0.31526117763E+01  0.99097496164E+01  0.51100000000E-03 0.  1.
        -12    1    3    3    0    0 -0.16365696131E+02 -0.12269323093E+02  0.55686618302E+01  0.21198638956E+02  0.00000000000E+00 0.  1.
</event>
<event>
 7    1  0.5417298E-010  0.4778727E+02  0.7816164E-02  0.1312668E+00
        -11   -1    0    0    0    0  0.00000000000E+00  0.00000000000E+00  0.45593999997E+02  0.45594000000E+02  0.51100000000E-03 0.  1.
         11   -1    0    0    0    0 -0.00000000000E+00 -0.00000000000E+00 -0.45593999997E+02  0.45594000000E+02  0.51100000000E-03 0. -1.
    9900012    2    1    2    0    0  0.40899844705E+02  0.14496597040E+02 -0.82128509856E+00  0.47787272680E+02  0.20000007459E+02 0.  0.
         12    1    1    2    0    0 -0.40899844705E+02 -0.14496597040E+02  0.82128509856E+00  0.43400727320E+02  0.00000000000E+00 0. -1.
         11    1    3    3    0    0  0.16615897510E+02  0.57618236941E+00  0.17892405862E+01  0.16721884413E+02  0.51100000000E-03 0. -1.
        -11    1    3    3    0    0  0.12642777687E+02  0.12511127687E+01 -0.50821045319E+01  0.13683307259E+02  0.51100000000E-03 0.  1.
        -12    1    3    3    0    0  0.11641169508E+02  0.12669301901E+02  0.24715788472E+01  0.17382081009E+02  0.00000000000E+00 0.  1.
</event>
<event>
 7    1  0.5417298E-010  0.4778727E+02  0.7816164E-02  0.1312668E+00
        -11   -1    0    0    0    0  0.00000000000E+00  0.00000000000E+00  0.45593999997E+02  0.45594000000E+02  0.51100000000E-03 0.  1.
         11   -1    0    0    0    0 -0.00000000000E+00 -0.00000000000E+00 -0.45593999997E+02  0.45594000000E+02  0.51100000000E-03 0. -1.
    9900012    2    1    2    0    0 -0.16476449908E+02 -0.26222117819E+02  0.30406422247E+02  0.47787269841E+02  0.19999994513E+02 0.  0.
         12    1    1    2    0    0  0.16476449908E+02  0.26222117819E+02 -0.30406422247E+02  0.43400730159E+02  0.00000000000E+00 0. -1.
         11    1    3    3    0    0 -0.58022656172E+01 -0.97363715099E+01  0.21839361188E+02  0.24605302555E+02  0.51100000000E-03 0. -1.
        -11    1    3    3    0    0 -0.87147588312E+01 -0.98462950031E+01  0.94651486502E+01  0.16201406914E+02  0.51100000000E-03 0.  1.
         12    1    3    3    0    0 -0.19594254600E+01 -0.66394513058E+01 -0.89808759145E+00  0.69805603713E+01  0.00000000000E+00 0. -1.
</event>
<event>
 7    1  0.5417298E-010  0.4778726E+02  0.7816164E-02  0.1312668E+00
        -11   -1    0    0    0    0  0.00000000000E+00  0.00000000000E+00  0.45593999997E+02  0.45594000000E+02  0.51100000000E-03 0.  1.
         11   -1    0    0    0    0 -0.00000000000E+00 -0.00000000000E+00 -0.45593999997E+02  0.45594000000E+02  0.51100000000E-03 0. -1.
    9900012    2    1    2    0    0  0.21537816625E+02 -0.16277315036E+02  0.33982285005E+02  0.47787260099E+02  0.19999950097E+02 0.  0.
         12    1    1    2    0    0 -0.21537816625E+02  0.16277315036E+02 -0.33982285005E+02  0.43400739901E+02  0.00000000000E+00 0. -1.
         11    1    3    3    0    0  0.19354235255E+02 -0.41395555887E+01  0.15285625852E+02  0.25007452904E+02  0.51100000000E-03 0. -1.
        -11    1    3    3    0    0  0.58068520457E+00 -0.17881000336E+01  0.79829040789E+00  0.20424898710E+01  0.51100000000E-03 0.  1.
        -12    1    3    3    0    0  0.16028961657E+01 -0.10349659414E+02  0.17898368745E+02  0.20737317325E+02  0.00000000000E+00 0.  1.
</event>
<event>
 7    1  0.5417298E-010  0.4778727E+02  0.7816164E-02  0.1312668E+00
        -11   -1    0    0    0    0  0.00000000000E+00  0.00000000000E+00  0.45593999997E+02  0.45594000000E+02  0.51100000000E-03 0.  1.
         11   -1    0    0    0    0 -0.00000000000E+00 -0.00000000000E+00 -0.45593999997E+02  0.45594000000E+02  0.51100000000E-03 0. -1.
    9900012    2    1    2    0    0  0.17822083889E+02  0.25510952929E+02  0.30252072404E+02  0.47787270994E+02  0.19999999772E+02 0.  0.
         12    1    1    2    0    0 -0.17822083889E+02 -0.25510952929E+02 -0.30252072404E+02  0.43400729006E+02  0.00000000000E+00 0. -1.
         11    1    3    3    0    0  0.46251101469E+01  0.11773883033E+02  0.10183349945E+02  0.16239352878E+02  0.51100000000E-03 0. -1.
        -11    1    3    3    0    0  0.13310159501E+02  0.77413435392E+01  0.20380328612E+02  0.25543033108E+02  0.51100000000E-03 0.  1.
         12    1    3    3    0    0 -0.11318575910E+00  0.59957263572E+01 -0.31160615379E+00  0.60048850082E+01  0.00000000000E+00 0. -1.
</event>
<event>
 7    1  0.5417298E-010  0.4778727E+02  0.7816164E-02  0.1312668E+00
        -11   -1    0    0    0    0  0.00000000000E+00  0.00000000000E+00  0.45593999997E+02  0.45594000000E+02  0.51100000000E-03 0.  1.
         11   -1    0    0    0    0 -0.00000000000E+00 -0.00000000000E+00 -0.45593999997E+02  0.45594000000E+02  0.51100000000E-03 0. -1.
    9900012    2    1    2    0    0 -0.28672547195E+02  0.94461030887E+00  0.32567098591E+02  0.47787272334E+02  0.20000005880E+02 0.  0.
         12    1    1    2    0    0  0.28672547195E+02 -0.94461030887E+00 -0.32567098591E+02  0.43400727666E+02  0.00000000000E+00 0. -1.
         11    1    3    3    0    0 -0.17448173123E+02 -0.86166670640E+01  0.21437478826E+02  0.28952568026E+02  0.51100000000E-03 0. -1.
        -11    1    3    3    0    0 -0.16731939798E+01  0.16921729844E-01  0.94397623361E+00  0.19211860477E+01  0.51100000000E-03 0.  1.
        -12    1    3    3    0    0 -0.95511800924E+01  0.95443556431E+01  0.10185643531E+02  0.16913518260E+02  0.00000000000E+00 0.  1.
</event>
<event>
 7    1  0.5417298E-010  0.4778728E+02  0.7816164E-02  0.1312668E+00
        -11   -1    0    0    0    0  0.00000000000E+00  0.00000000000E+00  0.45593999997E+02  0.45594000000E+02  0.51100000000E-03 0.  1.
         11   -1    0    0    0    0 -0.00000000000E+00 -0.00000000000E+00 -0.45593999997E+02  0.45594000000E+02  0.51100000000E-03 0. -1.
    9900012    2    1    2    0    0 -0.16200326276E+02 -0.25837264369E+01  0.40180799316E+02  0.47787275957E+02  0.20000022400E+02 0.  0.
         12    1    1    2    0    0  0.16200326276E+02  0.25837264369E+01 -0.40180799316E+02  0.43400724043E+02  0.00000000000E+00 0. -1.
         11    1    3    3    0    0 -0.53373965515E+01  0.39775593571E+01  0.15708152013E+02  0.17060328846E+02  0.51100000000E-03 0. -1.
        -11    1    3    3    0    0 -0.36476856147E+01  0.41180310604E+01  0.54055971603E+01  0.77126046884E+01  0.51100000000E-03 0.  1.
         12    1    3    3    0    0 -0.72152441093E+01 -0.10679316854E+02  0.19067050143E+02  0.23014342423E+02  0.00000000000E+00 0. -1.
</event>
<event>
 7    1  0.5417298E-010  0.4778729E+02  0.7816164E-02  0.1312668E+00
        -11   -1    0    0    0    0  0.00000000000E+00  0.00000000000E+00  0.45593999997E+02  0.45594000000E+02  0.51100000000E-03 0. -1.
         11   -1    0    0    0    0 -0.00000000000E+00 -0.00000000000E+00 -0.45593999997E+02  0.45594000000E+02  0.51100000000E-03 0.  1.
    9900012    2    1    2    0    0  0.15124315492E+02  0.65691017739E+01 -0.40146281457E+02  0.47787286503E+02  0.20000070483E+02 0.  0.
         12    1    1    2    0    0 -0.15124315492E+02 -0.65691017739E+01  0.40146281457E+02  0.43400713497E+02  0.00000000000E+00 0. -1.
         11    1    3    3    0    0  0.87567113444E+01  0.10449723854E+01 -0.21731916895E+02  0.23453105829E+02  0.51100000000E-03 0. -1.
        -11    1    3    3    0    0  0.79793310338E+01  0.12243655802E+01 -0.17995440505E+02  0.19723201415E+02  0.51100000000E-03 0.  1.
         12    1    3    3    0    0 -0.16117268865E+01  0.42997638083E+01 -0.41892405706E+00  0.46109792593E+01  0.00000000000E+00 0. -1.
</event>
<event>
 7    1  0.5417298E-010  0.4778728E+02  0.7816164E-02  0.1312668E+00
        -11   -1    0    0    0    0  0.00000000000E+00  0.00000000000E+00  0.45593999997E+02  0.45594000000E+02  0.51100000000E-03 0.  1.
         11   -1    0    0    0    0 -0.00000000000E+00 -0.00000000000E+00 -0.45593999997E+02  0.45594000000E+02  0.51100000000E-03 0. -1.
    9900012    2    1    2    0    0 -0.10344669850E+02  0.29511419597E+02  0.30094624148E+02  0.47787280150E+02  0.20000041515E+02 0.  0.
         12    1    1    2    0    0  0.10344669850E+02 -0.29511419597E+02 -0.30094624148E+02  0.43400719850E+02  0.00000000000E+00 0. -1.
         11    1    3    3    0    0 -0.48330979126E+00  0.70772708342E+00  0.58167950855E+01  0.58795893825E+01  0.51100000000E-03 0. -1.
        -11    1    3    3    0    0 -0.99037144223E+01  0.20503384308E+02  0.24703133330E+02  0.33596385580E+02  0.51100000000E-03 0.  1.
         12    1    3    3    0    0  0.42354364012E-01  0.83003082056E+01 -0.42530426804E+00  0.83113051875E+01  0.00000000000E+00 0. -1.
</event>
<event>
 7    1  0.5417298E-010  0.4778728E+02  0.7816164E-02  0.1312668E+00
        -11   -1    0    0    0    0  0.00000000000E+00  0.00000000000E+00  0.45593999997E+02  0.45594000000E+02  0.51100000000E-03 0. -1.
         11   -1    0    0    0    0 -0.00000000000E+00 -0.00000000000E+00 -0.45593999997E+02  0.45594000000E+02  0.51100000000E-03 0.  1.
    9900012    2    1    2    0    0  0.28012363474E+02 -0.78920826497E+01 -0.32196978260E+02  0.47787275524E+02  0.20000020424E+02 0.  0.
         12    1    1    2    0    0 -0.28012363474E+02  0.78920826497E+01  0.32196978260E+02  0.43400724476E+02  0.00000000000E+00 0. -1.
         11    1    3    3    0    0  0.13286475867E+02  0.40578908585E+00 -0.11890007976E+02  0.17834444081E+02  0.51100000000E-03 0. -1.
        -11    1    3    3    0    0  0.57126950401E+01  0.16003311011E+00 -0.15791286634E+02  0.16793606790E+02  0.51100000000E-03 0.  1.
        -12    1    3    3    0    0  0.90131925667E+01 -0.84579048457E+01 -0.45156836509E+01  0.13159224653E+02  0.00000000000E+00 0.  1.
</event>
<event>
 7    1  0.5417298E-010  0.4778727E+02  0.7816164E-02  0.1312668E+00
        -11   -1    0    0    0    0  0.00000000000E+00  0.00000000000E+00  0.45593999997E+02  0.45594000000E+02  0.51100000000E-03 0. -1.
         11   -1    0    0    0    0 -0.00000000000E+00 -0.00000000000E+00 -0.45593999997E+02  0.45594000000E+02  0.51100000000E-03 0.  1.
    9900012    2    1    2    0    0 -0.30646107773E+02  0.19684716817E+02 -0.23599820263E+02  0.47787268275E+02  0.19999987375E+02 0.  0.
         12    1    1    2    0    0  0.30646107773E+02 -0.19684716817E+02  0.23599820263E+02  0.43400731725E+02  0.00000000000E+00 0. -1.
         11    1    3    3    0    0 -0.14547230650E+02  0.13672097379E+02 -0.10339177354E+02  0.22482143024E+02  0.51100000000E-03 0. -1.
        -11    1    3    3    0    0 -0.15387426207E+02  0.90659566811E+01 -0.13131095958E+02  0.22167321379E+02  0.51100000000E-03 0.  1.
         12    1    3    3    0    0 -0.71145091631E+00 -0.30533372437E+01 -0.12954695134E+00  0.31378038725E+01  0.00000000000E+00 0. -1.
</event>
<event>
 7    1  0.5417298E-010  0.4778727E+02  0.7816164E-02  0.1312668E+00
        -11   -1    0    0    0    0  0.00000000000E+00  0.00000000000E+00  0.45593999997E+02  0.45594000000E+02  0.51100000000E-03 0. -1.
         11   -1    0    0    0    0 -0.00000000000E+00 -0.00000000000E+00 -0.45593999997E+02  0.45594000000E+02  0.51100000000E-03 0.  1.
    9900012    2    1    2    0    0 -0.49074289234E+01 -0.34720287948E+02  0.25574249483E+02  0.47787268549E+02  0.19999988624E+02 0.  0.
         12    1    1    2    0    0  0.49074289234E+01  0.34720287948E+02 -0.25574249483E+02  0.43400731451E+02  0.00000000000E+00 0. -1.
         11    1    3    3    0    0 -0.41223976091E+01 -0.67388039488E+01 -0.12953220527E+01  0.80052170607E+01  0.51100000000E-03 0. -1.
        -11    1    3    3    0    0  0.35806853568E+01 -0.15019751963E+02  0.11816172627E+02  0.19443152843E+02  0.51100000000E-03 0.  1.
        -12    1    3    3    0    0 -0.43657166711E+01 -0.12961732036E+02  0.15053398909E+02  0.20338898646E+02  0.00000000000E+00 0.  1.
</event>
<event>
 7    1  0.5417298E-010  0.4778727E+02  0.7816164E-02  0.1312668E+00
        -11   -1    0    0    0    0  0.00000000000E+00  0.00000000000E+00  0.45593999997E+02  0.45594000000E+02  0.51100000000E-03 0.  1.
         11   -1    0    0    0    0 -0.00000000000E+00 -0.00000000000E+00 -0.45593999997E+02  0.45594000000E+02  0.51100000000E-03 0. -1.
    9900012    2    1    2    0    0  0.12384855583E+02 -0.13081461729E+02  0.39485617951E+02  0.47787270584E+02  0.19999997903E+02 0.  0.
         12    1    1    2    0    0 -0.12384855583E+02  0.13081461729E+02 -0.39485617951E+02  0.43400729416E+02  0.00000000000E+00 0. -1.
         11    1    3    3    0    0  0.29942538963E+01 -0.93513030202E+01  0.67035730461E+01  0.11889083918E+02  0.51100000000E-03 0. -1.
        -11    1    3    3    0    0  0.30628904238E+01  0.43554643279E+00  0.10388133791E+01  0.32634539894E+01  0.51100000000E-03 0.  1.
        -12    1    3    3    0    0  0.63277112632E+01 -0.41657051420E+01  0.31743231526E+02  0.32634732677E+02  0.00000000000E+00 0.  1.
</event>
<event>
 7    1  0.5417298E-010  0.4778727E+02  0.7816164E-02  0.1312668E+00
        -11   -1    0    0    0    0  0.00000000000E+00  0.00000000000E+00  0.45593999997E+02  0.45594000000E+02  0.51100000000E-03 0.  1.
         11   -1    0    0    0    0 -0.00000000000E+00 -0.00000000000E+00 -0.45593999997E+02  0.45594000000E+02  0.51100000000E-03 0. -1.
    9900012    2    1    2    0    0 -0.30476779642E+02  0.20761597545E+02  0.22885485162E+02  0.47787268888E+02  0.19999990168E+02 0.  0.
         12    1    1    2    0    0  0.30476779642E+02 -0.20761597545E+02 -0.22885485162E+02  0.43400731112E+02  0.00000000000E+00 0. -1.
         11    1    3    3    0    0 -0.13851224272E+02  0.12372027919E+02  0.51290061057E+01  0.19267334858E+02  0.51100000000E-03 0. -1.
        -11    1    3    3    0    0 -0.11870795550E+02  0.72349957343E+01  0.48606710492E+01  0.14727086392E+02  0.51100000000E-03 0.  1.
         12    1    3    3    0    0 -0.47547598197E+01  0.11545738919E+01  0.12895808007E+02  0.13792847638E+02  0.00000000000E+00 0. -1.
</event>
<event>
 7    1  0.5417298E-010  0.4778727E+02  0.7816164E-02  0.1312668E+00
        -11   -1    0    0    0    0  0.00000000000E+00  0.00000000000E+00  0.45593999997E+02  0.45594000000E+02  0.51100000000E-03 0.  1.
         11   -1    0    0    0    0 -0.00000000000E+00 -0.00000000000E+00 -0.45593999997E+02  0.45594000000E+02  0.51100000000E-03 0. -1.
    9900012    2    1    2    0    0  0.11046253125E+02 -0.11882907772E+02  0.40254192332E+02  0.47787271832E+02  0.20000003589E+02 0.  0.
         12    1    1    2    0    0 -0.11046253125E+02  0.11882907772E+02 -0.40254192332E+02  0.43400728168E+02  0.00000000000E+00 0. -1.
         11    1    3    3    0    0  0.60399984490E+01  0.32255074411E+01  0.46645956900E+01  0.82851634099E+01  0.51100000000E-03 0. -1.
        -11    1    3    3    0    0  0.37542616464E+01 -0.40441896861E+01  0.77106319449E+01  0.94817612276E+01  0.51100000000E-03 0.  1.
        -12    1    3    3    0    0  0.12519930293E+01 -0.11064225527E+02  0.27878964697E+02  0.30020347194E+02  0.00000000000E+00 0.  1.
</event>
<event>
 7    1  0.5417298E-010  0.4778727E+02  0.7816164E-02  0.1312668E+00
        -11   -1    0    0    0    0  0.00000000000E+00  0.00000000000E+00  0.45593999997E+02  0.45594000000E+02  0.51100000000E-03 0.  1.
         11   -1    0    0    0    0 -0.00000000000E+00 -0.00000000000E+00 -0.45593999997E+02  0.45594000000E+02  0.51100000000E-03 0. -1.
    9900012    2    1    2    0    0  0.86634461229E+01 -0.35224537877E+02  0.23828557781E+02  0.47787268055E+02  0.19999986371E+02 0.  0.
         12    1    1    2    0    0 -0.86634461229E+01  0.35224537877E+02 -0.23828557781E+02  0.43400731945E+02  0.00000000000E+00 0. -1.
         11    1    3    3    0    0 -0.25405355472E+01 -0.11569503780E+02  0.91537360386E+01  0.14969923925E+02  0.51100000000E-03 0. -1.
        -11    1    3    3    0    0  0.12534909329E+00 -0.42323387965E+01  0.86953423828E+01  0.96714726644E+01  0.51100000000E-03 0.  1.
        -12    1    3    3    0    0  0.11078632577E+02 -0.19422695301E+02  0.59794793600E+01  0.23145871466E+02  0.00000000000E+00 0.  1.
</event>
<event>
 7    1  0.5417298E-010  0.4778727E+02  0.7816164E-02  0.1312668E+00
        -11   -1    0    0    0    0  0.00000000000E+00  0.00000000000E+00  0.45593999997E+02  0.45594000000E+02  0.51100000000E-03 0.  1.
         11   -1    0    0    0    0 -0.00000000000E+00 -0.00000000000E+00 -0.45593999997E+02  0.45594000000E+02  0.51100000000E-03 0. -1.
    9900012    2    1    2    0    0  0.38581880885E+01 -0.24650459261E+02  0.35511864485E+02  0.47787271016E+02  0.19999999872E+02 0.  0.
         12    1    1    2    0    0 -0.38581880885E+01  0.24650459261E+02 -0.35511864485E+02  0.43400728984E+02  0.00000000000E+00 0. -1.
         11    1    3    3    0    0  0.31981106808E+01 -0.31279453823E+01  0.44426615561E+01  0.63046963610E+01  0.51100000000E-03 0. -1.
        -11    1    3    3    0    0  0.45315955544E+01 -0.18503800655E+02  0.31217220092E+02  0.36571038097E+02  0.51100000000E-03 0.  1.
         12    1    3    3    0    0 -0.38715181466E+01 -0.30187132234E+01 -0.14801716315E+00  0.49115365585E+01  0.00000000000E+00 0. -1.
</event>
<event>
 7    1  0.5417298E-010  0.4778728E+02  0.7816164E-02  0.1312668E+00
        -11   -1    0    0    0    0  0.00000000000E+00  0.00000000000E+00  0.45593999997E+02  0.45594000000E+02  0.51100000000E-03 0.  1.
         11   -1    0    0    0    0 -0.00000000000E+00 -0.00000000000E+00 -0.45593999997E+02  0.45594000000E+02  0.51100000000E-03 0. -1.
    9900012    2    1    2    0    0  0.28963487067E+02 -0.32268865881E+02 -0.18599457056E+01  0.47787277813E+02  0.20000030860E+02 0.  0.
         12    1    1    2    0    0 -0.28963487067E+02  0.32268865881E+02  0.18599457056E+01  0.43400722187E+02  0.00000000000E+00 0. -1.
         11    1    3    3    0    0  0.16239145661E+01 -0.26427216325E+01 -0.14121842561E+01  0.34081286330E+01  0.51100000000E-03 0. -1.
        -11    1    3    3    0    0  0.23790660358E+02 -0.18313753223E+02  0.63858165942E+01  0.30694750874E+02  0.51100000000E-03 0.  1.
        -12    1    3    3    0    0  0.35489121434E+01 -0.11312391026E+02 -0.68335780436E+01  0.13684398306E+02  0.00000000000E+00 0.  1.
</event>
<event>
 7    1  0.5417298E-010  0.4778727E+02  0.7816164E-02  0.1312668E+00
        -11   -1    0    0    0    0  0.00000000000E+00  0.00000000000E+00  0.45593999997E+02  0.45594000000E+02  0.51100000000E-03 0. -1.
         11   -1    0    0    0    0 -0.00000000000E+00 -0.00000000000E+00 -0.45593999997E+02  0.45594000000E+02  0.51100000000E-03 0.  1.
    9900012    2    1    2    0    0 -0.38630073894E+02 -0.19677243669E+02 -0.20364419944E+01  0.47787267017E+02  0.19999981638E+02 0.  0.
         12    1    1    2    0    0  0.38630073894E+02  0.19677243669E+02  0.20364419944E+01  0.43400732983E+02  0.00000000000E+00 0. -1.
         11    1    3    3    0    0 -0.17473405543E+01 -0.11238226422E+01 -0.53814761041E+00  0.21461079786E+01  0.51100000000E-03 0. -1.
        -11    1    3    3    0    0 -0.33263563295E+02 -0.22564285078E+02 -0.88840195023E+00  0.40204488088E+02  0.51100000000E-03 0.  1.
         12    1    3    3    0    0 -0.36191700445E+01  0.40108640505E+01 -0.60989243377E+00  0.54366709505E+01  0.00000000000E+00 0. -1.
</event>
<event>
 7    1  0.5417298E-010  0.4778724E+02  0.7816164E-02  0.1312668E+00
        -11   -1    0    0    0    0  0.00000000000E+00  0.00000000000E+00  0.45593999997E+02  0.45594000000E+02  0.51100000000E-03 0.  1.
         11   -1    0    0    0    0 -0.00000000000E+00 -0.00000000000E+00 -0.45593999997E+02  0.45594000000E+02  0.51100000000E-03 0. -1.
    9900012    2    1    2    0    0 -0.19083428376E+02  0.38976099860E+02 -0.55860373482E+00  0.47787243820E+02  0.19999875871E+02 0.  0.
         12    1    1    2    0    0  0.19083428376E+02 -0.38976099860E+02  0.55860373482E+00  0.43400756180E+02  0.00000000000E+00 0. -1.
         11    1    3    3    0    0 -0.26179584113E+01  0.16050505755E+02 -0.45376243101E+01  0.16883793290E+02  0.51100000000E-03 0. -1.
        -11    1    3    3    0    0 -0.95029642993E+01  0.19364566454E+02 -0.10660854699E+01  0.21596974392E+02  0.51100000000E-03 0.  1.
         12    1    3    3    0    0 -0.69625056658E+01  0.35610276514E+01  0.50451060452E+01  0.93064761370E+01  0.00000000000E+00 0. -1.
</event>
<event>
 7    1  0.5417298E-010  0.4778729E+02  0.7816164E-02  0.1312668E+00
        -11   -1    0    0    0    0  0.00000000000E+00  0.00000000000E+00  0.45593999997E+02  0.45594000000E+02  0.51100000000E-03 0.  1.
         11   -1    0    0    0    0 -0.00000000000E+00 -0.00000000000E+00 -0.45593999997E+02  0.45594000000E+02  0.51100000000E-03 0. -1.
    9900012    2    1    2    0    0  0.25752642992E+02  0.48044933656E+00  0.34931249842E+02  0.47787289543E+02  0.20000084344E+02 0.  0.
         12    1    1    2    0    0 -0.25752642992E+02 -0.48044933656E+00 -0.34931249842E+02  0.43400710457E+02  0.00000000000E+00 0. -1.
         11    1    3    3    0    0  0.86893827256E+01 -0.80867246880E+00  0.70279459887E+01  0.11204969808E+02  0.51100000000E-03 0. -1.
        -11    1    3    3    0    0  0.28383716851E+01  0.74324325794E+01  0.72579800783E+01  0.10769200664E+02  0.51100000000E-03 0.  1.
        -12    1    3    3    0    0  0.14224888582E+02 -0.61433107740E+01  0.20645323775E+02  0.25813119071E+02  0.00000000000E+00 0.  1.
</event>
<event>
 7    1  0.5417298E-010  0.4778727E+02  0.7816164E-02  0.1312668E+00
        -11   -1    0    0    0    0  0.00000000000E+00  0.00000000000E+00  0.45593999997E+02  0.45594000000E+02  0.51100000000E-03 0.  1.
         11   -1    0    0    0    0 -0.00000000000E+00 -0.00000000000E+00 -0.45593999997E+02  0.45594000000E+02  0.51100000000E-03 0. -1.
    9900012    2    1    2    0    0  0.64783278359E+01 -0.42179081407E+02  0.79107363667E+01  0.47787269709E+02  0.19999993913E+02 0.  0.
         12    1    1    2    0    0 -0.64783278359E+01  0.42179081407E+02 -0.79107363667E+01  0.43400730291E+02  0.00000000000E+00 0. -1.
         11    1    3    3    0    0  0.50220918009E+01 -0.27605130644E+02  0.65848185498E+01  0.28820556544E+02  0.51100000000E-03 0. -1.
        -11    1    3    3    0    0  0.60565409475E+00 -0.48639170687E+01  0.63333554152E+01  0.80084890716E+01  0.51100000000E-03 0.  1.
         12    1    3    3    0    0  0.85058194023E+00 -0.97100336945E+01 -0.50074375982E+01  0.10958224094E+02  0.00000000000E+00 0. -1.
</event>
<event>
 7    1  0.5417298E-010  0.4778727E+02  0.7816164E-02  0.1312668E+00
        -11   -1    0    0    0    0  0.00000000000E+00  0.00000000000E+00  0.45593999997E+02  0.45594000000E+02  0.51100000000E-03 0.  1.
         11   -1    0    0    0    0 -0.00000000000E+00 -0.00000000000E+00 -0.45593999997E+02  0.45594000000E+02  0.51100000000E-03 0. -1.
    9900012    2    1    2    0    0 -0.33582985879E+02  0.33866990968E+01  0.27282530982E+02  0.47787272263E+02  0.20000005556E+02 0.  0.
         12    1    1    2    0    0  0.33582985879E+02 -0.33866990968E+01 -0.27282530982E+02  0.43400727737E+02  0.00000000000E+00 0. -1.
         11    1    3    3    0    0 -0.19357068753E+01  0.58456139282E+01  0.70374366511E+01  0.93511324546E+01  0.51100000000E-03 0. -1.
        -11    1    3    3    0    0 -0.63833271792E+01 -0.36322396778E+01  0.53287539289E+01  0.90738993629E+01  0.51100000000E-03 0.  1.
        -12    1    3    3    0    0 -0.25263951824E+02  0.11733248463E+01  0.14916340403E+02  0.29362240445E+02  0.00000000000E+00 0.  1.
</event>
<event>
 7    1  0.5417298E-010  0.4778727E+02  0.7816164E-02  0.1312668E+00
        -11   -1    0    0    0    0  0.00000000000E+00  0.00000000000E+00  0.45593999997E+02  0.45594000000E+02  0.51100000000E-03 0.  1.
         11   -1    0    0    0    0 -0.00000000000E+00 -0.00000000000E+00 -0.45593999997E+02  0.45594000000E+02  0.51100000000E-03 0. -1.
    9900012    2    1    2    0    0  0.21586212377E+02 -0.35802495321E+02  0.11655036990E+02  0.47787272780E+02  0.20000007914E+02 0.  0.
         12    1    1    2    0    0 -0.21586212377E+02  0.35802495321E+02 -0.11655036990E+02  0.43400727220E+02  0.00000000000E+00 0. -1.
         11    1    3    3    0    0  0.79878621176E+01 -0.42287420357E+01  0.44893170799E+01  0.10091688091E+02  0.51100000000E-03 0. -1.
        -11    1    3    3    0    0  0.81782216136E+01 -0.46021616518E+01  0.31177670291E+01  0.98885626933E+01  0.51100000000E-03 0.  1.
         12    1    3    3    0    0  0.54201286457E+01 -0.26971591633E+02  0.40479528808E+01  0.27807021996E+02  0.00000000000E+00 0. -1.
</event>
<event>
 7    1  0.5417298E-010  0.4778727E+02  0.7816164E-02  0.1312668E+00
        -11   -1    0    0    0    0  0.00000000000E+00  0.00000000000E+00  0.45593999997E+02  0.45594000000E+02  0.51100000000E-03 0.  1.
         11   -1    0    0    0    0 -0.00000000000E+00 -0.00000000000E+00 -0.45593999997E+02  0.45594000000E+02  0.51100000000E-03 0. -1.
    9900012    2    1    2    0    0  0.27178461706E+02 -0.13590686820E+02  0.30987865991E+02  0.47787269734E+02  0.19999994025E+02 0.  0.
         12    1    1    2    0    0 -0.27178461706E+02  0.13590686820E+02 -0.30987865991E+02  0.43400730266E+02  0.00000000000E+00 0. -1.
         11    1    3    3    0    0  0.89191531710E+00  0.50972770129E+00  0.66900964892E+01  0.67685099216E+01  0.51100000000E-03 0. -1.
        -11    1    3    3    0    0  0.18644977999E+02 -0.76456766180E+01  0.23539664195E+02  0.30987212946E+02  0.51100000000E-03 0.  1.
         12    1    3    3    0    0  0.76415683908E+01 -0.64547379030E+01  0.75810530679E+00  0.10031546866E+02  0.00000000000E+00 0. -1.
</event>
<event>
 7    1  0.5417298E-010  0.4778727E+02  0.7816164E-02  0.1312668E+00
        -11   -1    0    0    0    0  0.00000000000E+00  0.00000000000E+00  0.45593999997E+02  0.45594000000E+02  0.51100000000E-03 0. -1.
         11   -1    0    0    0    0 -0.00000000000E+00 -0.00000000000E+00 -0.45593999997E+02  0.45594000000E+02  0.51100000000E-03 0.  1.
    9900012    2    1    2    0    0  0.30942959869E+02 -0.14081923091E+02 -0.26978806818E+02  0.47787270275E+02  0.19999996491E+02 0.  0.
         12    1    1    2    0    0 -0.30942959869E+02  0.14081923091E+02  0.26978806818E+02  0.43400729725E+02  0.00000000000E+00 0. -1.
         11    1    3    3    0    0  0.11113613668E+02 -0.45815045620E+01 -0.67325092634E+01  0.13777854480E+02  0.51100000000E-03 0. -1.
        -11    1    3    3    0    0  0.22382159112E+02 -0.10261969637E+02 -0.17699833130E+02  0.30324134949E+02  0.51100000000E-03 0.  1.
         12    1    3    3    0    0 -0.25528129109E+01  0.76155110855E+00 -0.25464644243E+01  0.36852808459E+01  0.00000000000E+00 0. -1.
</event>
<event>
 7    1  0.5417298E-010  0.4778727E+02  0.7816164E-02  0.1312668E+00
        -11   -1    0    0    0    0  0.00000000000E+00  0.00000000000E+00  0.45593999997E+02  0.45594000000E+02  0.51100000000E-03 0.  1.
         11   -1    0    0    0    0 -0.00000000000E+00 -0.00000000000E+00 -0.45593999997E+02  0.45594000000E+02  0.51100000000E-03 0. -1.
    9900012    2    1    2    0    0  0.21194144108E+02 -0.34364947840E+02  0.15921131027E+02  0.47787265010E+02  0.19999972487E+02 0.  0.
         12    1    1    2    0    0 -0.21194144108E+02  0.34364947840E+02 -0.15921131027E+02  0.43400734990E+02  0.00000000000E+00 0. -1.
         11    1    3    3    0    0 -0.44992345154E+00 -0.15391720341E+00  0.13626521436E+01  0.14432403623E+01  0.51100000000E-03 0. -1.
        -11    1    3    3    0    0  0.47563423583E+01 -0.16601761448E+02  0.13504488102E+02  0.21922875609E+02  0.51100000000E-03 0.  1.
         12    1    3    3    0    0  0.16887725201E+02 -0.17609269188E+02  0.10539907814E+01  0.24421149039E+02  0.00000000000E+00 0. -1.
</event>
<event>
 7    1  0.5417298E-010  0.4778725E+02  0.7816164E-02  0.1312668E+00
        -11   -1    0    0    0    0  0.00000000000E+00  0.00000000000E+00  0.45593999997E+02  0.45594000000E+02  0.51100000000E-03 0.  1.
         11   -1    0    0    0    0 -0.00000000000E+00 -0.00000000000E+00 -0.45593999997E+02  0.45594000000E+02  0.51100000000E-03 0. -1.
    9900012    2    1    2    0    0 -0.54514921001E+01  0.82294544469E+01  0.42263247282E+02  0.47787253953E+02  0.19999922071E+02 0.  0.
         12    1    1    2    0    0  0.54514921001E+01 -0.82294544469E+01 -0.42263247282E+02  0.43400746047E+02  0.00000000000E+00 0. -1.
         11    1    3    3    0    0 -0.55974258556E+01  0.16818441980E+01  0.35541391949E+01  0.68404445611E+01  0.51100000000E-03 0. -1.
        -11    1    3    3    0    0 -0.38618654945E+01  0.67662666820E+01  0.15022385956E+02  0.16922424471E+02  0.51100000000E-03 0.  1.
         12    1    3    3    0    0  0.40077992500E+01 -0.21865643310E+00  0.23686722132E+02  0.24024384920E+02  0.00000000000E+00 0. -1.
</event>
<event>
 7    1  0.5417298E-010  0.4778728E+02  0.7816164E-02  0.1312668E+00
        -11   -1    0    0    0    0  0.00000000000E+00  0.00000000000E+00  0.45593999997E+02  0.45594000000E+02  0.51100000000E-03 0.  1.
         11   -1    0    0    0    0 -0.00000000000E+00 -0.00000000000E+00 -0.45593999997E+02  0.45594000000E+02  0.51100000000E-03 0. -1.
    9900012    2    1    2    0    0 -0.42665571036E+02 -0.50708534102E+01  0.61284864912E+01  0.47787275895E+02  0.20000022116E+02 0.  0.
         12    1    1    2    0    0  0.42665571036E+02  0.50708534102E+01 -0.61284864912E+01  0.43400724105E+02  0.00000000000E+00 0. -1.
         11    1    3    3    0    0 -0.27698851961E+01 -0.59668435978E+00 -0.41318166447E+01  0.50100105061E+01  0.51100000000E-03 0. -1.
        -11    1    3    3    0    0 -0.16720846109E+01 -0.15622092059E+01 -0.14319810133E+01  0.26994322426E+01  0.51100000000E-03 0.  1.
        -12    1    3    3    0    0 -0.38223601229E+02 -0.29119598446E+01  0.11692284149E+02  0.40077833146E+02  0.00000000000E+00 0.  1.
</event>
<event>
 7    1  0.5417298E-010  0.4778727E+02  0.7816164E-02  0.1312668E+00
        -11   -1    0    0    0    0  0.00000000000E+00  0.00000000000E+00  0.45593999997E+02  0.45594000000E+02  0.51100000000E-03 0. -1.
         11   -1    0    0    0    0 -0.00000000000E+00 -0.00000000000E+00 -0.45593999997E+02  0.45594000000E+02  0.51100000000E-03 0.  1.
    9900012    2    1    2    0    0  0.29599860970E+02  0.25725076839E+02 -0.18592802740E+02  0.47787266579E+02  0.19999979638E+02 0.  0.
         12    1    1    2    0    0 -0.29599860970E+02 -0.25725076839E+02  0.18592802740E+02  0.43400733421E+02  0.00000000000E+00 0. -1.
         11    1    3    3    0    0  0.15779915421E+01  0.92539181345E-02 -0.46336278004E+01  0.48949616746E+01  0.51100000000E-03 0. -1.
        -11    1    3    3    0    0  0.98949655225E+01  0.10377103041E+02 -0.12632454273E+02  0.19109513637E+02  0.51100000000E-03 0.  1.
        -12    1    3    3    0    0  0.18126903905E+02  0.15338719880E+02 -0.13267206669E+01  0.23782791267E+02  0.00000000000E+00 0.  1.
</event>
<event>
 7    1  0.5417298E-010  0.4778727E+02  0.7816164E-02  0.1312668E+00
        -11   -1    0    0    0    0  0.00000000000E+00  0.00000000000E+00  0.45593999997E+02  0.45594000000E+02  0.51100000000E-03 0.  1.
         11   -1    0    0    0    0 -0.00000000000E+00 -0.00000000000E+00 -0.45593999997E+02  0.45594000000E+02  0.51100000000E-03 0. -1.
    9900012    2    1    2    0    0 -0.33202918179E+02 -0.10344520418E+02  0.25964982494E+02  0.47787271963E+02  0.20000004186E+02 0.  0.
         12    1    1    2    0    0  0.33202918179E+02  0.10344520418E+02 -0.25964982494E+02  0.43400728037E+02  0.00000000000E+00 0. -1.
         11    1    3    3    0    0 -0.66295850837E+01 -0.95602823417E+01  0.14001719855E+02  0.18204355413E+02  0.51100000000E-03 0. -1.
        -11    1    3    3    0    0 -0.43019565600E+01 -0.16031588377E+01  0.33790057147E+01  0.57004059841E+01  0.51100000000E-03 0.  1.
        -12    1    3    3    0    0 -0.22271376535E+02  0.81892076109E+00  0.85842569240E+01  0.23882510566E+02  0.00000000000E+00 0.  1.
</event>
<event>
 7    1  0.5417298E-010  0.4778727E+02  0.7816164E-02  0.1312668E+00
        -11   -1    0    0    0    0  0.00000000000E+00  0.00000000000E+00  0.45593999997E+02  0.45594000000E+02  0.51100000000E-03 0. -1.
         11   -1    0    0    0    0 -0.00000000000E+00 -0.00000000000E+00 -0.45593999997E+02  0.45594000000E+02  0.51100000000E-03 0.  1.
    9900012    2    1    2    0    0 -0.37295999921E+02 -0.47413777501E+01 -0.21682964356E+02  0.47787271708E+02  0.20000003023E+02 0.  0.
         12    1    1    2    0    0  0.37295999921E+02  0.47413777501E+01  0.21682964356E+02  0.43400728292E+02  0.00000000000E+00 0. -1.
         11    1    3    3    0    0 -0.13676172813E+02  0.26891186486E+01 -0.88086103773E+01  0.16488198172E+02  0.51100000000E-03 0.  1.
        -11    1    3    3    0    0 -0.19464461680E+00  0.23078729622E+01  0.83619275099E+00  0.24623936961E+01  0.51100000000E-03 0. -1.
        -12    1    3    3    0    0 -0.23425182490E+02 -0.97383693609E+01 -0.13710546730E+02  0.28836679839E+02  0.00000000000E+00 0.  1.
</event>
<event>
 7    1  0.5417298E-010  0.4778727E+02  0.7816164E-02  0.1312668E+00
        -11   -1    0    0    0    0  0.00000000000E+00  0.00000000000E+00  0.45593999997E+02  0.45594000000E+02  0.51100000000E-03 0.  1.
         11   -1    0    0    0    0 -0.00000000000E+00 -0.00000000000E+00 -0.45593999997E+02  0.45594000000E+02  0.51100000000E-03 0. -1.
    9900012    2    1    2    0    0  0.16333078112E+02  0.39661818403E+02  0.66176789623E+01  0.47787274724E+02  0.20000016777E+02 0.  0.
         12    1    1    2    0    0 -0.16333078112E+02 -0.39661818403E+02 -0.66176789623E+01  0.43400725276E+02  0.00000000000E+00 0. -1.
         11    1    3    3    0    0  0.26797152371E+00  0.96418507532E+01 -0.38433801716E+01  0.10383095208E+02  0.51100000000E-03 0. -1.
        -11    1    3    3    0    0  0.52368443708E+00  0.11741395657E+02  0.51443451499E+01  0.12829610463E+02  0.51100000000E-03 0.  1.
        -12    1    3    3    0    0  0.15541422151E+02  0.18278571993E+02  0.53167139840E+01  0.24574569053E+02  0.00000000000E+00 0.  1.
</event>
<event>
 7    1  0.5417298E-010  0.4778727E+02  0.7816164E-02  0.1312668E+00
        -11   -1    0    0    0    0  0.00000000000E+00  0.00000000000E+00  0.45593999997E+02  0.45594000000E+02  0.51100000000E-03 0. -1.
         11   -1    0    0    0    0 -0.00000000000E+00 -0.00000000000E+00 -0.45593999997E+02  0.45594000000E+02  0.51100000000E-03 0.  1.
    9900012    2    1    2    0    0  0.10889927533E+02  0.25501504216E+02 -0.33387209510E+02  0.47787274225E+02  0.20000014503E+02 0.  0.
         12    1    1    2    0    0 -0.10889927533E+02 -0.25501504216E+02  0.33387209510E+02  0.43400725775E+02  0.00000000000E+00 0. -1.
         11    1    3    3    0    0 -0.13610551763E+01  0.29000787618E+01 -0.27584486824E+00  0.32154344450E+01  0.51100000000E-03 0. -1.
        -11    1    3    3    0    0 -0.15967014259E+01  0.91641514232E+00  0.79764971958E+00  0.20063692315E+01  0.51100000000E-03 0.  1.
        -12    1    3    3    0    0  0.13847684135E+02  0.21685010312E+02 -0.33909014361E+02  0.42565470549E+02  0.00000000000E+00 0.  1.
</event>
<event>
 7    1  0.5417298E-010  0.4778727E+02  0.7816164E-02  0.1312668E+00
        -11   -1    0    0    0    0  0.00000000000E+00  0.00000000000E+00  0.45593999997E+02  0.45594000000E+02  0.51100000000E-03 0.  1.
         11   -1    0    0    0    0 -0.00000000000E+00 -0.00000000000E+00 -0.45593999997E+02  0.45594000000E+02  0.51100000000E-03 0. -1.
    9900012    2    1    2    0    0  0.23077946067E+02  0.22642485012E+02  0.28954267939E+02  0.47787270121E+02  0.19999995788E+02 0.  0.
         12    1    1    2    0    0 -0.23077946067E+02 -0.22642485012E+02 -0.28954267939E+02  0.43400729879E+02  0.00000000000E+00 0. -1.
         11    1    3    3    0    0 -0.12327550787E+00  0.32884736156E+01 -0.10316279295E+01  0.34486971478E+01  0.51100000000E-03 0. -1.
        -11    1    3    3    0    0  0.12932469883E+02  0.13002595876E+02  0.97383224452E+01  0.20764180723E+02  0.51100000000E-03 0.  1.
         12    1    3    3    0    0  0.10268751692E+02  0.63514155207E+01  0.20247573423E+02  0.23574392250E+02  0.00000000000E+00 0. -1.
</event>
<event>
 7    1  0.5417298E-010  0.4778726E+02  0.7816164E-02  0.1312668E+00
        -11   -1    0    0    0    0  0.00000000000E+00  0.00000000000E+00  0.45593999997E+02  0.45594000000E+02  0.51100000000E-03 0.  1.
         11   -1    0    0    0    0 -0.00000000000E+00 -0.00000000000E+00 -0.45593999997E+02  0.45594000000E+02  0.51100000000E-03 0. -1.
    9900012    2    1    2    0    0 -0.33210642508E+02  0.10274458726E+02  0.25982929843E+02  0.47787263587E+02  0.19999966000E+02 0.  0.
         12    1    1    2    0    0  0.33210642508E+02 -0.10274458726E+02 -0.25982929843E+02  0.43400736413E+02  0.00000000000E+00 0. -1.
         11    1    3    3    0    0 -0.13445933064E+02 -0.38132414089E+01  0.14269590452E+02  0.19973861367E+02  0.51100000000E-03 0. -1.
        -11    1    3    3    0    0 -0.10330391768E+01  0.34299432686E+01  0.25380225689E+01  0.43901297917E+01  0.51100000000E-03 0.  1.
        -12    1    3    3    0    0 -0.18731670268E+02  0.10657756867E+02  0.91753168224E+01  0.23423272428E+02  0.00000000000E+00 0.  1.
</event>
<event>
 7    1  0.5417298E-010  0.4778727E+02  0.7816164E-02  0.1312668E+00
        -11   -1    0    0    0    0  0.00000000000E+00  0.00000000000E+00  0.45593999997E+02  0.45594000000E+02  0.51100000000E-03 0. -1.
         11   -1    0    0    0    0 -0.00000000000E+00 -0.00000000000E+00 -0.45593999997E+02  0.45594000000E+02  0.51100000000E-03 0.  1.
    9900012    2    1    2    0    0  0.29536766827E+02 -0.35581950541E+01 -0.31599714037E+02  0.47787271045E+02  0.20000000002E+02 0.  0.
         12    1    1    2    0    0 -0.29536766827E+02  0.35581950541E+01  0.31599714037E+02  0.43400728955E+02  0.00000000000E+00 0. -1.
         11    1    3    3    0    0  0.67568424224E+01 -0.27205470096E+01 -0.72707376131E+01  0.10291740438E+02  0.51100000000E-03 0. -1.
        -11    1    3    3    0    0  0.82007649303E+01 -0.83425150628E+01 -0.13409239651E+02  0.17794881604E+02  0.51100000000E-03 0.  1.
         12    1    3    3    0    0  0.14579159474E+02  0.75048670183E+01 -0.10919736772E+02  0.19700649002E+02  0.00000000000E+00 0. -1.
</event>
<event>
 7    1  0.5417298E-010  0.4778727E+02  0.7816164E-02  0.1312668E+00
        -11   -1    0    0    0    0  0.00000000000E+00  0.00000000000E+00  0.45593999997E+02  0.45594000000E+02  0.51100000000E-03 0.  1.
         11   -1    0    0    0    0 -0.00000000000E+00 -0.00000000000E+00 -0.45593999997E+02  0.45594000000E+02  0.51100000000E-03 0. -1.
    9900012    2    1    2    0    0  0.17271826581E+02  0.13716262057E+02  0.37378756527E+02  0.47787270999E+02  0.19999999793E+02 0.  0.
         12    1    1    2    0    0 -0.17271826581E+02 -0.13716262057E+02 -0.37378756527E+02  0.43400729001E+02  0.00000000000E+00 0. -1.
         11    1    3    3    0    0 -0.32485475636E+01  0.23243850264E+01  0.76422227683E+01  0.86231894404E+01  0.51100000000E-03 0. -1.
        -11    1    3    3    0    0  0.50400873777E+01 -0.15665434944E+01  0.55401658105E+01  0.76517956562E+01  0.51100000000E-03 0.  1.
        -12    1    3    3    0    0  0.15480286767E+02  0.12958420525E+02  0.24196367949E+02  0.31512285903E+02  0.00000000000E+00 0.  1.
</event>
<event>
 7    1  0.5417298E-010  0.4778727E+02  0.7816164E-02  0.1312668E+00
        -11   -1    0    0    0    0  0.00000000000E+00  0.00000000000E+00  0.45593999997E+02  0.45594000000E+02  0.51100000000E-03 0.  1.
         11   -1    0    0    0    0 -0.00000000000E+00 -0.00000000000E+00 -0.45593999997E+02  0.45594000000E+02  0.51100000000E-03 0. -1.
    9900012    2    1    2    0    0  0.12854068140E+02 -0.30077776844E+02  0.28525845696E+02  0.47787267284E+02  0.19999982854E+02 0.  0.
         12    1    1    2    0    0 -0.12854068140E+02  0.30077776844E+02 -0.28525845696E+02  0.43400732716E+02  0.00000000000E+00 0. -1.
         11    1    3    3    0    0  0.20961211089E+01 -0.58035589562E+01  0.57612128032E+01  0.84419543641E+01  0.51100000000E-03 0. -1.
        -11    1    3    3    0    0 -0.35244896752E+01 -0.12584391114E+02  0.13130757917E+02  0.18525812558E+02  0.51100000000E-03 0.  1.
         12    1    3    3    0    0  0.14282436707E+02 -0.11689826774E+02  0.96338749753E+01  0.20819500362E+02  0.00000000000E+00 0. -1.
</event>
<event>
 7    1  0.5417298E-010  0.4778727E+02  0.7816164E-02  0.1312668E+00
        -11   -1    0    0    0    0  0.00000000000E+00  0.00000000000E+00  0.45593999997E+02  0.45594000000E+02  0.51100000000E-03 0. -1.
         11   -1    0    0    0    0 -0.00000000000E+00 -0.00000000000E+00 -0.45593999997E+02  0.45594000000E+02  0.51100000000E-03 0.  1.
    9900012    2    1    2    0    0 -0.19599457488E+01 -0.19503270367E+02 -0.38722146611E+02  0.47787267512E+02  0.19999983893E+02 0.  0.
         12    1    1    2    0    0  0.19599457488E+01  0.19503270367E+02  0.38722146611E+02  0.43400732488E+02  0.00000000000E+00 0. -1.
         11    1    3    3    0    0 -0.65551343835E+01 -0.55658864535E+01 -0.13619304239E+02  0.16106965171E+02  0.51100000000E-03 0. -1.
        -11    1    3    3    0    0 -0.40762577071E+01 -0.34789482939E+01 -0.10146220348E+02  0.11474525948E+02  0.51100000000E-03 0.  1.
        -12    1    3    3    0    0  0.86714463417E+01 -0.10458435619E+02 -0.14956622024E+02  0.20205776393E+02  0.00000000000E+00 0.  1.
</event>
<event>
 7    1  0.5417298E-010  0.4778729E+02  0.7816164E-02  0.1312668E+00
        -11   -1    0    0    0    0  0.00000000000E+00  0.00000000000E+00  0.45593999997E+02  0.45594000000E+02  0.51100000000E-03 0. -1.
         11   -1    0    0    0    0 -0.00000000000E+00 -0.00000000000E+00 -0.45593999997E+02  0.45594000000E+02  0.51100000000E-03 0.  1.
    9900012    2    1    2    0    0 -0.20196299242E+02 -0.35710281883E+02 -0.14160038980E+02  0.47787292181E+02  0.20000096370E+02 0.  0.
         12    1    1    2    0    0  0.20196299242E+02  0.35710281883E+02  0.14160038980E+02  0.43400707819E+02  0.00000000000E+00 0. -1.
         11    1    3    3    0    0 -0.11533379882E+02 -0.17546450368E+02 -0.11032822477E+02  0.23719610960E+02  0.51100000000E-03 0. -1.
        -11    1    3    3    0    0 -0.34129835166E+01 -0.79502457584E+01 -0.78197774515E+01  0.11662066016E+02  0.51100000000E-03 0.  1.
         12    1    3    3    0    0 -0.52499358431E+01 -0.10213585757E+02  0.46925609481E+01  0.12405615205E+02  0.00000000000E+00 0. -1.
</event>
<event>
 7    1  0.5417298E-010  0.4778727E+02  0.7816164E-02  0.1312668E+00
        -11   -1    0    0    0    0  0.00000000000E+00  0.00000000000E+00  0.45593999997E+02  0.45594000000E+02  0.51100000000E-03 0. -1.
         11   -1    0    0    0    0 -0.00000000000E+00 -0.00000000000E+00 -0.45593999997E+02  0.45594000000E+02  0.51100000000E-03 0.  1.
    9900012    2    1    2    0    0 -0.19354923441E+02 -0.15496285053E+02 -0.35621275180E+02  0.47787272387E+02  0.20000006123E+02 0.  0.
         12    1    1    2    0    0  0.19354923441E+02  0.15496285053E+02  0.35621275180E+02  0.43400727613E+02  0.00000000000E+00 0. -1.
         11    1    3    3    0    0 -0.56225498640E+01 -0.19132045378E+01 -0.24118770468E+02  0.24839253364E+02  0.51100000000E-03 0.  1.
        -11    1    3    3    0    0 -0.13703780339E+01 -0.63519180063E+00  0.25331827332E+00  0.15315270119E+01  0.51100000000E-03 0. -1.
        -12    1    3    3    0    0 -0.12361995543E+02 -0.12947888715E+02 -0.11755822986E+02  0.21416492011E+02  0.00000000000E+00 0.  1.
</event>
<event>
 7    1  0.5417298E-010  0.4778728E+02  0.7816164E-02  0.1312668E+00
        -11   -1    0    0    0    0  0.00000000000E+00  0.00000000000E+00  0.45593999997E+02  0.45594000000E+02  0.51100000000E-03 0.  1.
         11   -1    0    0    0    0 -0.00000000000E+00 -0.00000000000E+00 -0.45593999997E+02  0.45594000000E+02  0.51100000000E-03 0. -1.
    9900012    2    1    2    0    0 -0.19290794380E+02  0.88812735972E+01  0.37849849219E+02  0.47787275877E+02  0.20000022032E+02 0.  0.
         12    1    1    2    0    0  0.19290794380E+02 -0.88812735972E+01 -0.37849849219E+02  0.43400724123E+02  0.00000000000E+00 0. -1.
         11    1    3    3    0    0 -0.31174555749E+01 -0.55772428597E+01  0.61851888588E+01  0.88927345995E+01  0.51100000000E-03 0. -1.
        -11    1    3    3    0    0 -0.12825465229E+01  0.10354780261E+01  0.65780349085E+01  0.67814219633E+01  0.51100000000E-03 0.  1.
        -12    1    3    3    0    0 -0.14890792282E+02  0.13423038431E+02  0.25086625452E+02  0.32113119314E+02  0.00000000000E+00 0.  1.
</event>
<event>
 7    1  0.5417298E-010  0.4778727E+02  0.7816164E-02  0.1312668E+00
        -11   -1    0    0    0    0  0.00000000000E+00  0.00000000000E+00  0.45593999997E+02  0.45594000000E+02  0.51100000000E-03 0.  1.
         11   -1    0    0    0    0 -0.00000000000E+00 -0.00000000000E+00 -0.45593999997E+02  0.45594000000E+02  0.51100000000E-03 0. -1.
    9900012    2    1    2    0    0 -0.18032192939E+01  0.41667714919E+02  0.12007217923E+02  0.47787270183E+02  0.19999996070E+02 0.  0.
         12    1    1    2    0    0  0.18032192939E+01 -0.41667714919E+02 -0.12007217923E+02  0.43400729817E+02  0.00000000000E+00 0. -1.
         11    1    3    3    0    0 -0.21353329138E+01 -0.91075570206E+00 -0.11444789674E+01  0.25882339480E+01  0.51100000000E-03 0. -1.
        -11    1    3    3    0    0  0.69933309322E+00  0.58078830893E+01 -0.72675703084E+00  0.58948069347E+01  0.51100000000E-03 0.  1.
        -12    1    3    3    0    0 -0.36721947328E+00  0.36770587532E+02  0.13878453922E+02  0.39304229300E+02  0.00000000000E+00 0.  1.
</event>
<event>
 7    1  0.5417298E-010  0.4778722E+02  0.7816164E-02  0.1312668E+00
        -11   -1    0    0    0    0  0.00000000000E+00  0.00000000000E+00  0.45593999997E+02  0.45594000000E+02  0.51100000000E-03 0.  1.
         11   -1    0    0    0    0 -0.00000000000E+00 -0.00000000000E+00 -0.45593999997E+02  0.45594000000E+02  0.51100000000E-03 0. -1.
    9900012    2    1    2    0    0 -0.13375441971E+02 -0.25820394199E+02  0.32218507471E+02  0.47787223184E+02  0.19999781784E+02 0.  0.
         12    1    1    2    0    0  0.13375441971E+02  0.25820394199E+02 -0.32218507471E+02  0.43400776816E+02  0.00000000000E+00 0. -1.
         11    1    3    3    0    0 -0.29206618059E+00 -0.42440386518E+01  0.52170288197E+01  0.67316087749E+01  0.51100000000E-03 0. -1.
        -11    1    3    3    0    0 -0.10556768106E+02 -0.15818937286E+02  0.28803022486E+02  0.34515188458E+02  0.51100000000E-03 0.  1.
         12    1    3    3    0    0 -0.25266076844E+01 -0.57574182616E+01 -0.18015438346E+01  0.65404259508E+01  0.00000000000E+00 0. -1.
</event>
<event>
 7    1  0.5417298E-010  0.4778727E+02  0.7816164E-02  0.1312668E+00
        -11   -1    0    0    0    0  0.00000000000E+00  0.00000000000E+00  0.45593999997E+02  0.45594000000E+02  0.51100000000E-03 0.  1.
         11   -1    0    0    0    0 -0.00000000000E+00 -0.00000000000E+00 -0.45593999997E+02  0.45594000000E+02  0.51100000000E-03 0. -1.
    9900012    2    1    2    0    0  0.43335170594E+02 -0.16121644904E+01 -0.17570902781E+01  0.47787269004E+02  0.19999990697E+02 0.  0.
         12    1    1    2    0    0 -0.43335170594E+02  0.16121644904E+01  0.17570902781E+01  0.43400730996E+02  0.00000000000E+00 0. -1.
         11    1    3    3    0    0  0.14232695849E+02 -0.16031207773E+01  0.40359001716E+01  0.14880460940E+02  0.51100000000E-03 0. -1.
        -11    1    3    3    0    0  0.19525595026E+02 -0.66284704092E+01 -0.22758429860E+01  0.20745239035E+02  0.51100000000E-03 0.  1.
         12    1    3    3    0    0  0.95768797197E+01  0.66194266961E+01 -0.35171474636E+01  0.12161569028E+02  0.00000000000E+00 0. -1.
</event>
<event>
 7    1  0.5417298E-010  0.4778727E+02  0.7816164E-02  0.1312668E+00
        -11   -1    0    0    0    0  0.00000000000E+00  0.00000000000E+00  0.45593999997E+02  0.45594000000E+02  0.51100000000E-03 0.  1.
         11   -1    0    0    0    0 -0.00000000000E+00 -0.00000000000E+00 -0.45593999997E+02  0.45594000000E+02  0.51100000000E-03 0. -1.
    9900012    2    1    2    0    0 -0.82805280247E+01  0.38521464471E+02  0.18197610609E+02  0.47787269577E+02  0.19999993309E+02 0.  0.
         12    1    1    2    0    0  0.82805280247E+01 -0.38521464471E+02 -0.18197610609E+02  0.43400730423E+02  0.00000000000E+00 0. -1.
         11    1    3    3    0    0 -0.25884777806E+01  0.15096433587E+01 -0.22906339997E+01  0.37717694353E+01  0.51100000000E-03 0. -1.
        -11    1    3    3    0    0 -0.77561506655E+01  0.16877229521E+02  0.79314640740E+01  0.20196704485E+02  0.51100000000E-03 0.  1.
         12    1    3    3    0    0  0.20641004214E+01  0.20134591592E+02  0.12556780535E+02  0.23818795657E+02  0.00000000000E+00 0. -1.
</event>
<event>
 7    1  0.5417298E-010  0.4778727E+02  0.7816164E-02  0.1312668E+00
        -11   -1    0    0    0    0  0.00000000000E+00  0.00000000000E+00  0.45593999997E+02  0.45594000000E+02  0.51100000000E-03 0.  1.
         11   -1    0    0    0    0 -0.00000000000E+00 -0.00000000000E+00 -0.45593999997E+02  0.45594000000E+02  0.51100000000E-03 0. -1.
    9900012    2    1    2    0    0  0.28785177604E+02  0.15276771777E+02  0.28664560108E+02  0.47787271760E+02  0.20000003261E+02 0.  0.
         12    1    1    2    0    0 -0.28785177604E+02 -0.15276771777E+02 -0.28664560108E+02  0.43400728240E+02  0.00000000000E+00 0. -1.
         11    1    3    3    0    0  0.11771838650E+02  0.51667667114E+01  0.86971079011E+01  0.15521319195E+02  0.51100000000E-03 0. -1.
        -11    1    3    3    0    0  0.15507838766E+02  0.10274205422E+02  0.22574062823E+02  0.29251336258E+02  0.51100000000E-03 0.  1.
         12    1    3    3    0    0  0.15055001868E+01 -0.16420035689E+00 -0.26066106162E+01  0.30146163063E+01  0.00000000000E+00 0. -1.
</event>
<event>
 7    1  0.5417298E-010  0.4778727E+02  0.7816164E-02  0.1312668E+00
        -11   -1    0    0    0    0  0.00000000000E+00  0.00000000000E+00  0.45593999997E+02  0.45594000000E+02  0.51100000000E-03 0. -1.
         11   -1    0    0    0    0 -0.00000000000E+00 -0.00000000000E+00 -0.45593999997E+02  0.45594000000E+02  0.51100000000E-03 0.  1.
    9900012    2    1    2    0    0  0.42196295837E+01  0.32165355889E+02 -0.28830670736E+02  0.47787274564E+02  0.20000016045E+02 0.  0.
         12    1    1    2    0    0 -0.42196295837E+01 -0.32165355889E+02  0.28830670736E+02  0.43400725436E+02  0.00000000000E+00 0. -1.
         11    1    3    3    0    0  0.32895182245E+01  0.15962901317E+01 -0.18099929792E+00  0.36608514503E+01  0.51100000000E-03 0. -1.
        -11    1    3    3    0    0  0.70203273557E+01  0.15141146129E+02 -0.17237507523E+02  0.23993144191E+02  0.51100000000E-03 0.  1.
         12    1    3    3    0    0 -0.60902159965E+01  0.15427919629E+02 -0.11412163915E+02  0.20133278923E+02  0.00000000000E+00 0. -1.
</event>
<event>
 7    1  0.5417298E-010  0.4778727E+02  0.7816164E-02  0.1312668E+00
        -11   -1    0    0    0    0  0.00000000000E+00  0.00000000000E+00  0.45593999997E+02  0.45594000000E+02  0.51100000000E-03 0. -1.
         11   -1    0    0    0    0 -0.00000000000E+00 -0.00000000000E+00 -0.45593999997E+02  0.45594000000E+02  0.51100000000E-03 0.  1.
    9900012    2    1    2    0    0  0.26641247384E+02  0.31941129379E+02 -0.12394819136E+02  0.47787270172E+02  0.19999996023E+02 0.  0.
         12    1    1    2    0    0 -0.26641247384E+02 -0.31941129379E+02  0.12394819136E+02  0.43400729828E+02  0.00000000000E+00 0. -1.
         11    1    3    3    0    0  0.11235936615E+02  0.86211649909E+01 -0.10984921930E+02  0.17923148928E+02  0.51100000000E-03 0. -1.
        -11    1    3    3    0    0  0.93090687939E+01  0.13468327664E+02 -0.59513762670E+01  0.17420490568E+02  0.51100000000E-03 0.  1.
        -12    1    3    3    0    0  0.60962419756E+01  0.98516367234E+01  0.45414790613E+01  0.12443630677E+02  0.00000000000E+00 0.  1.
</event>
<event>
 7    1  0.5417298E-010  0.4778727E+02  0.7816164E-02  0.1312668E+00
        -11   -1    0    0    0    0  0.00000000000E+00  0.00000000000E+00  0.45593999997E+02  0.45594000000E+02  0.51100000000E-03 0. -1.
         11   -1    0    0    0    0 -0.00000000000E+00 -0.00000000000E+00 -0.45593999997E+02  0.45594000000E+02  0.51100000000E-03 0.  1.
    9900012    2    1    2    0    0  0.26158018575E+02 -0.31155873923E+02 -0.15122607267E+02  0.47787266524E+02  0.19999979391E+02 0.  0.
         12    1    1    2    0    0 -0.26158018575E+02  0.31155873923E+02  0.15122607267E+02  0.43400733476E+02  0.00000000000E+00 0. -1.
         11    1    3    3    0    0  0.56887800468E+01 -0.11678473017E+02 -0.90099398301E+00  0.13021549095E+02  0.51100000000E-03 0. -1.
        -11    1    3    3    0    0  0.77923222407E+01 -0.13447633461E+02 -0.11507042777E+01  0.15584712130E+02  0.51100000000E-03 0.  1.
        -12    1    3    3    0    0  0.12676916288E+02 -0.60297674456E+01 -0.13070909006E+02  0.19181005298E+02  0.00000000000E+00 0.  1.
</event>
<event>
 7    1  0.5417298E-010  0.4778728E+02  0.7816164E-02  0.1312668E+00
        -11   -1    0    0    0    0  0.00000000000E+00  0.00000000000E+00  0.45593999997E+02  0.45594000000E+02  0.51100000000E-03 0. -1.
         11   -1    0    0    0    0 -0.00000000000E+00 -0.00000000000E+00 -0.45593999997E+02  0.45594000000E+02  0.51100000000E-03 0.  1.
    9900012    2    1    2    0    0  0.36024431365E+02  0.31433611697E+01 -0.23999636152E+02  0.47787275237E+02  0.20000019113E+02 0.  0.
         12    1    1    2    0    0 -0.36024431365E+02 -0.31433611697E+01  0.23999636152E+02  0.43400724763E+02  0.00000000000E+00 0. -1.
         11    1    3    3    0    0  0.73270321635E+01 -0.23756898584E+01 -0.72619129242E+01  0.10586060750E+02  0.51100000000E-03 0.  1.
        -11    1    3    3    0    0  0.23257383499E+02  0.94918832215E+01 -0.17207945137E+02  0.30448564997E+02  0.51100000000E-03 0. -1.
         12    1    3    3    0    0  0.54400157020E+01 -0.39728321934E+01  0.47022190931E+00  0.67526494888E+01  0.00000000000E+00 0. -1.
</event>
<event>
 7    1  0.5417298E-010  0.4778727E+02  0.7816164E-02  0.1312668E+00
        -11   -1    0    0    0    0  0.00000000000E+00  0.00000000000E+00  0.45593999997E+02  0.45594000000E+02  0.51100000000E-03 0.  1.
         11   -1    0    0    0    0 -0.00000000000E+00 -0.00000000000E+00 -0.45593999997E+02  0.45594000000E+02  0.51100000000E-03 0. -1.
    9900012    2    1    2    0    0 -0.13741872242E+01 -0.43118502541E+02  0.47465454896E+01  0.47787270213E+02  0.19999996211E+02 0.  0.
         12    1    1    2    0    0  0.13741872242E+01  0.43118502541E+02 -0.47465454896E+01  0.43400729787E+02  0.00000000000E+00 0. -1.
         11    1    3    3    0    0 -0.63481336093E+01 -0.22964989509E+02 -0.40461494452E+01  0.24167351305E+02  0.51100000000E-03 0. -1.
        -11    1    3    3    0    0 -0.16151607582E+01 -0.48915886376E+01  0.94595498644E+00  0.52374817204E+01  0.51100000000E-03 0.  1.
        -12    1    3    3    0    0  0.65891071432E+01 -0.15261924394E+02  0.78467399484E+01  0.18382437188E+02  0.00000000000E+00 0.  1.
</event>
<event>
 7    1  0.5417298E-010  0.4778728E+02  0.7816164E-02  0.1312668E+00
        -11   -1    0    0    0    0  0.00000000000E+00  0.00000000000E+00  0.45593999997E+02  0.45594000000E+02  0.51100000000E-03 0.  1.
         11   -1    0    0    0    0 -0.00000000000E+00 -0.00000000000E+00 -0.45593999997E+02  0.45594000000E+02  0.51100000000E-03 0. -1.
    9900012    2    1    2    0    0  0.32789661252E+02  0.27130159122E+02  0.85097302621E+01  0.47787275028E+02  0.20000018161E+02 0.  0.
         12    1    1    2    0    0 -0.32789661252E+02 -0.27130159122E+02 -0.85097302621E+01  0.43400724972E+02  0.00000000000E+00 0. -1.
         11    1    3    3    0    0  0.10081242920E+01  0.49691441930E+01  0.16882226527E+01  0.53440438419E+01  0.51100000000E-03 0. -1.
        -11    1    3    3    0    0  0.25174060180E+02  0.13753284241E+02  0.11324500313E+02  0.30840402737E+02  0.51100000000E-03 0.  1.
        -12    1    3    3    0    0  0.66074767798E+01  0.84077306885E+01 -0.45029927039E+01  0.11602828449E+02  0.00000000000E+00 0.  1.
</event>
<event>
 7    1  0.5417298E-010  0.4778727E+02  0.7816164E-02  0.1312668E+00
        -11   -1    0    0    0    0  0.00000000000E+00  0.00000000000E+00  0.45593999997E+02  0.45594000000E+02  0.51100000000E-03 0. -1.
         11   -1    0    0    0    0 -0.00000000000E+00 -0.00000000000E+00 -0.45593999997E+02  0.45594000000E+02  0.51100000000E-03 0.  1.
    9900012    2    1    2    0    0  0.24657185794E+02 -0.28201524537E+02 -0.21916217139E+02  0.47787269924E+02  0.19999994891E+02 0.  0.
         12    1    1    2    0    0 -0.24657185794E+02  0.28201524537E+02  0.21916217139E+02  0.43400730076E+02  0.00000000000E+00 0. -1.
         11    1    3    3    0    0  0.89394324561E+01 -0.11753380239E+01 -0.64865146937E+01  0.11107193401E+02  0.51100000000E-03 0. -1.
        -11    1    3    3    0    0  0.18782087402E+01 -0.14415695007E+02 -0.73123694173E+01  0.16273004559E+02  0.51100000000E-03 0.  1.
         12    1    3    3    0    0  0.13839544598E+02 -0.12610491505E+02 -0.81173330281E+01  0.20407071964E+02  0.00000000000E+00 0. -1.
</event>
<event>
 7    1  0.5417298E-010  0.4778727E+02  0.7816164E-02  0.1312668E+00
        -11   -1    0    0    0    0  0.00000000000E+00  0.00000000000E+00  0.45593999997E+02  0.45594000000E+02  0.51100000000E-03 0. -1.
         11   -1    0    0    0    0 -0.00000000000E+00 -0.00000000000E+00 -0.45593999997E+02  0.45594000000E+02  0.51100000000E-03 0.  1.
    9900012    2    1    2    0    0 -0.36241204974E+02 -0.10324339433E+02 -0.21531519501E+02  0.47787271265E+02  0.20000001007E+02 0.  0.
         12    1    1    2    0    0  0.36241204974E+02  0.10324339433E+02  0.21531519501E+02  0.43400728735E+02  0.00000000000E+00 0. -1.
         11    1    3    3    0    0 -0.22701174506E+02 -0.91854265486E+01 -0.21093870442E+02  0.32321304975E+02  0.51100000000E-03 0. -1.
        -11    1    3    3    0    0 -0.10465955676E+02 -0.34375936402E+00 -0.35133945484E+01  0.11045285883E+02  0.51100000000E-03 0.  1.
         12    1    3    3    0    0 -0.30740747920E+01 -0.79515351997E+00  0.30757454895E+01  0.44206804072E+01  0.00000000000E+00 0. -1.
</event>
<event>
 7    1  0.5417298E-010  0.4778727E+02  0.7816164E-02  0.1312668E+00
        -11   -1    0    0    0    0  0.00000000000E+00  0.00000000000E+00  0.45593999997E+02  0.45594000000E+02  0.51100000000E-03 0. -1.
         11   -1    0    0    0    0 -0.00000000000E+00 -0.00000000000E+00 -0.45593999997E+02  0.45594000000E+02  0.51100000000E-03 0.  1.
    9900012    2    1    2    0    0  0.13003200321E+02  0.39784823783E+02  0.11476392835E+02  0.47787274032E+02  0.20000013621E+02 0.  0.
         12    1    1    2    0    0 -0.13003200321E+02 -0.39784823783E+02 -0.11476392835E+02  0.43400725968E+02  0.00000000000E+00 0. -1.
         11    1    3    3    0    0  0.48925059817E+01  0.20040414828E+02  0.48973880486E+01  0.21202340702E+02  0.51100000000E-03 0. -1.
        -11    1    3    3    0    0 -0.26770107600E+01  0.11350155605E+02  0.54419546259E+01  0.12868849571E+02  0.51100000000E-03 0.  1.
        -12    1    3    3    0    0  0.10787705100E+02  0.83942533501E+01  0.11370501601E+01  0.13716083759E+02  0.00000000000E+00 0.  1.
</event>
<event>
 7    1  0.5417298E-010  0.4778730E+02  0.7816164E-02  0.1312668E+00
        -11   -1    0    0    0    0  0.00000000000E+00  0.00000000000E+00  0.45593999997E+02  0.45594000000E+02  0.51100000000E-03 0.  1.
         11   -1    0    0    0    0 -0.00000000000E+00 -0.00000000000E+00 -0.45593999997E+02  0.45594000000E+02  0.51100000000E-03 0. -1.
    9900012    2    1    2    0    0  0.34862085544E+02  0.23482510784E+02  0.10808673274E+02  0.47787300246E+02  0.20000133142E+02 0.  0.
         12    1    1    2    0    0 -0.34862085544E+02 -0.23482510784E+02 -0.10808673274E+02  0.43400699754E+02  0.00000000000E+00 0. -1.
         11    1    3    3    0    0  0.22646105982E+01  0.75122614481E-01  0.41989893148E+01  0.47713327379E+01  0.51100000000E-03 0. -1.
        -11    1    3    3    0    0  0.13301529755E+02  0.16286728152E+02  0.77638387440E+01  0.22415740006E+02  0.51100000000E-03 0.  1.
        -12    1    3    3    0    0  0.19295945190E+02  0.71206600179E+01 -0.11541547843E+01  0.20600227502E+02  0.00000000000E+00 0.  1.
</event>
<event>
 7    1  0.5417298E-010  0.4778727E+02  0.7816164E-02  0.1312668E+00
        -11   -1    0    0    0    0  0.00000000000E+00  0.00000000000E+00  0.45593999997E+02  0.45594000000E+02  0.51100000000E-03 0.  1.
         11   -1    0    0    0    0 -0.00000000000E+00 -0.00000000000E+00 -0.45593999997E+02  0.45594000000E+02  0.51100000000E-03 0. -1.
    9900012    2    1    2    0    0 -0.28839285945E+02 -0.26076144819E+02  0.19286099753E+02  0.47787269751E+02  0.19999994105E+02 0.  0.
         12    1    1    2    0    0  0.28839285945E+02  0.26076144819E+02 -0.19286099753E+02  0.43400730249E+02  0.00000000000E+00 0. -1.
         11    1    3    3    0    0 -0.66903334684E+01 -0.73719858693E+01  0.66020525156E+01  0.11945452493E+02  0.51100000000E-03 0.  1.
        -11    1    3    3    0    0 -0.30631333110E+01  0.25172196181E+01  0.48114132783E+01  0.62344910203E+01  0.51100000000E-03 0. -1.
        -12    1    3    3    0    0 -0.19085819165E+02 -0.21221378568E+02  0.78726339593E+01  0.29607326238E+02  0.00000000000E+00 0.  1.
</event>
<event>
 7    1  0.5417298E-010  0.4778727E+02  0.7816164E-02  0.1312668E+00
        -11   -1    0    0    0    0  0.00000000000E+00  0.00000000000E+00  0.45593999997E+02  0.45594000000E+02  0.51100000000E-03 0.  1.
         11   -1    0    0    0    0 -0.00000000000E+00 -0.00000000000E+00 -0.45593999997E+02  0.45594000000E+02  0.51100000000E-03 0. -1.
    9900012    2    1    2    0    0 -0.40325895745E+02  0.14444849875E+02  0.69850998853E+01  0.47787272172E+02  0.20000005141E+02 0.  0.
         12    1    1    2    0    0  0.40325895745E+02 -0.14444849875E+02 -0.69850998853E+01  0.43400727828E+02  0.00000000000E+00 0. -1.
         11    1    3    3    0    0 -0.15176992839E+02  0.28121987092E+01 -0.58051758159E+00  0.15446247898E+02  0.51100000000E-03 0. -1.
        -11    1    3    3    0    0 -0.22385230158E+02  0.33617453019E+01  0.65301261885E+01  0.23559338043E+02  0.51100000000E-03 0.  1.
        -12    1    3    3    0    0 -0.27636727483E+01  0.82709058641E+01  0.10354912785E+01  0.87816862310E+01  0.00000000000E+00 0.  1.
</event>
<event>
 7    1  0.5417298E-010  0.4778728E+02  0.7816164E-02  0.1312668E+00
        -11   -1    0    0    0    0  0.00000000000E+00  0.00000000000E+00  0.45593999997E+02  0.45594000000E+02  0.51100000000E-03 0. -1.
         11   -1    0    0    0    0 -0.00000000000E+00 -0.00000000000E+00 -0.45593999997E+02  0.45594000000E+02  0.51100000000E-03 0.  1.
    9900012    2    1    2    0    0  0.33860888207E+02 -0.20551662795E+02  0.17739566805E+02  0.47787276224E+02  0.20000023616E+02 0.  0.
         12    1    1    2    0    0 -0.33860888207E+02  0.20551662795E+02 -0.17739566805E+02  0.43400723776E+02  0.00000000000E+00 0. -1.
         11    1    3    3    0    0  0.73882382261E+01 -0.10564215495E+01  0.32224384565E+01  0.81293419440E+01  0.51100000000E-03 0. -1.
        -11    1    3    3    0    0  0.56021680550E+01 -0.15286306775E+01 -0.34706941892E+01  0.67651102785E+01  0.51100000000E-03 0.  1.
         12    1    3    3    0    0  0.20870481926E+02 -0.17966610568E+02  0.17987822538E+02  0.32892824002E+02  0.00000000000E+00 0. -1.
</event>
<event>
 7    1  0.5417298E-010  0.4778727E+02  0.7816164E-02  0.1312668E+00
        -11   -1    0    0    0    0  0.00000000000E+00  0.00000000000E+00  0.45593999997E+02  0.45594000000E+02  0.51100000000E-03 0. -1.
         11   -1    0    0    0    0 -0.00000000000E+00 -0.00000000000E+00 -0.45593999997E+02  0.45594000000E+02  0.51100000000E-03 0.  1.
    9900012    2    1    2    0    0 -0.32684487411E+02 -0.28359641999E+02 -0.33284182388E+01  0.47787269826E+02  0.19999994446E+02 0.  0.
         12    1    1    2    0    0  0.32684487411E+02  0.28359641999E+02  0.33284182388E+01  0.43400730174E+02  0.00000000000E+00 0. -1.
         11    1    3    3    0    0 -0.25020340848E+02 -0.19697173986E+02  0.38914009204E+00  0.31845683373E+02  0.51100000000E-03 0. -1.
        -11    1    3    3    0    0 -0.10100774426E+02 -0.68196875389E+01 -0.41093035044E+01  0.12861576796E+02  0.51100000000E-03 0.  1.
         12    1    3    3    0    0  0.24366278621E+01 -0.18427804733E+01  0.39174517352E+00  0.30800096578E+01  0.00000000000E+00 0. -1.
</event>
<event>
 7    1  0.5417298E-010  0.4778728E+02  0.7816164E-02  0.1312668E+00
        -11   -1    0    0    0    0  0.00000000000E+00  0.00000000000E+00  0.45593999997E+02  0.45594000000E+02  0.51100000000E-03 0. -1.
         11   -1    0    0    0    0 -0.00000000000E+00 -0.00000000000E+00 -0.45593999997E+02  0.45594000000E+02  0.51100000000E-03 0.  1.
    9900012    2    1    2    0    0  0.31720052586E+02  0.19428876502E+02 -0.22360227875E+02  0.47787276863E+02  0.20000026527E+02 0.  0.
         12    1    1    2    0    0 -0.31720052586E+02 -0.19428876502E+02  0.22360227875E+02  0.43400723137E+02  0.00000000000E+00 0. -1.
         11    1    3    3    0    0  0.51524029204E+01 -0.20799557746E+01 -0.25091528160E+01  0.60966646614E+01  0.51100000000E-03 0. -1.
        -11    1    3    3    0    0 -0.20682626983E+00  0.53205706296E+01 -0.21473711562E+01  0.57412935889E+01  0.51100000000E-03 0.  1.
        -12    1    3    3    0    0  0.26774475936E+02  0.16188261647E+02 -0.17703703903E+02  0.35949318612E+02  0.00000000000E+00 0.  1.
</event>
<event>
 7    1  0.5417298E-010  0.4778728E+02  0.7816164E-02  0.1312668E+00
        -11   -1    0    0    0    0  0.00000000000E+00  0.00000000000E+00  0.45593999997E+02  0.45594000000E+02  0.51100000000E-03 0. -1.
         11   -1    0    0    0    0 -0.00000000000E+00 -0.00000000000E+00 -0.45593999997E+02  0.45594000000E+02  0.51100000000E-03 0.  1.
    9900012    2    1    2    0    0  0.11143023646E+01  0.42252418888E+02  0.98546555542E+01  0.47787276415E+02  0.20000024486E+02 0.  0.
         12    1    1    2    0    0 -0.11143023646E+01 -0.42252418888E+02 -0.98546555542E+01  0.43400723585E+02  0.00000000000E+00 0. -1.
         11    1    3    3    0    0  0.38666472473E+01  0.29144955809E+02  0.34607740739E+01  0.29603316833E+02  0.51100000000E-03 0. -1.
        -11    1    3    3    0    0  0.51933506984E+00  0.11031148184E+02  0.83485727697E+01  0.13843937544E+02  0.51100000000E-03 0.  1.
         12    1    3    3    0    0 -0.32716799525E+01  0.20763148943E+01 -0.19546912895E+01  0.43400220379E+01  0.00000000000E+00 0. -1.
</event>
<event>
 7    1  0.5417298E-010  0.4778727E+02  0.7816164E-02  0.1312668E+00
        -11   -1    0    0    0    0  0.00000000000E+00  0.00000000000E+00  0.45593999997E+02  0.45594000000E+02  0.51100000000E-03 0.  1.
         11   -1    0    0    0    0 -0.00000000000E+00 -0.00000000000E+00 -0.45593999997E+02  0.45594000000E+02  0.51100000000E-03 0. -1.
    9900012    2    1    2    0    0 -0.77834709579E+01 -0.21027036269E+02  0.37160524863E+02  0.47787270945E+02  0.19999999547E+02 0.  0.
         12    1    1    2    0    0  0.77834709579E+01  0.21027036269E+02 -0.37160524863E+02  0.43400729055E+02  0.00000000000E+00 0. -1.
         11    1    3    3    0    0  0.25333549569E+01 -0.17304061991E+02  0.16105429852E+02  0.23774636059E+02  0.51100000000E-03 0. -1.
        -11    1    3    3    0    0 -0.28641108068E+01 -0.23067178697E+01  0.45707925696E+01  0.58665341574E+01  0.51100000000E-03 0.  1.
         12    1    3    3    0    0 -0.74527151079E+01 -0.14162564080E+01  0.16484302441E+02  0.18146100729E+02  0.00000000000E+00 0. -1.
</event>
<event>
 7    1  0.5417298E-010  0.4778727E+02  0.7816164E-02  0.1312668E+00
        -11   -1    0    0    0    0  0.00000000000E+00  0.00000000000E+00  0.45593999997E+02  0.45594000000E+02  0.51100000000E-03 0.  1.
         11   -1    0    0    0    0 -0.00000000000E+00 -0.00000000000E+00 -0.45593999997E+02  0.45594000000E+02  0.51100000000E-03 0. -1.
    9900012    2    1    2    0    0  0.26139235156E+02 -0.76113666592E+01  0.33799868418E+02  0.47787267033E+02  0.19999981711E+02 0.  0.
         12    1    1    2    0    0 -0.26139235156E+02  0.76113666592E+01 -0.33799868418E+02  0.43400732967E+02  0.00000000000E+00 0. -1.
         11    1    3    3    0    0  0.81100166605E+01  0.26695823830E+01  0.11013725147E+02  0.13935608426E+02  0.51100000000E-03 0. -1.
        -11    1    3    3    0    0  0.60599503212E+01  0.33207361850E+01  0.66289428355E+01  0.95756550733E+01  0.51100000000E-03 0.  1.
         12    1    3    3    0    0  0.11969268174E+02 -0.13601685227E+02  0.16157200436E+02  0.24276003534E+02  0.00000000000E+00 0. -1.
</event>
<event>
 7    1  0.5417298E-010  0.4778727E+02  0.7816164E-02  0.1312668E+00
        -11   -1    0    0    0    0  0.00000000000E+00  0.00000000000E+00  0.45593999997E+02  0.45594000000E+02  0.51100000000E-03 0. -1.
         11   -1    0    0    0    0 -0.00000000000E+00 -0.00000000000E+00 -0.45593999997E+02  0.45594000000E+02  0.51100000000E-03 0.  1.
    9900012    2    1    2    0    0  0.52933078031E+01 -0.30693034467E+02 -0.30224848625E+02  0.47787274814E+02  0.20000017185E+02 0.  0.
         12    1    1    2    0    0 -0.52933078031E+01  0.30693034467E+02  0.30224848625E+02  0.43400725186E+02  0.00000000000E+00 0. -1.
         11    1    3    3    0    0  0.34853086221E+00  0.11403218312E+01 -0.60251024705E+01  0.61419595962E+01  0.51100000000E-03 0. -1.
        -11    1    3    3    0    0 -0.14080121528E+01 -0.82649934023E-01 -0.42071404328E+00  0.14718457125E+01  0.51100000000E-03 0.  1.
        -12    1    3    3    0    0  0.63527890937E+01 -0.31750706364E+02 -0.23779032111E+02  0.40173469505E+02  0.00000000000E+00 0.  1.
</event>
<event>
 7    1  0.5417298E-010  0.4778727E+02  0.7816164E-02  0.1312668E+00
        -11   -1    0    0    0    0  0.00000000000E+00  0.00000000000E+00  0.45593999997E+02  0.45594000000E+02  0.51100000000E-03 0.  1.
         11   -1    0    0    0    0 -0.00000000000E+00 -0.00000000000E+00 -0.45593999997E+02  0.45594000000E+02  0.51100000000E-03 0. -1.
    9900012    2    1    2    0    0  0.38966688736E+02 -0.11569233321E+01  0.19075690085E+02  0.47787271263E+02  0.20000000997E+02 0.  0.
         12    1    1    2    0    0 -0.38966688736E+02  0.11569233321E+01 -0.19075690085E+02  0.43400728737E+02  0.00000000000E+00 0. -1.
         11    1    3    3    0    0  0.17754733885E+02  0.47333660304E-01  0.15584985058E+01  0.17823067460E+02  0.51100000000E-03 0. -1.
        -11    1    3    3    0    0  0.20904805862E+02 -0.29411824095E+00  0.11480586262E+02  0.23851651407E+02  0.51100000000E-03 0.  1.
         12    1    3    3    0    0  0.30714898938E+00 -0.91013875150E+00  0.60366053169E+01  0.61125523966E+01  0.00000000000E+00 0. -1.
</event>
<event>
 7    1  0.5417298E-010  0.4778728E+02  0.7816164E-02  0.1312668E+00
        -11   -1    0    0    0    0  0.00000000000E+00  0.00000000000E+00  0.45593999997E+02  0.45594000000E+02  0.51100000000E-03 0.  1.
         11   -1    0    0    0    0 -0.00000000000E+00 -0.00000000000E+00 -0.45593999997E+02  0.45594000000E+02  0.51100000000E-03 0. -1.
    9900012    2    1    2    0    0 -0.12586715397E+02  0.20375884971E+01  0.41485487681E+02  0.47787275818E+02  0.20000021766E+02 0.  0.
         12    1    1    2    0    0  0.12586715397E+02 -0.20375884971E+01 -0.41485487681E+02  0.43400724182E+02  0.00000000000E+00 0. -1.
         11    1    3    3    0    0 -0.17435197635E+01 -0.42319511045E+01  0.10171898347E+02  0.11154227340E+02  0.51100000000E-03 0. -1.
        -11    1    3    3    0    0  0.19668387730E+01  0.24659947977E+01  0.16004239153E+02  0.16312119919E+02  0.51100000000E-03 0.  1.
         12    1    3    3    0    0 -0.12810034407E+02  0.38035448039E+01  0.15309350181E+02  0.20320928560E+02  0.00000000000E+00 0. -1.
</event>
<event>
 7    1  0.5417298E-010  0.4778727E+02  0.7816164E-02  0.1312668E+00
        -11   -1    0    0    0    0  0.00000000000E+00  0.00000000000E+00  0.45593999997E+02  0.45594000000E+02  0.51100000000E-03 0. -1.
         11   -1    0    0    0    0 -0.00000000000E+00 -0.00000000000E+00 -0.45593999997E+02  0.45594000000E+02  0.51100000000E-03 0.  1.
    9900012    2    1    2    0    0  0.27447957846E+02  0.13380387217E+02  0.30841499694E+02  0.47787271258E+02  0.20000000973E+02 0.  0.
         12    1    1    2    0    0 -0.27447957846E+02 -0.13380387217E+02 -0.30841499694E+02  0.43400728742E+02  0.00000000000E+00 0. -1.
         11    1    3    3    0    0  0.67857246711E+01  0.34426024785E+01  0.17328947917E+02  0.18925908362E+02  0.51100000000E-03 0.  1.
        -11    1    3    3    0    0  0.11431073933E+01  0.52872422175E+01  0.34294340643E+01  0.64048921179E+01  0.51100000000E-03 0. -1.
        -12    1    3    3    0    0  0.19519125781E+02  0.46505425210E+01  0.10083117712E+02  0.22456470778E+02  0.00000000000E+00 0.  1.
</event>
<event>
 7    1  0.5417298E-010  0.4778727E+02  0.7816164E-02  0.1312668E+00
        -11   -1    0    0    0    0  0.00000000000E+00  0.00000000000E+00  0.45593999997E+02  0.45594000000E+02  0.51100000000E-03 0. -1.
         11   -1    0    0    0    0 -0.00000000000E+00 -0.00000000000E+00 -0.45593999997E+02  0.45594000000E+02  0.51100000000E-03 0.  1.
    9900012    2    1    2    0    0  0.26003001083E+02 -0.29974920436E+02  0.17577581108E+02  0.47787270996E+02  0.19999999779E+02 0.  0.
         12    1    1    2    0    0 -0.26003001083E+02  0.29974920436E+02 -0.17577581108E+02  0.43400729004E+02  0.00000000000E+00 0. -1.
         11    1    3    3    0    0 -0.12130524830E+01 -0.27710690679E+01  0.42656912971E+01  0.52293826222E+01  0.51100000000E-03 0. -1.
        -11    1    3    3    0    0  0.26153057184E+01 -0.10167712248E+02  0.34492448987E+01  0.11050768616E+02  0.51100000000E-03 0.  1.
        -12    1    3    3    0    0  0.24600747848E+02 -0.17036139120E+02  0.98626449121E+01  0.31507119758E+02  0.00000000000E+00 0.  1.
</event>
<event>
 7    1  0.5417298E-010  0.4778726E+02  0.7816164E-02  0.1312668E+00
        -11   -1    0    0    0    0  0.00000000000E+00  0.00000000000E+00  0.45593999997E+02  0.45594000000E+02  0.51100000000E-03 0.  1.
         11   -1    0    0    0    0 -0.00000000000E+00 -0.00000000000E+00 -0.45593999997E+02  0.45594000000E+02  0.51100000000E-03 0. -1.
    9900012    2    1    2    0    0 -0.42881142016E+02 -0.50140165481E+01  0.44374844876E+01  0.47787263012E+02  0.19999963376E+02 0.  0.
         12    1    1    2    0    0  0.42881142016E+02  0.50140165481E+01 -0.44374844876E+01  0.43400736988E+02  0.00000000000E+00 0. -1.
         11    1    3    3    0    0 -0.75431689373E+01  0.33583128415E+01 -0.39842198418E+01  0.91679698280E+01  0.51100000000E-03 0. -1.
        -11    1    3    3    0    0 -0.21742712716E+02 -0.41855544493E+00  0.29549094944E+01  0.21946576847E+02  0.51100000000E-03 0.  1.
         12    1    3    3    0    0 -0.13595260363E+02 -0.79537739446E+01  0.54667948350E+01  0.16672716337E+02  0.00000000000E+00 0. -1.
</event>
<event>
 7    1  0.5417298E-010  0.4778727E+02  0.7816164E-02  0.1312668E+00
        -11   -1    0    0    0    0  0.00000000000E+00  0.00000000000E+00  0.45593999997E+02  0.45594000000E+02  0.51100000000E-03 0. -1.
         11   -1    0    0    0    0 -0.00000000000E+00 -0.00000000000E+00 -0.45593999997E+02  0.45594000000E+02  0.51100000000E-03 0.  1.
    9900012    2    1    2    0    0 -0.20786717159E+02 -0.34554306626E+02  0.16047917757E+02  0.47787269810E+02  0.19999994373E+02 0.  0.
         12    1    1    2    0    0  0.20786717159E+02  0.34554306626E+02 -0.16047917757E+02  0.43400730190E+02  0.00000000000E+00 0. -1.
         11    1    3    3    0    0 -0.27436916477E+00 -0.20636444698E+01  0.72049262877E+01  0.74996579928E+01  0.51100000000E-03 0. -1.
        -11    1    3    3    0    0 -0.16857511293E+01 -0.57658575840E+01  0.40568833058E+01  0.72488049337E+01  0.51100000000E-03 0.  1.
        -12    1    3    3    0    0 -0.18826596865E+02 -0.26724804572E+02  0.47861081639E+01  0.33038806884E+02  0.00000000000E+00 0.  1.
</event>
<event>
 7    1  0.5417298E-010  0.4778727E+02  0.7816164E-02  0.1312668E+00
        -11   -1    0    0    0    0  0.00000000000E+00  0.00000000000E+00  0.45593999997E+02  0.45594000000E+02  0.51100000000E-03 0.  1.
         11   -1    0    0    0    0 -0.00000000000E+00 -0.00000000000E+00 -0.45593999997E+02  0.45594000000E+02  0.51100000000E-03 0. -1.
    9900012    2    1    2    0    0  0.17757652971E+02  0.52224215330E+00  0.39598186726E+02  0.47787269962E+02  0.19999995064E+02 0.  0.
         12    1    1    2    0    0 -0.17757652971E+02 -0.52224215330E+00 -0.39598186726E+02  0.43400730038E+02  0.00000000000E+00 0. -1.
         11    1    3    3    0    0  0.21174921011E+01  0.27133602909E+01  0.11833358749E+02  0.12323736301E+02  0.51100000000E-03 0. -1.
        -11    1    3    3    0    0  0.15546081126E+00  0.23374715775E+00 -0.18957730136E+01  0.19164449843E+01  0.51100000000E-03 0.  1.
        -12    1    3    3    0    0  0.15484700058E+02 -0.24248652953E+01  0.29660600990E+02  0.33547088677E+02  0.00000000000E+00 0.  1.
</event>
<event>
 7    1  0.5417298E-010  0.4778727E+02  0.7816164E-02  0.1312668E+00
        -11   -1    0    0    0    0  0.00000000000E+00  0.00000000000E+00  0.45593999997E+02  0.45594000000E+02  0.51100000000E-03 0. -1.
         11   -1    0    0    0    0 -0.00000000000E+00 -0.00000000000E+00 -0.45593999997E+02  0.45594000000E+02  0.51100000000E-03 0.  1.
    9900012    2    1    2    0    0 -0.62595729876E+01  0.33535379395E+02 -0.26829448296E+02  0.47787271653E+02  0.20000002777E+02 0.  0.
         12    1    1    2    0    0  0.62595729876E+01 -0.33535379395E+02  0.26829448296E+02  0.43400728347E+02  0.00000000000E+00 0. -1.
         11    1    3    3    0    0 -0.16930632428E+01  0.77484662495E+00 -0.91276536544E+01  0.93156272967E+01  0.51100000000E-03 0. -1.
        -11    1    3    3    0    0 -0.44271115400E-01  0.28931464296E+01  0.85769233918E+00  0.30179285287E+01  0.51100000000E-03 0.  1.
        -12    1    3    3    0    0 -0.45222386294E+01  0.29867386340E+02 -0.18559486981E+02  0.35453715828E+02  0.00000000000E+00 0.  1.
</event>
<event>
 7    1  0.5417298E-010  0.4778727E+02  0.7816164E-02  0.1312668E+00
        -11   -1    0    0    0    0  0.00000000000E+00  0.00000000000E+00  0.45593999997E+02  0.45594000000E+02  0.51100000000E-03 0. -1.
         11   -1    0    0    0    0 -0.00000000000E+00 -0.00000000000E+00 -0.45593999997E+02  0.45594000000E+02  0.51100000000E-03 0.  1.
    9900012    2    1    2    0    0  0.10263573449E+02  0.25134103499E+02 -0.33860881519E+02  0.47787269639E+02  0.19999993593E+02 0.  0.
         12    1    1    2    0    0 -0.10263573449E+02 -0.25134103499E+02  0.33860881519E+02  0.43400730361E+02  0.00000000000E+00 0. -1.
         11    1    3    3    0    0  0.18019033806E+01  0.93991779755E+00  0.18508186688E+01  0.27487872353E+01  0.51100000000E-03 0. -1.
        -11    1    3    3    0    0  0.31290791167E+01  0.58330880375E+00 -0.51194744864E+01  0.60283003042E+01  0.51100000000E-03 0.  1.
        -12    1    3    3    0    0  0.53325909517E+01  0.23610876897E+02 -0.30592225701E+02  0.39010182100E+02  0.00000000000E+00 0.  1.
</event>
<event>
 7    1  0.5417298E-010  0.4778727E+02  0.7816164E-02  0.1312668E+00
        -11   -1    0    0    0    0  0.00000000000E+00  0.00000000000E+00  0.45593999997E+02  0.45594000000E+02  0.51100000000E-03 0.  1.
         11   -1    0    0    0    0 -0.00000000000E+00 -0.00000000000E+00 -0.45593999997E+02  0.45594000000E+02  0.51100000000E-03 0. -1.
    9900012    2    1    2    0    0  0.36434886536E+02 -0.23367839632E+02  0.31727418896E+01  0.47787272160E+02  0.20000005087E+02 0.  0.
         12    1    1    2    0    0 -0.36434886536E+02  0.23367839632E+02 -0.31727418896E+01  0.43400727840E+02  0.00000000000E+00 0. -1.
         11    1    3    3    0    0  0.14582011556E+02 -0.14311502667E+02  0.10200189552E+02  0.22836331508E+02  0.51100000000E-03 0. -1.
        -11    1    3    3    0    0  0.85518273535E+01 -0.50529237326E+01 -0.17191976999E+01  0.10080745524E+02  0.51100000000E-03 0.  1.
         12    1    3    3    0    0  0.13301047627E+02 -0.40034132317E+01 -0.53082499620E+01  0.14870195128E+02  0.00000000000E+00 0. -1.
</event>
<event>
 7    1  0.5417298E-010  0.4778727E+02  0.7816164E-02  0.1312668E+00
        -11   -1    0    0    0    0  0.00000000000E+00  0.00000000000E+00  0.45593999997E+02  0.45594000000E+02  0.51100000000E-03 0.  1.
         11   -1    0    0    0    0 -0.00000000000E+00 -0.00000000000E+00 -0.45593999997E+02  0.45594000000E+02  0.51100000000E-03 0. -1.
    9900012    2    1    2    0    0 -0.34311978374E+02  0.23869651233E+02  0.11685511099E+02  0.47787270979E+02  0.19999999702E+02 0.  0.
         12    1    1    2    0    0  0.34311978374E+02 -0.23869651233E+02 -0.11685511099E+02  0.43400729021E+02  0.00000000000E+00 0. -1.
         11    1    3    3    0    0 -0.17884256436E+02  0.36594545582E+01  0.17569213499E+01  0.18339165980E+02  0.51100000000E-03 0. -1.
        -11    1    3    3    0    0 -0.13851179614E+01  0.95959508830E-01 -0.13305157037E+01  0.19230268572E+01  0.51100000000E-03 0.  1.
        -12    1    3    3    0    0 -0.15042603976E+02  0.20114237166E+02  0.11259105453E+02  0.27525078142E+02  0.00000000000E+00 0.  1.
</event>
<event>
 7    1  0.5417298E-010  0.4778727E+02  0.7816164E-02  0.1312668E+00
        -11   -1    0    0    0    0  0.00000000000E+00  0.00000000000E+00  0.45593999997E+02  0.45594000000E+02  0.51100000000E-03 0.  1.
         11   -1    0    0    0    0 -0.00000000000E+00 -0.00000000000E+00 -0.45593999997E+02  0.45594000000E+02  0.51100000000E-03 0. -1.
    9900012    2    1    2    0    0 -0.28266826717E+02  0.30048519309E+02 -0.13479486350E+02  0.47787267776E+02  0.19999985096E+02 0.  0.
         12    1    1    2    0    0  0.28266826717E+02 -0.30048519309E+02  0.13479486350E+02  0.43400732224E+02  0.00000000000E+00 0. -1.
         11    1    3    3    0    0 -0.24025728075E+01  0.33034718010E+01  0.21736134000E+01  0.46270808842E+01  0.51100000000E-03 0. -1.
        -11    1    3    3    0    0 -0.88236697722E+01  0.80076585171E+00 -0.58172364383E+01  0.10598991190E+02  0.51100000000E-03 0.  1.
        -12    1    3    3    0    0 -0.17040584137E+02  0.25944281657E+02 -0.98358633121E+01  0.32561195702E+02  0.00000000000E+00 0.  1.
</event>
<event>
 7    1  0.5417298E-010  0.4778727E+02  0.7816164E-02  0.1312668E+00
        -11   -1    0    0    0    0  0.00000000000E+00  0.00000000000E+00  0.45593999997E+02  0.45594000000E+02  0.51100000000E-03 0.  1.
         11   -1    0    0    0    0 -0.00000000000E+00 -0.00000000000E+00 -0.45593999997E+02  0.45594000000E+02  0.51100000000E-03 0. -1.
    9900012    2    1    2    0    0 -0.14635287710E+02  0.36130763354E+02  0.19078764729E+02  0.47787274540E+02  0.20000015936E+02 0.  0.
         12    1    1    2    0    0  0.14635287710E+02 -0.36130763354E+02 -0.19078764729E+02  0.43400725460E+02  0.00000000000E+00 0. -1.
         11    1    3    3    0    0  0.92889353210E+00  0.42269538667E+01 -0.15092106427E+01  0.45834156707E+01  0.51100000000E-03 0. -1.
        -11    1    3    3    0    0 -0.10836965123E+02  0.24656758565E+02  0.83150644089E+01  0.28187512349E+02  0.51100000000E-03 0.  1.
         12    1    3    3    0    0 -0.47272161186E+01  0.72470509221E+01  0.12272910963E+02  0.15016346520E+02  0.00000000000E+00 0. -1.
</event>
<event>
 7    1  0.5417298E-010  0.4778727E+02  0.7816164E-02  0.1312668E+00
        -11   -1    0    0    0    0  0.00000000000E+00  0.00000000000E+00  0.45593999997E+02  0.45594000000E+02  0.51100000000E-03 0.  1.
         11   -1    0    0    0    0 -0.00000000000E+00 -0.00000000000E+00 -0.45593999997E+02  0.45594000000E+02  0.51100000000E-03 0. -1.
    9900012    2    1    2    0    0 -0.14358058083E+01  0.42907232110E+02  0.63664446980E+01  0.47787265862E+02  0.19999976370E+02 0.  0.
         12    1    1    2    0    0  0.14358058083E+01 -0.42907232110E+02 -0.63664446980E+01  0.43400734138E+02  0.00000000000E+00 0. -1.
         11    1    3    3    0    0  0.34428107487E+01  0.24498705718E+02  0.16990020822E+01  0.24797704250E+02  0.51100000000E-03 0. -1.
        -11    1    3    3    0    0 -0.12178761744E+01  0.15364807710E+02  0.78162844410E+01  0.17281633056E+02  0.51100000000E-03 0.  1.
         12    1    3    3    0    0 -0.36607403827E+01  0.30437186813E+01 -0.31488418253E+01  0.57079285560E+01  0.00000000000E+00 0. -1.
</event>
<event>
 7    1  0.5417298E-010  0.4778728E+02  0.7816164E-02  0.1312668E+00
        -11   -1    0    0    0    0  0.00000000000E+00  0.00000000000E+00  0.45593999997E+02  0.45594000000E+02  0.51100000000E-03 0.  1.
         11   -1    0    0    0    0 -0.00000000000E+00 -0.00000000000E+00 -0.45593999997E+02  0.45594000000E+02  0.51100000000E-03 0. -1.
    9900012    2    1    2    0    0  0.79479516771E+00  0.14948045515E+02  0.40737538739E+02  0.47787276197E+02  0.20000023492E+02 0.  0.
         12    1    1    2    0    0 -0.79479516771E+00 -0.14948045515E+02 -0.40737538739E+02  0.43400723803E+02  0.00000000000E+00 0. -1.
         11    1    3    3    0    0 -0.21433432456E+01  0.10479756051E+02  0.94519885500E+01  0.14274428008E+02  0.51100000000E-03 0. -1.
        -11    1    3    3    0    0  0.38688932449E+01  0.19028075422E+00  0.30239430692E+01  0.49141401743E+01  0.51100000000E-03 0.  1.
        -12    1    3    3    0    0 -0.93075483165E+00  0.42780087107E+01  0.28261607120E+02  0.28598708014E+02  0.00000000000E+00 0.  1.
</event>
<event>
 7    1  0.5417298E-010  0.4778728E+02  0.7816164E-02  0.1312668E+00
        -11   -1    0    0    0    0  0.00000000000E+00  0.00000000000E+00  0.45593999997E+02  0.45594000000E+02  0.51100000000E-03 0.  1.
         11   -1    0    0    0    0 -0.00000000000E+00 -0.00000000000E+00 -0.45593999997E+02  0.45594000000E+02  0.51100000000E-03 0. -1.
    9900012    2    1    2    0    0 -0.29489450536E+02 -0.99796953642E+01  0.30239062310E+02  0.47787275330E+02  0.20000019540E+02 0.  0.
         12    1    1    2    0    0  0.29489450536E+02  0.99796953642E+01 -0.30239062310E+02  0.43400724670E+02  0.00000000000E+00 0. -1.
         11    1    3    3    0    0  0.15128513671E+01 -0.41002591222E+00  0.97102753269E+00  0.18438370963E+01  0.51100000000E-03 0. -1.
        -11    1    3    3    0    0 -0.85943108931E+01  0.21198086314E+01  0.26544153616E+01  0.92413034543E+01  0.51100000000E-03 0.  1.
        -12    1    3    3    0    0 -0.22407991009E+02 -0.11689478083E+02  0.26613619416E+02  0.36702134780E+02  0.00000000000E+00 0.  1.
</event>
<event>
 7    1  0.5417298E-010  0.4778727E+02  0.7816164E-02  0.1312668E+00
        -11   -1    0    0    0    0  0.00000000000E+00  0.00000000000E+00  0.45593999997E+02  0.45594000000E+02  0.51100000000E-03 0.  1.
         11   -1    0    0    0    0 -0.00000000000E+00 -0.00000000000E+00 -0.45593999997E+02  0.45594000000E+02  0.51100000000E-03 0. -1.
    9900012    2    1    2    0    0 -0.26191580488E+02  0.15472480614E+02  0.30955240624E+02  0.47787268821E+02  0.19999989862E+02 0.  0.
         12    1    1    2    0    0  0.26191580488E+02 -0.15472480614E+02 -0.30955240624E+02  0.43400731179E+02  0.00000000000E+00 0. -1.
         11    1    3    3    0    0 -0.87984637392E+01 -0.31885918045E+01  0.13833925548E+02  0.16702023177E+02  0.51100000000E-03 0. -1.
        -11    1    3    3    0    0 -0.20814375899E+01  0.47784659548E+01  0.43559875033E+01  0.67926980436E+01  0.51100000000E-03 0.  1.
         12    1    3    3    0    0 -0.15311679159E+02  0.13882606463E+02  0.12765327573E+02  0.24292547600E+02  0.00000000000E+00 0. -1.
</event>
<event>
 7    1  0.5417298E-010  0.4778727E+02  0.7816164E-02  0.1312668E+00
        -11   -1    0    0    0    0  0.00000000000E+00  0.00000000000E+00  0.45593999997E+02  0.45594000000E+02  0.51100000000E-03 0. -1.
         11   -1    0    0    0    0 -0.00000000000E+00 -0.00000000000E+00 -0.45593999997E+02  0.45594000000E+02  0.51100000000E-03 0.  1.
    9900012    2    1    2    0    0 -0.10560788504E+02  0.79616323413E+01 -0.41336489981E+02  0.47787271351E+02  0.20000001397E+02 0.  0.
         12    1    1    2    0    0  0.10560788504E+02 -0.79616323413E+01  0.41336489981E+02  0.43400728649E+02  0.00000000000E+00 0. -1.
         11    1    3    3    0    0 -0.57298239646E+01  0.66383483979E+01 -0.52667792020E+01  0.10229248044E+02  0.51100000000E-03 0. -1.
        -11    1    3    3    0    0 -0.31621683776E+01  0.38278888964E+00 -0.28230529838E+01  0.42562265674E+01  0.51100000000E-03 0.  1.
        -12    1    3    3    0    0 -0.16687961618E+01  0.94049505374E+00 -0.33246657795E+02  0.33301796740E+02  0.00000000000E+00 0.  1.
</event>
<event>
 7    1  0.5417298E-010  0.4778725E+02  0.7816164E-02  0.1312668E+00
        -11   -1    0    0    0    0  0.00000000000E+00  0.00000000000E+00  0.45593999997E+02  0.45594000000E+02  0.51100000000E-03 0. -1.
         11   -1    0    0    0    0 -0.00000000000E+00 -0.00000000000E+00 -0.45593999997E+02  0.45594000000E+02  0.51100000000E-03 0.  1.
    9900012    2    1    2    0    0 -0.37400649156E+02  0.18058343596E+02 -0.12598110004E+02  0.47787254541E+02  0.19999924753E+02 0.  0.
         12    1    1    2    0    0  0.37400649156E+02 -0.18058343596E+02  0.12598110004E+02  0.43400745459E+02  0.00000000000E+00 0. -1.
         11    1    3    3    0    0 -0.13273893696E+01  0.31198598884E+01 -0.70708310751E+01  0.78416924586E+01  0.51100000000E-03 0. -1.
        -11    1    3    3    0    0 -0.20017900639E+01  0.25193865898E+01 -0.11540740911E+01  0.34185317781E+01  0.51100000000E-03 0.  1.
        -12    1    3    3    0    0 -0.34071469723E+02  0.12419097118E+02 -0.43732048374E+01  0.36527030304E+02  0.00000000000E+00 0.  1.
</event>
<event>
 7    1  0.5417298E-010  0.4778727E+02  0.7816164E-02  0.1312668E+00
        -11   -1    0    0    0    0  0.00000000000E+00  0.00000000000E+00  0.45593999997E+02  0.45594000000E+02  0.51100000000E-03 0.  1.
         11   -1    0    0    0    0 -0.00000000000E+00 -0.00000000000E+00 -0.45593999997E+02  0.45594000000E+02  0.51100000000E-03 0. -1.
    9900012    2    1    2    0    0 -0.34209503842E+02 -0.10742061266E+02  0.24452832375E+02  0.47787273686E+02  0.20000012046E+02 0.  0.
         12    1    1    2    0    0  0.34209503842E+02  0.10742061266E+02 -0.24452832375E+02  0.43400726314E+02  0.00000000000E+00 0. -1.
         11    1    3    3    0    0 -0.13047677935E+02 -0.43615952827E+00  0.49466177345E+01  0.13960700623E+02  0.51100000000E-03 0. -1.
        -11    1    3    3    0    0 -0.11297562045E+02 -0.12761800905E+02  0.15010078409E+02  0.22711251058E+02  0.51100000000E-03 0.  1.
        -12    1    3    3    0    0 -0.98642638620E+01  0.24558991678E+01  0.44961362318E+01  0.11115322005E+02  0.00000000000E+00 0.  1.
</event>
<event>
 7    1  0.5417298E-010  0.4778727E+02  0.7816164E-02  0.1312668E+00
        -11   -1    0    0    0    0  0.00000000000E+00  0.00000000000E+00  0.45593999997E+02  0.45594000000E+02  0.51100000000E-03 0.  1.
         11   -1    0    0    0    0 -0.00000000000E+00 -0.00000000000E+00 -0.45593999997E+02  0.45594000000E+02  0.51100000000E-03 0. -1.
    9900012    2    1    2    0    0 -0.70009913259E+01  0.12079247249E+02  0.41093811302E+02  0.47787269350E+02  0.19999992274E+02 0.  0.
         12    1    1    2    0    0  0.70009913259E+01 -0.12079247249E+02 -0.41093811302E+02  0.43400730650E+02  0.00000000000E+00 0. -1.
         11    1    3    3    0    0  0.53155747902E+01  0.45200937192E+01  0.11333501131E+02  0.13309200980E+02  0.51100000000E-03 0. -1.
        -11    1    3    3    0    0  0.16609367251E+01  0.49442441207E+00  0.25662746360E+01  0.30966000828E+01  0.51100000000E-03 0.  1.
        -12    1    3    3    0    0 -0.13977502841E+02  0.70647291174E+01  0.27194035535E+02  0.31381468287E+02  0.00000000000E+00 0.  1.
</event>
<event>
 7    1  0.5417298E-010  0.4778725E+02  0.7816164E-02  0.1312668E+00
        -11   -1    0    0    0    0  0.00000000000E+00  0.00000000000E+00  0.45593999997E+02  0.45594000000E+02  0.51100000000E-03 0.  1.
         11   -1    0    0    0    0 -0.00000000000E+00 -0.00000000000E+00 -0.45593999997E+02  0.45594000000E+02  0.51100000000E-03 0. -1.
    9900012    2    1    2    0    0 -0.43074300855E+02  0.51607301831E+01 -0.12635264339E+01  0.47787250822E+02  0.19999907798E+02 0.  0.
         12    1    1    2    0    0  0.43074300855E+02 -0.51607301831E+01  0.12635264339E+01  0.43400749178E+02  0.00000000000E+00 0. -1.
         11    1    3    3    0    0 -0.75585598272E+01  0.26982785504E+01 -0.41941583631E+01  0.90555783047E+01  0.51100000000E-03 0. -1.
        -11    1    3    3    0    0 -0.76162842534E+01 -0.56789487852E+01 -0.18374597409E+00  0.95022106890E+01  0.51100000000E-03 0.  1.
         12    1    3    3    0    0 -0.27899456774E+02  0.81414004179E+01  0.31143779033E+01  0.29229461828E+02  0.00000000000E+00 0. -1.
</event>
<event>
 7    1  0.5417298E-010  0.4778727E+02  0.7816164E-02  0.1312668E+00
        -11   -1    0    0    0    0  0.00000000000E+00  0.00000000000E+00  0.45593999997E+02  0.45594000000E+02  0.51100000000E-03 0. -1.
         11   -1    0    0    0    0 -0.00000000000E+00 -0.00000000000E+00 -0.45593999997E+02  0.45594000000E+02  0.51100000000E-03 0.  1.
    9900012    2    1    2    0    0  0.30698640384E+02 -0.15492199370E+01 -0.30640117098E+02  0.47787269826E+02  0.19999994446E+02 0.  0.
         12    1    1    2    0    0 -0.30698640384E+02  0.15492199370E+01  0.30640117098E+02  0.43400730174E+02  0.00000000000E+00 0. -1.
         11    1    3    3    0    0 -0.76939441746E+00  0.87364763933E+00 -0.25708824519E+01  0.28221737738E+01  0.51100000000E-03 0. -1.
        -11    1    3    3    0    0  0.89379128969E+01  0.36152397925E+01 -0.16055212718E+02  0.18727682755E+02  0.51100000000E-03 0.  1.
         12    1    3    3    0    0  0.22530121905E+02 -0.60381073689E+01 -0.12014021928E+02  0.26237413297E+02  0.00000000000E+00 0. -1.
</event>
<event>
 7    1  0.5417298E-010  0.4778731E+02  0.7816164E-02  0.1312668E+00
        -11   -1    0    0    0    0  0.00000000000E+00  0.00000000000E+00  0.45593999997E+02  0.45594000000E+02  0.51100000000E-03 0. -1.
         11   -1    0    0    0    0 -0.00000000000E+00 -0.00000000000E+00 -0.45593999997E+02  0.45594000000E+02  0.51100000000E-03 0.  1.
    9900012    2    1    2    0    0 -0.18220264938E+02 -0.38349681785E+02 -0.89968782407E+01  0.47787309158E+02  0.20000173776E+02 0.  0.
         12    1    1    2    0    0  0.18220264938E+02  0.38349681785E+02  0.89968782407E+01  0.43400690842E+02  0.00000000000E+00 0. -1.
         11    1    3    3    0    0 -0.60174992254E+01 -0.22839266033E+02 -0.18174883405E+01  0.23688512701E+02  0.51100000000E-03 0. -1.
        -11    1    3    3    0    0  0.65011995106E+00 -0.80834574422E+01 -0.33045646394E+01  0.87570022204E+01  0.51100000000E-03 0.  1.
         12    1    3    3    0    0 -0.12852885663E+02 -0.74269583106E+01 -0.38748252608E+01  0.15341794238E+02  0.00000000000E+00 0. -1.
</event>
<event>
 7    1  0.5417298E-010  0.4778727E+02  0.7816164E-02  0.1312668E+00
        -11   -1    0    0    0    0  0.00000000000E+00  0.00000000000E+00  0.45593999997E+02  0.45594000000E+02  0.51100000000E-03 0.  1.
         11   -1    0    0    0    0 -0.00000000000E+00 -0.00000000000E+00 -0.45593999997E+02  0.45594000000E+02  0.51100000000E-03 0. -1.
    9900012    2    1    2    0    0  0.20637282478E+02  0.34789499767E+02  0.15729481252E+02  0.47787270714E+02  0.19999998493E+02 0.  0.
         12    1    1    2    0    0 -0.20637282478E+02 -0.34789499767E+02 -0.15729481252E+02  0.43400729286E+02  0.00000000000E+00 0. -1.
         11    1    3    3    0    0 -0.97134360838E+00  0.79382928524E+01 -0.11279508099E+01  0.80766499928E+01  0.51100000000E-03 0. -1.
        -11    1    3    3    0    0  0.78919728274E+01  0.58669450426E+01  0.64389573234E+00  0.98548912331E+01  0.51100000000E-03 0.  1.
        -12    1    3    3    0    0  0.13716653259E+02  0.20984261872E+02  0.16213536330E+02  0.29855729488E+02  0.00000000000E+00 0.  1.
</event>
<event>
 7    1  0.5417298E-010  0.4778727E+02  0.7816164E-02  0.1312668E+00
        -11   -1    0    0    0    0  0.00000000000E+00  0.00000000000E+00  0.45593999997E+02  0.45594000000E+02  0.51100000000E-03 0.  1.
         11   -1    0    0    0    0 -0.00000000000E+00 -0.00000000000E+00 -0.45593999997E+02  0.45594000000E+02  0.51100000000E-03 0. -1.
    9900012    2    1    2    0    0 -0.47067575300E+01 -0.30212622781E+02  0.30800440045E+02  0.47787271334E+02  0.20000001321E+02 0.  0.
         12    1    1    2    0    0  0.47067575300E+01  0.30212622781E+02 -0.30800440045E+02  0.43400728666E+02  0.00000000000E+00 0. -1.
         11    1    3    3    0    0 -0.28858282885E+00  0.85899938573E+00 -0.14214409867E+01  0.16857208351E+01  0.51100000000E-03 0. -1.
        -11    1    3    3    0    0  0.14005591761E+01 -0.28827573032E+01  0.75106410908E+01  0.81658793483E+01  0.51100000000E-03 0.  1.
        -12    1    3    3    0    0 -0.58187338773E+01 -0.28188864864E+02  0.24711239941E+02  0.37935671151E+02  0.00000000000E+00 0.  1.
</event>
<event>
 7    1  0.5417298E-010  0.4778726E+02  0.7816164E-02  0.1312668E+00
        -11   -1    0    0    0    0  0.00000000000E+00  0.00000000000E+00  0.45593999997E+02  0.45594000000E+02  0.51100000000E-03 0.  1.
         11   -1    0    0    0    0 -0.00000000000E+00 -0.00000000000E+00 -0.45593999997E+02  0.45594000000E+02  0.51100000000E-03 0. -1.
    9900012    2    1    2    0    0 -0.20186051631E+02  0.61288459619E+01  0.37928676954E+02  0.47787263039E+02  0.19999963498E+02 0.  0.
         12    1    1    2    0    0  0.20186051631E+02 -0.61288459619E+01 -0.37928676954E+02  0.43400736961E+02  0.00000000000E+00 0. -1.
         11    1    3    3    0    0 -0.17122277075E+02  0.39450181365E+01  0.13597362228E+02  0.22217646144E+02  0.51100000000E-03 0. -1.
        -11    1    3    3    0    0 -0.28466899562E+01 -0.76880321527E+00  0.37207104449E+01  0.47474612760E+01  0.51100000000E-03 0.  1.
         12    1    3    3    0    0 -0.21708459999E+00  0.29526310407E+01  0.20610604281E+02  0.20822155619E+02  0.00000000000E+00 0. -1.
</event>
<event>
 7    1  0.5417298E-010  0.4778725E+02  0.7816164E-02  0.1312668E+00
        -11   -1    0    0    0    0  0.00000000000E+00  0.00000000000E+00  0.45593999997E+02  0.45594000000E+02  0.51100000000E-03 0.  1.
         11   -1    0    0    0    0 -0.00000000000E+00 -0.00000000000E+00 -0.45593999997E+02  0.45594000000E+02  0.51100000000E-03 0. -1.
    9900012    2    1    2    0    0 -0.38514738106E+02  0.28362795466E+01  0.19803919261E+02  0.47787254025E+02  0.19999922402E+02 0.  0.
         12    1    1    2    0    0  0.38514738106E+02 -0.28362795466E+01 -0.19803919261E+02  0.43400745975E+02  0.00000000000E+00 0. -1.
         11    1    3    3    0    0 -0.42606251028E+01  0.19895715075E+01  0.60729537432E+01  0.76806307344E+01  0.51100000000E-03 0.  1.
        -11    1    3    3    0    0 -0.65009272464E+01  0.25247602511E+01 -0.30711038177E+01  0.76202459480E+01  0.51100000000E-03 0. -1.
         12    1    3    3    0    0 -0.27753185757E+02 -0.16780522120E+01  0.16802069336E+02  0.32486377343E+02  0.00000000000E+00 0. -1.
</event>
<event>
 7    1  0.5417298E-010  0.4778727E+02  0.7816164E-02  0.1312668E+00
        -11   -1    0    0    0    0  0.00000000000E+00  0.00000000000E+00  0.45593999997E+02  0.45594000000E+02  0.51100000000E-03 0.  1.
         11   -1    0    0    0    0 -0.00000000000E+00 -0.00000000000E+00 -0.45593999997E+02  0.45594000000E+02  0.51100000000E-03 0. -1.
    9900012    2    1    2    0    0 -0.27600673905E+02 -0.33424041885E+02  0.21585172608E+01  0.47787274514E+02  0.20000015821E+02 0.  0.
         12    1    1    2    0    0  0.27600673905E+02  0.33424041885E+02 -0.21585172608E+01  0.43400725486E+02  0.00000000000E+00 0. -1.
         11    1    3    3    0    0 -0.45778311049E+01 -0.59025164232E+01  0.62409767226E+01  0.97337571607E+01  0.51100000000E-03 0. -1.
        -11    1    3    3    0    0 -0.15590131456E+02 -0.12530539931E+02  0.23246934467E+01  0.20136306257E+02  0.51100000000E-03 0.  1.
        -12    1    3    3    0    0 -0.74327113439E+01 -0.14990985531E+02 -0.64071529085E+01  0.17917211097E+02  0.00000000000E+00 0.  1.
</event>
<event>
 7    1  0.5417298E-010  0.4778727E+02  0.7816164E-02  0.1312668E+00
        -11   -1    0    0    0    0  0.00000000000E+00  0.00000000000E+00  0.45593999997E+02  0.45594000000E+02  0.51100000000E-03 0.  1.
         11   -1    0    0    0    0 -0.00000000000E+00 -0.00000000000E+00 -0.45593999997E+02  0.45594000000E+02  0.51100000000E-03 0. -1.
    9900012    2    1    2    0    0 -0.14114986904E+02  0.34481479591E+02  0.22257983720E+02  0.47787272710E+02  0.20000007593E+02 0.  0.
         12    1    1    2    0    0  0.14114986904E+02 -0.34481479591E+02 -0.22257983720E+02  0.43400727290E+02  0.00000000000E+00 0. -1.
         11    1    3    3    0    0 -0.12674115287E+02  0.11532936271E+02  0.10685656431E+02  0.20194679273E+02  0.51100000000E-03 0. -1.
        -11    1    3    3    0    0 -0.42985040986E+01  0.13251836997E+02  0.10462681700E+02  0.17422859407E+02  0.51100000000E-03 0.  1.
         12    1    3    3    0    0  0.28576324813E+01  0.96967063224E+01  0.11096455886E+01  0.10169734030E+02  0.00000000000E+00 0. -1.
</event>
<event>
 7    1  0.5417298E-010  0.4778727E+02  0.7816164E-02  0.1312668E+00
        -11   -1    0    0    0    0  0.00000000000E+00  0.00000000000E+00  0.45593999997E+02  0.45594000000E+02  0.51100000000E-03 0. -1.
         11   -1    0    0    0    0 -0.00000000000E+00 -0.00000000000E+00 -0.45593999997E+02  0.45594000000E+02  0.51100000000E-03 0.  1.
    9900012    2    1    2    0    0 -0.32817530045E+02 -0.20432142088E+01 -0.28327695506E+02  0.47787270338E+02  0.19999996777E+02 0.  0.
         12    1    1    2    0    0  0.32817530045E+02  0.20432142088E+01  0.28327695506E+02  0.43400729662E+02  0.00000000000E+00 0. -1.
         11    1    3    3    0    0 -0.36116590746E+00 -0.68904826810E+00 -0.98669152392E+00  0.12564986084E+01  0.51100000000E-03 0. -1.
        -11    1    3    3    0    0 -0.19078922855E+02 -0.92376076518E+01 -0.20747260126E+02  0.29661211968E+02  0.51100000000E-03 0.  1.
        -12    1    3    3    0    0 -0.13377441283E+02  0.78834417111E+01 -0.65937438561E+01  0.16869559761E+02  0.00000000000E+00 0.  1.
</event>
<event>
 7    1  0.5417298E-010  0.4778727E+02  0.7816164E-02  0.1312668E+00
        -11   -1    0    0    0    0  0.00000000000E+00  0.00000000000E+00  0.45593999997E+02  0.45594000000E+02  0.51100000000E-03 0. -1.
         11   -1    0    0    0    0 -0.00000000000E+00 -0.00000000000E+00 -0.45593999997E+02  0.45594000000E+02  0.51100000000E-03 0.  1.
    9900012    2    1    2    0    0 -0.31823930689E+02  0.28811351625E+02 -0.63848850583E+01  0.47787270695E+02  0.19999998406E+02 0.  0.
         12    1    1    2    0    0  0.31823930689E+02 -0.28811351625E+02  0.63848850583E+01  0.43400729305E+02  0.00000000000E+00 0. -1.
         11    1    3    3    0    0 -0.11299955582E+02  0.10427467295E+02  0.66405149144E+01  0.16748656930E+02  0.51100000000E-03 0. -1.
        -11    1    3    3    0    0 -0.35547271897E+01  0.43952341012E+01 -0.36870032733E+00  0.56648131823E+01  0.51100000000E-03 0.  1.
        -12    1    3    3    0    0 -0.16969247918E+02  0.13988650229E+02 -0.12656699645E+02  0.25373800583E+02  0.00000000000E+00 0.  1.
</event>
<event>
 7    1  0.5417298E-010  0.4778727E+02  0.7816164E-02  0.1312668E+00
        -11   -1    0    0    0    0  0.00000000000E+00  0.00000000000E+00  0.45593999997E+02  0.45594000000E+02  0.51100000000E-03 0.  1.
         11   -1    0    0    0    0 -0.00000000000E+00 -0.00000000000E+00 -0.45593999997E+02  0.45594000000E+02  0.51100000000E-03 0. -1.
    9900012    2    1    2    0    0 -0.19678610859E+02 -0.21103614285E+01  0.38625402414E+02  0.47787273481E+02  0.20000011111E+02 0.  0.
         12    1    1    2    0    0  0.19678610859E+02  0.21103614285E+01 -0.38625402414E+02  0.43400726519E+02  0.00000000000E+00 0. -1.
         11    1    3    3    0    0 -0.13041722248E+02 -0.51497961193E+01  0.13647691111E+02  0.19566971973E+02  0.51100000000E-03 0. -1.
        -11    1    3    3    0    0 -0.92813261971E+01  0.25618745194E+00  0.18159920734E+02  0.20395866476E+02  0.51100000000E-03 0.  1.
         12    1    3    3    0    0  0.26444375857E+01  0.27832472388E+01  0.68177905688E+01  0.78244350324E+01  0.00000000000E+00 0. -1.
</event>
<event>
 7    1  0.5417298E-010  0.4778727E+02  0.7816164E-02  0.1312668E+00
        -11   -1    0    0    0    0  0.00000000000E+00  0.00000000000E+00  0.45593999997E+02  0.45594000000E+02  0.51100000000E-03 0.  1.
         11   -1    0    0    0    0 -0.00000000000E+00 -0.00000000000E+00 -0.45593999997E+02  0.45594000000E+02  0.51100000000E-03 0. -1.
    9900012    2    1    2    0    0 -0.16819592685E+02  0.37927298420E+02  0.12737529337E+02  0.47787270546E+02  0.19999997726E+02 0.  0.
         12    1    1    2    0    0  0.16819592685E+02 -0.37927298420E+02 -0.12737529337E+02  0.43400729454E+02  0.00000000000E+00 0. -1.
         11    1    3    3    0    0 -0.33861746561E+01  0.53817862191E+01 -0.33810039737E+01  0.72014574803E+01  0.51100000000E-03 0. -1.
        -11    1    3    3    0    0 -0.52748037181E+01  0.42582378114E+01 -0.46687501268E+00  0.67951538659E+01  0.51100000000E-03 0.  1.
        -12    1    3    3    0    0 -0.81586143110E+01  0.28287274390E+02  0.16585408323E+02  0.33790659199E+02  0.00000000000E+00 0.  1.
</event>
<event>
 7    1  0.5417298E-010  0.4778727E+02  0.7816164E-02  0.1312668E+00
        -11   -1    0    0    0    0  0.00000000000E+00  0.00000000000E+00  0.45593999997E+02  0.45594000000E+02  0.51100000000E-03 0.  1.
         11   -1    0    0    0    0 -0.00000000000E+00 -0.00000000000E+00 -0.45593999997E+02  0.45594000000E+02  0.51100000000E-03 0. -1.
    9900012    2    1    2    0    0 -0.12318828103E+01 -0.38864620729E+02  0.19278144555E+02  0.47787272619E+02  0.20000007181E+02 0.  0.
         12    1    1    2    0    0  0.12318828103E+01  0.38864620729E+02 -0.19278144555E+02  0.43400727381E+02  0.00000000000E+00 0. -1.
         11    1    3    3    0    0  0.29177300553E+01 -0.13024004365E+02  0.24386838585E+01  0.13567793394E+02  0.51100000000E-03 0. -1.
        -11    1    3    3    0    0 -0.41637930531E+01 -0.27550539378E+02  0.16742773022E+02  0.32506766086E+02  0.51100000000E-03 0.  1.
         12    1    3    3    0    0  0.14180187480E-01  0.17099230140E+01  0.96687674582E-01  0.17127131394E+01  0.00000000000E+00 0. -1.
</event>
<event>
 7    1  0.5417298E-010  0.4778727E+02  0.7816164E-02  0.1312668E+00
        -11   -1    0    0    0    0  0.00000000000E+00  0.00000000000E+00  0.45593999997E+02  0.45594000000E+02  0.51100000000E-03 0.  1.
         11   -1    0    0    0    0 -0.00000000000E+00 -0.00000000000E+00 -0.45593999997E+02  0.45594000000E+02  0.51100000000E-03 0. -1.
    9900012    2    1    2    0    0 -0.80313675542E+01 -0.39697835828E+01  0.42465999979E+02  0.47787271887E+02  0.20000003843E+02 0.  0.
         12    1    1    2    0    0  0.80313675542E+01  0.39697835828E+01 -0.42465999979E+02  0.43400728113E+02  0.00000000000E+00 0. -1.
         11    1    3    3    0    0 -0.27891912200E+01 -0.78231501202E+01  0.17249311600E+02  0.19144712492E+02  0.51100000000E-03 0. -1.
        -11    1    3    3    0    0 -0.18012901729E+00  0.73020595419E+01  0.15833769681E+02  0.17437338747E+02  0.51100000000E-03 0.  1.
        -12    1    3    3    0    0 -0.50620473169E+01 -0.34486930045E+01  0.93829186982E+01  0.11205220648E+02  0.00000000000E+00 0.  1.
</event>
<event>
 7    1  0.5417298E-010  0.4778727E+02  0.7816164E-02  0.1312668E+00
        -11   -1    0    0    0    0  0.00000000000E+00  0.00000000000E+00  0.45593999997E+02  0.45594000000E+02  0.51100000000E-03 0. -1.
         11   -1    0    0    0    0 -0.00000000000E+00 -0.00000000000E+00 -0.45593999997E+02  0.45594000000E+02  0.51100000000E-03 0.  1.
    9900012    2    1    2    0    0  0.18391725870E+01 -0.42350358679E+02 -0.93106536339E+01  0.47787266053E+02  0.19999977241E+02 0.  0.
         12    1    1    2    0    0 -0.18391725870E+01  0.42350358679E+02  0.93106536339E+01  0.43400733947E+02  0.00000000000E+00 0. -1.
         11    1    3    3    0    0 -0.60086821825E+01 -0.92006839983E+01 -0.46367699305E+01  0.11927132231E+02  0.51100000000E-03 0. -1.
        -11    1    3    3    0    0  0.40104311646E+01 -0.27004745809E+02 -0.71191655629E+01  0.28213868450E+02  0.51100000000E-03 0.  1.
        -12    1    3    3    0    0  0.38374236049E+01 -0.61449288715E+01  0.24452818595E+01  0.76462653715E+01  0.00000000000E+00 0.  1.
</event>
<event>
 7    1  0.5417298E-010  0.4778724E+02  0.7816164E-02  0.1312668E+00
        -11   -1    0    0    0    0  0.00000000000E+00  0.00000000000E+00  0.45593999997E+02  0.45594000000E+02  0.51100000000E-03 0.  1.
         11   -1    0    0    0    0 -0.00000000000E+00 -0.00000000000E+00 -0.45593999997E+02  0.45594000000E+02  0.51100000000E-03 0. -1.
    9900012    2    1    2    0    0  0.17012917931E+02 -0.33863406884E+01  0.39783403161E+02  0.47787241403E+02  0.19999864852E+02 0.  0.
         12    1    1    2    0    0 -0.17012917931E+02  0.33863406884E+01 -0.39783403161E+02  0.43400758597E+02  0.00000000000E+00 0. -1.
         11    1    3    3    0    0  0.59605483508E+01 -0.62622184280E+00  0.74282095329E+00  0.60392113449E+01  0.51100000000E-03 0. -1.
        -11    1    3    3    0    0 -0.36118641343E+00  0.14018528707E+01  0.86586323380E+00  0.16868214183E+01  0.51100000000E-03 0.  1.
        -12    1    3    3    0    0  0.11413555993E+02 -0.41619717163E+01  0.38174718973E+02  0.40061208640E+02  0.00000000000E+00 0.  1.
</event>
<event>
 7    1  0.5417298E-010  0.4778728E+02  0.7816164E-02  0.1312668E+00
        -11   -1    0    0    0    0  0.00000000000E+00  0.00000000000E+00  0.45593999997E+02  0.45594000000E+02  0.51100000000E-03 0.  1.
         11   -1    0    0    0    0 -0.00000000000E+00 -0.00000000000E+00 -0.45593999997E+02  0.45594000000E+02  0.51100000000E-03 0. -1.
    9900012    2    1    2    0    0 -0.15398641523E+02 -0.18998172527E+02  0.35854899784E+02  0.47787279284E+02  0.20000037567E+02 0.  0.
         12    1    1    2    0    0  0.15398641523E+02  0.18998172527E+02 -0.35854899784E+02  0.43400720716E+02  0.00000000000E+00 0. -1.
         11    1    3    3    0    0 -0.38199968612E+01 -0.12447465380E+02  0.12669237011E+02  0.18167039856E+02  0.51100000000E-03 0. -1.
        -11    1    3    3    0    0 -0.22358485016E+01 -0.58674823060E+01  0.22251942535E+01  0.66616707259E+01  0.51100000000E-03 0.  1.
        -12    1    3    3    0    0 -0.93427961606E+01 -0.68322484044E+00  0.20960468520E+02  0.22958568702E+02  0.00000000000E+00 0.  1.
</event>
<event>
 7    1  0.5417298E-010  0.4778727E+02  0.7816164E-02  0.1312668E+00
        -11   -1    0    0    0    0  0.00000000000E+00  0.00000000000E+00  0.45593999997E+02  0.45594000000E+02  0.51100000000E-03 0. -1.
         11   -1    0    0    0    0 -0.00000000000E+00 -0.00000000000E+00 -0.45593999997E+02  0.45594000000E+02  0.51100000000E-03 0.  1.
    9900012    2    1    2    0    0 -0.39632116678E+02 -0.16277516449E+02 -0.69253714874E+01  0.47787274380E+02  0.20000015207E+02 0.  0.
         12    1    1    2    0    0  0.39632116678E+02  0.16277516449E+02  0.69253714874E+01  0.43400725620E+02  0.00000000000E+00 0. -1.
         11    1    3    3    0    0 -0.18263167381E+01 -0.98494259511E+00  0.45542549418E+01  0.50046761214E+01  0.51100000000E-03 0. -1.
        -11    1    3    3    0    0 -0.11429022134E+02 -0.72276274093E+01 -0.23262331444E+01  0.13721242867E+02  0.51100000000E-03 0.  1.
         12    1    3    3    0    0 -0.26376777806E+02 -0.80649464451E+01 -0.91533932848E+01  0.29061355392E+02  0.00000000000E+00 0. -1.
</event>
<event>
 7    1  0.5417298E-010  0.4778728E+02  0.7816164E-02  0.1312668E+00
        -11   -1    0    0    0    0  0.00000000000E+00  0.00000000000E+00  0.45593999997E+02  0.45594000000E+02  0.51100000000E-03 0. -1.
         11   -1    0    0    0    0 -0.00000000000E+00 -0.00000000000E+00 -0.45593999997E+02  0.45594000000E+02  0.51100000000E-03 0.  1.
    9900012    2    1    2    0    0 -0.39834197736E+02  0.18256814594E+01  0.17132613063E+02  0.47787275899E+02  0.20000022136E+02 0.  0.
         12    1    1    2    0    0  0.39834197736E+02 -0.18256814594E+01 -0.17132613063E+02  0.43400724101E+02  0.00000000000E+00 0. -1.
         11    1    3    3    0    0 -0.17170733665E-01  0.12582288370E+01 -0.40746007940E+00  0.13226710164E+01  0.51100000000E-03 0. -1.
        -11    1    3    3    0    0 -0.59382297415E+00  0.14782057158E+01  0.50429099173E+01  0.52885403050E+01  0.51100000000E-03 0.  1.
        -12    1    3    3    0    0 -0.39223204028E+02 -0.91075309332E+00  0.12497163225E+02  0.41176064578E+02  0.00000000000E+00 0.  1.
</event>
<event>
 7    1  0.5417298E-010  0.4778727E+02  0.7816164E-02  0.1312668E+00
        -11   -1    0    0    0    0  0.00000000000E+00  0.00000000000E+00  0.45593999997E+02  0.45594000000E+02  0.51100000000E-03 0.  1.
         11   -1    0    0    0    0 -0.00000000000E+00 -0.00000000000E+00 -0.45593999997E+02  0.45594000000E+02  0.51100000000E-03 0. -1.
    9900012    2    1    2    0    0  0.10155486835E+02 -0.24760366308E+02  0.34167433298E+02  0.47787272463E+02  0.20000006468E+02 0.  0.
         12    1    1    2    0    0 -0.10155486835E+02  0.24760366308E+02 -0.34167433298E+02  0.43400727537E+02  0.00000000000E+00 0. -1.
         11    1    3    3    0    0 -0.14145553157E+01 -0.79677907874E-01  0.38105487814E+00  0.14671463428E+01  0.51100000000E-03 0. -1.
        -11    1    3    3    0    0 -0.13504686373E+01 -0.33128396351E+01  0.14031008056E+02  0.14479912269E+02  0.51100000000E-03 0.  1.
         12    1    3    3    0    0  0.12920510788E+02 -0.21367848765E+02  0.19755370364E+02  0.31840213851E+02  0.00000000000E+00 0. -1.
</event>
<event>
 7    1  0.5417298E-010  0.4778728E+02  0.7816164E-02  0.1312668E+00
        -11   -1    0    0    0    0  0.00000000000E+00  0.00000000000E+00  0.45593999997E+02  0.45594000000E+02  0.51100000000E-03 0.  1.
         11   -1    0    0    0    0 -0.00000000000E+00 -0.00000000000E+00 -0.45593999997E+02  0.45594000000E+02  0.51100000000E-03 0. -1.
    9900012    2    1    2    0    0  0.13775789911E+02  0.21586087427E+02  0.35041277943E+02  0.47787277449E+02  0.20000029202E+02 0.  0.
         12    1    1    2    0    0 -0.13775789911E+02 -0.21586087427E+02 -0.35041277943E+02  0.43400722551E+02  0.00000000000E+00 0. -1.
         11    1    3    3    0    0 -0.15633138394E+01  0.20704390416E+01  0.11737275777E+02  0.12020578643E+02  0.51100000000E-03 0. -1.
        -11    1    3    3    0    0 -0.57533482233E+00 -0.57317959377E+00  0.28885421976E+01  0.30005368341E+01  0.51100000000E-03 0.  1.
        -12    1    3    3    0    0  0.15914438572E+02  0.20088827980E+02  0.20415459968E+02  0.32766161972E+02  0.00000000000E+00 0.  1.
</event>
<event>
 7    1  0.5417298E-010  0.4778727E+02  0.7816164E-02  0.1312668E+00
        -11   -1    0    0    0    0  0.00000000000E+00  0.00000000000E+00  0.45593999997E+02  0.45594000000E+02  0.51100000000E-03 0.  1.
         11   -1    0    0    0    0 -0.00000000000E+00 -0.00000000000E+00 -0.45593999997E+02  0.45594000000E+02  0.51100000000E-03 0. -1.
    9900012    2    1    2    0    0 -0.42695960415E+02  0.70568844546E+01  0.32982786877E+01  0.47787270786E+02  0.19999998822E+02 0.  0.
         12    1    1    2    0    0  0.42695960415E+02 -0.70568844546E+01 -0.32982786877E+01  0.43400729214E+02  0.00000000000E+00 0. -1.
         11    1    3    3    0    0 -0.34782291510E+01  0.17477544415E+01  0.13097460623E+01  0.41070863910E+01  0.51100000000E-03 0. -1.
        -11    1    3    3    0    0 -0.20517526534E+02  0.73206118234E+01  0.90509837099E+01  0.23589840163E+02  0.51100000000E-03 0.  1.
         12    1    3    3    0    0 -0.18700204731E+02 -0.20114818103E+01 -0.70624510845E+01  0.20090344232E+02  0.00000000000E+00 0. -1.
</event>
<event>
 7    1  0.5417298E-010  0.4778728E+02  0.7816164E-02  0.1312668E+00
        -11   -1    0    0    0    0  0.00000000000E+00  0.00000000000E+00  0.45593999997E+02  0.45594000000E+02  0.51100000000E-03 0.  1.
         11   -1    0    0    0    0 -0.00000000000E+00 -0.00000000000E+00 -0.45593999997E+02  0.45594000000E+02  0.51100000000E-03 0. -1.
    9900012    2    1    2    0    0  0.37901015581E+01 -0.23153028306E+02  0.36512943723E+02  0.47787278245E+02  0.20000032830E+02 0.  0.
         12    1    1    2    0    0 -0.37901015581E+01  0.23153028306E+02 -0.36512943723E+02  0.43400721755E+02  0.00000000000E+00 0. -1.
         11    1    3    3    0    0  0.62086290438E+00  0.21877622609E-01 -0.16319102248E+01  0.17461616819E+01  0.51100000000E-03 0. -1.
        -11    1    3    3    0    0  0.46527880601E+01 -0.46419181107E+01  0.14827113312E+02  0.16218481122E+02  0.51100000000E-03 0.  1.
        -12    1    3    3    0    0 -0.14835494064E+01 -0.18532987818E+02  0.23317740635E+02  0.29822635441E+02  0.00000000000E+00 0.  1.
</event>
<event>
 7    1  0.5417298E-010  0.4778727E+02  0.7816164E-02  0.1312668E+00
        -11   -1    0    0    0    0  0.00000000000E+00  0.00000000000E+00  0.45593999997E+02  0.45594000000E+02  0.51100000000E-03 0. -1.
         11   -1    0    0    0    0 -0.00000000000E+00 -0.00000000000E+00 -0.45593999997E+02  0.45594000000E+02  0.51100000000E-03 0.  1.
    9900012    2    1    2    0    0 -0.26254338691E+02  0.33785767502E+02 -0.72701376007E+01  0.47787270899E+02  0.19999999335E+02 0.  0.
         12    1    1    2    0    0  0.26254338691E+02 -0.33785767502E+02  0.72701376007E+01  0.43400729101E+02  0.00000000000E+00 0. -1.
         11    1    3    3    0    0 -0.88550986884E+01  0.14322997624E+02  0.17756587254E+00  0.16840206757E+02  0.51100000000E-03 0. -1.
        -11    1    3    3    0    0 -0.17094720881E+02  0.92756211806E+01 -0.24717617736E+01  0.19605515470E+02  0.51100000000E-03 0.  1.
        -12    1    3    3    0    0 -0.30451912067E+00  0.10187148698E+02 -0.49759416997E+01  0.11341548672E+02  0.00000000000E+00 0.  1.
</event>
<event>
 7    1  0.5417298E-010  0.4778727E+02  0.7816164E-02  0.1312668E+00
        -11   -1    0    0    0    0  0.00000000000E+00  0.00000000000E+00  0.45593999997E+02  0.45594000000E+02  0.51100000000E-03 0.  1.
         11   -1    0    0    0    0 -0.00000000000E+00 -0.00000000000E+00 -0.45593999997E+02  0.45594000000E+02  0.51100000000E-03 0. -1.
    9900012    2    1    2    0    0  0.18028416923E+02  0.38913025011E+02  0.66615292612E+01  0.47787270694E+02  0.19999998400E+02 0.  0.
         12    1    1    2    0    0 -0.18028416923E+02 -0.38913025011E+02 -0.66615292612E+01  0.43400729306E+02  0.00000000000E+00 0. -1.
         11    1    3    3    0    0  0.10267848222E+02  0.21526670093E+02  0.15888346587E+01  0.23902941833E+02  0.51100000000E-03 0.  1.
        -11    1    3    3    0    0  0.55190592455E+01  0.10269075784E+02 -0.38270580760E+01  0.12270301797E+02  0.51100000000E-03 0. -1.
        -12    1    3    3    0    0  0.22415094555E+01  0.71172791332E+01  0.88997526785E+01  0.11614027064E+02  0.00000000000E+00 0.  1.
</event>
<event>
 7    1  0.5417298E-010  0.4778732E+02  0.7816164E-02  0.1312668E+00
        -11   -1    0    0    0    0  0.00000000000E+00  0.00000000000E+00  0.45593999997E+02  0.45594000000E+02  0.51100000000E-03 0.  1.
         11   -1    0    0    0    0 -0.00000000000E+00 -0.00000000000E+00 -0.45593999997E+02  0.45594000000E+02  0.51100000000E-03 0. -1.
    9900012    2    1    2    0    0  0.11625903739E+02 -0.29244483656E+02  0.29886748413E+02  0.47787318061E+02  0.20000214368E+02 0.  0.
         12    1    1    2    0    0 -0.11625903739E+02  0.29244483656E+02 -0.29886748413E+02  0.43400681939E+02  0.00000000000E+00 0. -1.
         11    1    3    3    0    0  0.36295374030E+00 -0.17611612495E+02  0.22232996428E+02  0.28365591136E+02  0.51100000000E-03 0. -1.
        -11    1    3    3    0    0  0.30359409228E+01 -0.37386420941E+00  0.39459231073E+01  0.49926967827E+01  0.51100000000E-03 0.  1.
         12    1    3    3    0    0  0.82270090758E+01 -0.11259006951E+02  0.37078288779E+01  0.14429030143E+02  0.00000000000E+00 0. -1.
</event>
<event>
 7    1  0.5417298E-010  0.4778727E+02  0.7816164E-02  0.1312668E+00
        -11   -1    0    0    0    0  0.00000000000E+00  0.00000000000E+00  0.45593999997E+02  0.45594000000E+02  0.51100000000E-03 0. -1.
         11   -1    0    0    0    0 -0.00000000000E+00 -0.00000000000E+00 -0.45593999997E+02  0.45594000000E+02  0.51100000000E-03 0.  1.
    9900012    2    1    2    0    0 -0.27021473435E+02 -0.24606200148E+02  0.23409362283E+02  0.47787270111E+02  0.19999995745E+02 0.  0.
         12    1    1    2    0    0  0.27021473435E+02  0.24606200148E+02 -0.23409362283E+02  0.43400729889E+02  0.00000000000E+00 0. -1.
         11    1    3    3    0    0 -0.79156959692E+01 -0.13562081796E+02  0.39366007875E+01  0.16189043558E+02  0.51100000000E-03 0. -1.
        -11    1    3    3    0    0  0.10482631070E+01  0.30576555288E+00  0.30256785632E+01  0.32166876043E+01  0.51100000000E-03 0.  1.
        -12    1    3    3    0    0 -0.20154040573E+02 -0.11349883905E+02  0.16447082933E+02  0.28381538949E+02  0.00000000000E+00 0.  1.
</event>
<event>
 7    1  0.5417298E-010  0.4778727E+02  0.7816164E-02  0.1312668E+00
        -11   -1    0    0    0    0  0.00000000000E+00  0.00000000000E+00  0.45593999997E+02  0.45594000000E+02  0.51100000000E-03 0.  1.
         11   -1    0    0    0    0 -0.00000000000E+00 -0.00000000000E+00 -0.45593999997E+02  0.45594000000E+02  0.51100000000E-03 0. -1.
    9900012    2    1    2    0    0  0.13142904606E+02  0.34607469683E+02  0.22654144546E+02  0.47787272305E+02  0.20000005747E+02 0.  0.
         12    1    1    2    0    0 -0.13142904606E+02 -0.34607469683E+02 -0.22654144546E+02  0.43400727695E+02  0.00000000000E+00 0. -1.
         11    1    3    3    0    0 -0.51733054106E-01  0.81112412637E+01  0.15545676515E+01  0.82590309353E+01  0.51100000000E-03 0. -1.
        -11    1    3    3    0    0  0.11416175446E+02  0.27927965022E+02  0.16488117755E+02  0.34382529277E+02  0.51100000000E-03 0.  1.
         12    1    3    3    0    0  0.17784622142E+01 -0.14317366027E+01  0.46114591396E+01  0.51457120929E+01  0.00000000000E+00 0. -1.
</event>
<event>
 7    1  0.5417298E-010  0.4778727E+02  0.7816164E-02  0.1312668E+00
        -11   -1    0    0    0    0  0.00000000000E+00  0.00000000000E+00  0.45593999997E+02  0.45594000000E+02  0.51100000000E-03 0. -1.
         11   -1    0    0    0    0 -0.00000000000E+00 -0.00000000000E+00 -0.45593999997E+02  0.45594000000E+02  0.51100000000E-03 0.  1.
    9900012    2    1    2    0    0 -0.63556604258E+01  0.14757182762E+02 -0.40316924796E+02  0.47787270888E+02  0.19999999285E+02 0.  0.
         12    1    1    2    0    0  0.63556604258E+01 -0.14757182762E+02  0.40316924796E+02  0.43400729112E+02  0.00000000000E+00 0. -1.
         11    1    3    3    0    0  0.30120043004E+00  0.30350923055E+01 -0.15194578238E+01  0.34075298005E+01  0.51100000000E-03 0. -1.
        -11    1    3    3    0    0 -0.49069189219E+01  0.14353674892E+02 -0.18908367551E+02  0.24241126210E+02  0.51100000000E-03 0.  1.
         12    1    3    3    0    0 -0.17499419339E+01 -0.26315844358E+01 -0.19889099421E+02  0.20138614878E+02  0.00000000000E+00 0. -1.
</event>
<event>
 7    1  0.5417298E-010  0.4778728E+02  0.7816164E-02  0.1312668E+00
        -11   -1    0    0    0    0  0.00000000000E+00  0.00000000000E+00  0.45593999997E+02  0.45594000000E+02  0.51100000000E-03 0.  1.
         11   -1    0    0    0    0 -0.00000000000E+00 -0.00000000000E+00 -0.45593999997E+02  0.45594000000E+02  0.51100000000E-03 0. -1.
    9900012    2    1    2    0    0  0.34138860947E+02 -0.26371362994E+02  0.47657148569E+01  0.47787278220E+02  0.20000032717E+02 0.  0.
         12    1    1    2    0    0 -0.34138860947E+02  0.26371362994E+02 -0.47657148569E+01  0.43400721780E+02  0.00000000000E+00 0. -1.
         11    1    3    3    0    0  0.90529183618E+01 -0.56082826719E+01  0.48183740652E+01  0.11688665205E+02  0.51100000000E-03 0. -1.
        -11    1    3    3    0    0  0.19507631132E+02 -0.21207218446E+02  0.41339792986E+01  0.29109853516E+02  0.51100000000E-03 0.  1.
         12    1    3    3    0    0  0.55783114535E+01  0.44413812443E+00 -0.41866385069E+01  0.69887594989E+01  0.00000000000E+00 0. -1.
</event>
<event>
 7    1  0.5417298E-010  0.4778726E+02  0.7816164E-02  0.1312668E+00
        -11   -1    0    0    0    0  0.00000000000E+00  0.00000000000E+00  0.45593999997E+02  0.45594000000E+02  0.51100000000E-03 0. -1.
         11   -1    0    0    0    0 -0.00000000000E+00 -0.00000000000E+00 -0.45593999997E+02  0.45594000000E+02  0.51100000000E-03 0.  1.
    9900012    2    1    2    0    0  0.15979853824E+02  0.20020594929E+02 -0.35034904768E+02  0.47787256900E+02  0.19999935510E+02 0.  0.
         12    1    1    2    0    0 -0.15979853824E+02 -0.20020594929E+02  0.35034904768E+02  0.43400743100E+02  0.00000000000E+00 0. -1.
         11    1    3    3    0    0  0.87262237287E+01  0.21610251440E+01 -0.63796980141E+01  0.11023500227E+02  0.51100000000E-03 0. -1.
        -11    1    3    3    0    0  0.20984911420E+01  0.10035772371E+02 -0.51784162513E+01  0.11486356572E+02  0.51100000000E-03 0.  1.
        -12    1    3    3    0    0  0.51551389532E+01  0.78237974137E+01 -0.23476790502E+02  0.25277400101E+02  0.00000000000E+00 0.  1.
</event>
<event>
 7    1  0.5417298E-010  0.4778727E+02  0.7816164E-02  0.1312668E+00
        -11   -1    0    0    0    0  0.00000000000E+00  0.00000000000E+00  0.45593999997E+02  0.45594000000E+02  0.51100000000E-03 0. -1.
         11   -1    0    0    0    0 -0.00000000000E+00 -0.00000000000E+00 -0.45593999997E+02  0.45594000000E+02  0.51100000000E-03 0.  1.
    9900012    2    1    2    0    0 -0.42716300500E+02  0.76448648379E+01  0.70502065250E+00  0.47787270272E+02  0.19999996480E+02 0.  0.
         12    1    1    2    0    0  0.42716300500E+02 -0.76448648379E+01 -0.70502065250E+00  0.43400729728E+02  0.00000000000E+00 0. -1.
         11    1    3    3    0    0 -0.26033031629E+02  0.11928585610E+02  0.24628701560E+01  0.28741531277E+02  0.51100000000E-03 0. -1.
        -11    1    3    3    0    0 -0.34753976683E+01  0.13895247918E+01 -0.27382595154E+01  0.46375891942E+01  0.51100000000E-03 0.  1.
         12    1    3    3    0    0 -0.13207871202E+02 -0.56732455636E+01  0.98041001191E+00  0.14408149802E+02  0.00000000000E+00 0. -1.
</event>
<event>
 7    1  0.5417298E-010  0.4778727E+02  0.7816164E-02  0.1312668E+00
        -11   -1    0    0    0    0  0.00000000000E+00  0.00000000000E+00  0.45593999997E+02  0.45594000000E+02  0.51100000000E-03 0.  1.
         11   -1    0    0    0    0 -0.00000000000E+00 -0.00000000000E+00 -0.45593999997E+02  0.45594000000E+02  0.51100000000E-03 0. -1.
    9900012    2    1    2    0    0  0.31824265054E+02 -0.51334083065E+01  0.29060064549E+02  0.47787273294E+02  0.20000010257E+02 0.  0.
         12    1    1    2    0    0 -0.31824265054E+02  0.51334083065E+01 -0.29060064549E+02  0.43400726706E+02  0.00000000000E+00 0. -1.
         11    1    3    3    0    0  0.26245397165E+02  0.19256549967E+01  0.17143387521E+02  0.31407399693E+02  0.51100000000E-03 0. -1.
        -11    1    3    3    0    0  0.34577448965E+01 -0.28508771598E+01  0.11494483324E+01  0.46265248383E+01  0.51100000000E-03 0.  1.
         12    1    3    3    0    0  0.21211229919E+01 -0.42081861434E+01  0.10767228695E+02  0.11753348762E+02  0.00000000000E+00 0. -1.
</event>
<event>
 7    1  0.5417298E-010  0.4778727E+02  0.7816164E-02  0.1312668E+00
        -11   -1    0    0    0    0  0.00000000000E+00  0.00000000000E+00  0.45593999997E+02  0.45594000000E+02  0.51100000000E-03 0.  1.
         11   -1    0    0    0    0 -0.00000000000E+00 -0.00000000000E+00 -0.45593999997E+02  0.45594000000E+02  0.51100000000E-03 0. -1.
    9900012    2    1    2    0    0 -0.79967657472E+01  0.15571137146E+02  0.39714160565E+02  0.47787272773E+02  0.20000007881E+02 0.  0.
         12    1    1    2    0    0  0.79967657472E+01 -0.15571137146E+02 -0.39714160565E+02  0.43400727227E+02  0.00000000000E+00 0. -1.
         11    1    3    3    0    0 -0.95388239358E+01  0.78352955771E+01  0.15035679861E+02  0.19453860491E+02  0.51100000000E-03 0. -1.
        -11    1    3    3    0    0 -0.23005092308E+01  0.70082654985E+01  0.22859793308E+02  0.24020372153E+02  0.51100000000E-03 0.  1.
         12    1    3    3    0    0  0.38425674194E+01  0.72757607093E+00  0.18186873960E+01  0.43130401292E+01  0.00000000000E+00 0. -1.
</event>
<event>
 7    1  0.5417298E-010  0.4778728E+02  0.7816164E-02  0.1312668E+00
        -11   -1    0    0    0    0  0.00000000000E+00  0.00000000000E+00  0.45593999997E+02  0.45594000000E+02  0.51100000000E-03 0. -1.
         11   -1    0    0    0    0 -0.00000000000E+00 -0.00000000000E+00 -0.45593999997E+02  0.45594000000E+02  0.51100000000E-03 0.  1.
    9900012    2    1    2    0    0  0.39840500061E+02 -0.70494996821E+01 -0.15705468573E+02  0.47787278416E+02  0.20000033612E+02 0.  0.
         12    1    1    2    0    0 -0.39840500061E+02  0.70494996821E+01  0.15705468573E+02  0.43400721584E+02  0.00000000000E+00 0. -1.
         11    1    3    3    0    0  0.10489143334E+02 -0.13267551096E+01  0.30486243292E+01  0.11003477521E+02  0.51100000000E-03 0. -1.
        -11    1    3    3    0    0  0.21253733702E+02 -0.53302439019E+01 -0.80229641187E+01  0.23334537703E+02  0.51100000000E-03 0.  1.
         12    1    3    3    0    0  0.80976230256E+01 -0.39250067054E+00 -0.10731128783E+02  0.13449263192E+02  0.00000000000E+00 0. -1.
</event>
<event>
 7    1  0.5417298E-010  0.4778727E+02  0.7816164E-02  0.1312668E+00
        -11   -1    0    0    0    0  0.00000000000E+00  0.00000000000E+00  0.45593999997E+02  0.45594000000E+02  0.51100000000E-03 0. -1.
         11   -1    0    0    0    0 -0.00000000000E+00 -0.00000000000E+00 -0.45593999997E+02  0.45594000000E+02  0.51100000000E-03 0.  1.
    9900012    2    1    2    0    0 -0.79313057358E+00  0.10182506921E+02 -0.42181878033E+02  0.47787270309E+02  0.19999996648E+02 0.  0.
         12    1    1    2    0    0  0.79313057358E+00 -0.10182506921E+02  0.42181878033E+02  0.43400729691E+02  0.00000000000E+00 0. -1.
         11    1    3    3    0    0 -0.73660999191E+00 -0.10773091875E+01  0.10982248934E+01  0.17056633734E+01  0.51100000000E-03 0. -1.
        -11    1    3    3    0    0  0.30222680218E+01 -0.98594105261E+00 -0.78883800239E+01  0.85048646913E+01  0.51100000000E-03 0.  1.
         12    1    3    3    0    0 -0.30787886035E+01  0.12245757161E+02 -0.35391722902E+02  0.37576742245E+02  0.00000000000E+00 0. -1.
</event>
<event>
 7    1  0.5417298E-010  0.4778727E+02  0.7816164E-02  0.1312668E+00
        -11   -1    0    0    0    0  0.00000000000E+00  0.00000000000E+00  0.45593999997E+02  0.45594000000E+02  0.51100000000E-03 0.  1.
         11   -1    0    0    0    0 -0.00000000000E+00 -0.00000000000E+00 -0.45593999997E+02  0.45594000000E+02  0.51100000000E-03 0. -1.
    9900012    2    1    2    0    0 -0.28503877231E+02 -0.71507664694E+01  0.31937734438E+02  0.47787270060E+02  0.19999995512E+02 0.  0.
         12    1    1    2    0    0  0.28503877231E+02  0.71507664694E+01 -0.31937734438E+02  0.43400729940E+02  0.00000000000E+00 0. -1.
         11    1    3    3    0    0 -0.22834469487E+01 -0.36721902906E+01  0.57828875314E+01  0.72208655963E+01  0.51100000000E-03 0. -1.
        -11    1    3    3    0    0 -0.12778724229E+02  0.36098015059E+01  0.20350164992E+02  0.24299293720E+02  0.51100000000E-03 0.  1.
        -12    1    3    3    0    0 -0.13441706053E+02 -0.70883776847E+01  0.58046819143E+01  0.16267110743E+02  0.00000000000E+00 0.  1.
</event>
<event>
 7    1  0.5417298E-010  0.4778727E+02  0.7816164E-02  0.1312668E+00
        -11   -1    0    0    0    0  0.00000000000E+00  0.00000000000E+00  0.45593999997E+02  0.45594000000E+02  0.51100000000E-03 0.  1.
         11   -1    0    0    0    0 -0.00000000000E+00 -0.00000000000E+00 -0.45593999997E+02  0.45594000000E+02  0.51100000000E-03 0. -1.
    9900012    2    1    2    0    0 -0.10961606741E+02 -0.17594000673E+02  0.38130269992E+02  0.47787272222E+02  0.20000005368E+02 0.  0.
         12    1    1    2    0    0  0.10961606741E+02  0.17594000673E+02 -0.38130269992E+02  0.43400727778E+02  0.00000000000E+00 0. -1.
         11    1    3    3    0    0 -0.44906713620E+01 -0.45340229231E+01  0.39925250203E+01  0.75275327596E+01  0.51100000000E-03 0. -1.
        -11    1    3    3    0    0 -0.84038551307E+01 -0.91705989397E+00  0.18712666025E+02  0.20533622426E+02  0.51100000000E-03 0.  1.
        -12    1    3    3    0    0  0.19329197513E+01 -0.12142917856E+02  0.15425078946E+02  0.19726117036E+02  0.00000000000E+00 0.  1.
</event>
<event>
 7    1  0.5417298E-010  0.4778727E+02  0.7816164E-02  0.1312668E+00
        -11   -1    0    0    0    0  0.00000000000E+00  0.00000000000E+00  0.45593999997E+02  0.45594000000E+02  0.51100000000E-03 0. -1.
         11   -1    0    0    0    0 -0.00000000000E+00 -0.00000000000E+00 -0.45593999997E+02  0.45594000000E+02  0.51100000000E-03 0.  1.
    9900012    2    1    2    0    0  0.87791983027E+01  0.28160589951E+02 -0.31835991275E+02  0.47787268558E+02  0.19999988664E+02 0.  0.
         12    1    1    2    0    0 -0.87791983027E+01 -0.28160589951E+02  0.31835991275E+02  0.43400731442E+02  0.00000000000E+00 0. -1.
         11    1    3    3    0    0  0.30345577137E+01  0.52358395090E+01 -0.20146042009E+02  0.21035340852E+02  0.51100000000E-03 0.  1.
        -11    1    3    3    0    0 -0.65364467833E-01  0.86338252955E+01 -0.43499063388E+01  0.96679313798E+01  0.51100000000E-03 0. -1.
        -12    1    3    3    0    0  0.58100050568E+01  0.14290925146E+02 -0.73400429275E+01  0.17083996326E+02  0.00000000000E+00 0.  1.
</event>
<event>
 7    1  0.5417298E-010  0.4778727E+02  0.7816164E-02  0.1312668E+00
        -11   -1    0    0    0    0  0.00000000000E+00  0.00000000000E+00  0.45593999997E+02  0.45594000000E+02  0.51100000000E-03 0.  1.
         11   -1    0    0    0    0 -0.00000000000E+00 -0.00000000000E+00 -0.45593999997E+02  0.45594000000E+02  0.51100000000E-03 0. -1.
    9900012    2    1    2    0    0 -0.10787603416E+02  0.40644226656E+02 -0.10737673530E+02  0.47787272117E+02  0.20000004891E+02 0.  0.
         12    1    1    2    0    0  0.10787603416E+02 -0.40644226656E+02  0.10737673530E+02  0.43400727883E+02  0.00000000000E+00 0. -1.
         11    1    3    3    0    0 -0.29509404751E+01 -0.63681442192E+00 -0.71093628610E+00  0.31014533625E+01  0.51100000000E-03 0. -1.
        -11    1    3    3    0    0  0.22813824058E+01  0.61691174815E+01  0.67045887403E+00  0.66115226343E+01  0.51100000000E-03 0.  1.
         12    1    3    3    0    0 -0.10118045346E+02  0.35111923597E+02 -0.10697196118E+02  0.38074296120E+02  0.00000000000E+00 0. -1.
</event>
<event>
 7    1  0.5417298E-010  0.4778727E+02  0.7816164E-02  0.1312668E+00
        -11   -1    0    0    0    0  0.00000000000E+00  0.00000000000E+00  0.45593999997E+02  0.45594000000E+02  0.51100000000E-03 0.  1.
         11   -1    0    0    0    0 -0.00000000000E+00 -0.00000000000E+00 -0.45593999997E+02  0.45594000000E+02  0.51100000000E-03 0. -1.
    9900012    2    1    2    0    0  0.15234104866E+02  0.18125894555E+02  0.36373028079E+02  0.47787272171E+02  0.20000005135E+02 0.  0.
         12    1    1    2    0    0 -0.15234104866E+02 -0.18125894555E+02 -0.36373028079E+02  0.43400727829E+02  0.00000000000E+00 0. -1.
         11    1    3    3    0    0  0.39742923829E+01  0.12685916473E+01  0.88925071950E+01  0.98224746977E+01  0.51100000000E-03 0. -1.
        -11    1    3    3    0    0  0.15645854366E+02  0.13546992922E+02  0.21455789141E+02  0.29810479097E+02  0.51100000000E-03 0.  1.
         12    1    3    3    0    0 -0.43860418829E+01  0.33103099847E+01  0.60247317434E+01  0.81543183757E+01  0.00000000000E+00 0. -1.
</event>
<event>
 7    1  0.5417298E-010  0.4778727E+02  0.7816164E-02  0.1312668E+00
        -11   -1    0    0    0    0  0.00000000000E+00  0.00000000000E+00  0.45593999997E+02  0.45594000000E+02  0.51100000000E-03 0. -1.
         11   -1    0    0    0    0 -0.00000000000E+00 -0.00000000000E+00 -0.45593999997E+02  0.45594000000E+02  0.51100000000E-03 0.  1.
    9900012    2    1    2    0    0  0.34312619343E+02  0.16907632093E+02 -0.20503651665E+02  0.47787267279E+02  0.19999982831E+02 0.  0.
         12    1    1    2    0    0 -0.34312619343E+02 -0.16907632093E+02  0.20503651665E+02  0.43400732721E+02  0.00000000000E+00 0. -1.
         11    1    3    3    0    0  0.11397501811E+01  0.46646742174E+01 -0.53381977807E+01  0.71801512405E+01  0.51100000000E-03 0. -1.
        -11    1    3    3    0    0  0.12204066215E+02  0.11271302902E+02 -0.55194271730E+01  0.17505587047E+02  0.51100000000E-03 0.  1.
         12    1    3    3    0    0  0.20968802947E+02  0.97165497312E+00 -0.96460267114E+01  0.23101528991E+02  0.00000000000E+00 0. -1.
</event>
<event>
 7    1  0.5417298E-010  0.4778727E+02  0.7816164E-02  0.1312668E+00
        -11   -1    0    0    0    0  0.00000000000E+00  0.00000000000E+00  0.45593999997E+02  0.45594000000E+02  0.51100000000E-03 0. -1.
         11   -1    0    0    0    0 -0.00000000000E+00 -0.00000000000E+00 -0.45593999997E+02  0.45594000000E+02  0.51100000000E-03 0.  1.
    9900012    2    1    2    0    0 -0.93096808292E-01 -0.29745612287E+02 -0.31604009246E+02  0.47787268235E+02  0.19999987189E+02 0.  0.
         12    1    1    2    0    0  0.93096808292E-01  0.29745612287E+02  0.31604009246E+02  0.43400731765E+02  0.00000000000E+00 0. -1.
         11    1    3    3    0    0  0.25079493494E+01 -0.13401396351E+01 -0.44022249024E+01  0.52407412198E+01  0.51100000000E-03 0. -1.
        -11    1    3    3    0    0  0.11607312596E+01 -0.16480965221E+02 -0.53431488051E+01  0.17364295295E+02  0.51100000000E-03 0.  1.
         12    1    3    3    0    0 -0.37617774173E+01 -0.11924507432E+02 -0.21858635538E+02  0.25182231720E+02  0.00000000000E+00 0. -1.
</event>
<event>
 7    1  0.5417298E-010  0.4778727E+02  0.7816164E-02  0.1312668E+00
        -11   -1    0    0    0    0  0.00000000000E+00  0.00000000000E+00  0.45593999997E+02  0.45594000000E+02  0.51100000000E-03 0.  1.
         11   -1    0    0    0    0 -0.00000000000E+00 -0.00000000000E+00 -0.45593999997E+02  0.45594000000E+02  0.51100000000E-03 0. -1.
    9900012    2    1    2    0    0  0.30437387534E+02  0.25831114653E+02  0.17027688409E+02  0.47787271703E+02  0.20000003003E+02 0.  0.
         12    1    1    2    0    0 -0.30437387534E+02 -0.25831114653E+02 -0.17027688409E+02  0.43400728297E+02  0.00000000000E+00 0. -1.
         11    1    3    3    0    0  0.14452392663E+02  0.13226641478E+02  0.97697345205E+01  0.21892085587E+02  0.51100000000E-03 0. -1.
        -11    1    3    3    0    0  0.18088674819E+02  0.12125437143E+02  0.42405383182E+01  0.22185773553E+02  0.51100000000E-03 0.  1.
         12    1    3    3    0    0 -0.21036799480E+01  0.47903603209E+00  0.30174155704E+01  0.37094125637E+01  0.00000000000E+00 0. -1.
</event>
<event>
 7    1  0.5417298E-010  0.4778728E+02  0.7816164E-02  0.1312668E+00
        -11   -1    0    0    0    0  0.00000000000E+00  0.00000000000E+00  0.45593999997E+02  0.45594000000E+02  0.51100000000E-03 0.  1.
         11   -1    0    0    0    0 -0.00000000000E+00 -0.00000000000E+00 -0.45593999997E+02  0.45594000000E+02  0.51100000000E-03 0. -1.
    9900012    2    1    2    0    0  0.19382815757E+02  0.15965226457E+02  0.35398316527E+02  0.47787276327E+02  0.20000024083E+02 0.  0.
         12    1    1    2    0    0 -0.19382815757E+02 -0.15965226457E+02 -0.35398316527E+02  0.43400723673E+02  0.00000000000E+00 0. -1.
         11    1    3    3    0    0  0.12546225818E+02  0.13643226402E+02  0.18878828156E+02  0.26456673293E+02  0.51100000000E-03 0. -1.
        -11    1    3    3    0    0  0.72340831797E+01  0.31382790619E+01  0.41181265749E+01  0.88960509031E+01  0.51100000000E-03 0.  1.
         12    1    3    3    0    0 -0.39749324136E+00 -0.81627900712E+00  0.12401361796E+02  0.12434552130E+02  0.00000000000E+00 0. -1.
</event>
<event>
 7    1  0.5417298E-010  0.4778727E+02  0.7816164E-02  0.1312668E+00
        -11   -1    0    0    0    0  0.00000000000E+00  0.00000000000E+00  0.45593999997E+02  0.45594000000E+02  0.51100000000E-03 0. -1.
         11   -1    0    0    0    0 -0.00000000000E+00 -0.00000000000E+00 -0.45593999997E+02  0.45594000000E+02  0.51100000000E-03 0.  1.
    9900012    2    1    2    0    0  0.32810451712E+01  0.43107008823E+02  0.38267358087E+01  0.47787269890E+02  0.19999994738E+02 0.  0.
         12    1    1    2    0    0 -0.32810451712E+01 -0.43107008823E+02 -0.38267358087E+01  0.43400730110E+02  0.00000000000E+00 0. -1.
         11    1    3    3    0    0 -0.12259532977E+01 -0.63963743835E+00 -0.44245845790E-02  0.13827933246E+01  0.51100000000E-03 0. -1.
        -11    1    3    3    0    0  0.46758317590E+01  0.34702635387E+01  0.17235948541E+01  0.60726362602E+01  0.51100000000E-03 0.  1.
        -12    1    3    3    0    0 -0.16883329018E+00  0.40276382723E+02  0.21075655392E+01  0.40331840305E+02  0.00000000000E+00 0.  1.
</event>
<event>
 7    1  0.5417298E-010  0.4778728E+02  0.7816164E-02  0.1312668E+00
        -11   -1    0    0    0    0  0.00000000000E+00  0.00000000000E+00  0.45593999997E+02  0.45594000000E+02  0.51100000000E-03 0.  1.
         11   -1    0    0    0    0 -0.00000000000E+00 -0.00000000000E+00 -0.45593999997E+02  0.45594000000E+02  0.51100000000E-03 0. -1.
    9900012    2    1    2    0    0 -0.96082471841E+01  0.24945181757E+02  0.34191251525E+02  0.47787283558E+02  0.20000057053E+02 0.  0.
         12    1    1    2    0    0  0.96082471841E+01 -0.24945181757E+02 -0.34191251525E+02  0.43400716442E+02  0.00000000000E+00 0. -1.
         11    1    3    3    0    0 -0.31440718715E+01  0.88644182573E+01  0.22728638536E+02  0.24597847648E+02  0.51100000000E-03 0. -1.
        -11    1    3    3    0    0 -0.72696905357E+00  0.12250473627E+02  0.10639919637E+02  0.16242243633E+02  0.51100000000E-03 0.  1.
        -12    1    3    3    0    0 -0.57372062590E+01  0.38302898730E+01  0.82269335171E+00  0.69471922761E+01  0.00000000000E+00 0.  1.
</event>
<event>
 7    1  0.5417298E-010  0.4778727E+02  0.7816164E-02  0.1312668E+00
        -11   -1    0    0    0    0  0.00000000000E+00  0.00000000000E+00  0.45593999997E+02  0.45594000000E+02  0.51100000000E-03 0.  1.
         11   -1    0    0    0    0 -0.00000000000E+00 -0.00000000000E+00 -0.45593999997E+02  0.45594000000E+02  0.51100000000E-03 0. -1.
    9900012    2    1    2    0    0  0.15130434865E+02 -0.19475512990E+01  0.40631273643E+02  0.47787269440E+02  0.19999992685E+02 0.  0.
         12    1    1    2    0    0 -0.15130434865E+02  0.19475512990E+01 -0.40631273643E+02  0.43400730560E+02  0.00000000000E+00 0. -1.
         11    1    3    3    0    0  0.10277691239E+02 -0.54977448812E+01  0.34042807608E+02  0.35982897133E+02  0.51100000000E-03 0. -1.
        -11    1    3    3    0    0  0.50801280947E+01  0.49318122627E-01  0.65584561556E+01  0.82959918721E+01  0.51100000000E-03 0.  1.
         12    1    3    3    0    0 -0.22738446834E+00  0.35008754596E+01  0.30009879025E-01  0.35083804345E+01  0.00000000000E+00 0. -1.
</event>
<event>
 7    1  0.5417298E-010  0.4778727E+02  0.7816164E-02  0.1312668E+00
        -11   -1    0    0    0    0  0.00000000000E+00  0.00000000000E+00  0.45593999997E+02  0.45594000000E+02  0.51100000000E-03 0.  1.
         11   -1    0    0    0    0 -0.00000000000E+00 -0.00000000000E+00 -0.45593999997E+02  0.45594000000E+02  0.51100000000E-03 0. -1.
    9900012    2    1    2    0    0 -0.37614442230E+02  0.21642266508E+02 -0.62396728464E+00  0.47787270754E+02  0.19999998678E+02 0.  0.
         12    1    1    2    0    0  0.37614442230E+02 -0.21642266508E+02  0.62396728464E+00  0.43400729246E+02  0.00000000000E+00 0. -1.
         11    1    3    3    0    0 -0.16285111917E+01  0.30608446230E+01 -0.45792641274E+01  0.57437338655E+01  0.51100000000E-03 0. -1.
        -11    1    3    3    0    0 -0.11558846231E+02  0.38715480146E+01 -0.32841243665E+01  0.12624630028E+02  0.51100000000E-03 0.  1.
        -12    1    3    3    0    0 -0.24427084807E+02  0.14709873871E+02  0.72394212092E+01  0.29418906861E+02  0.00000000000E+00 0.  1.
</event>
<event>
 7    1  0.5417298E-010  0.4778727E+02  0.7816164E-02  0.1312668E+00
        -11   -1    0    0    0    0  0.00000000000E+00  0.00000000000E+00  0.45593999997E+02  0.45594000000E+02  0.51100000000E-03 0.  1.
         11   -1    0    0    0    0 -0.00000000000E+00 -0.00000000000E+00 -0.45593999997E+02  0.45594000000E+02  0.51100000000E-03 0. -1.
    9900012    2    1    2    0    0  0.20490799888E+02  0.65409573194E+01  0.37695704243E+02  0.47787272805E+02  0.20000008025E+02 0.  0.
         12    1    1    2    0    0 -0.20490799888E+02 -0.65409573194E+01 -0.37695704243E+02  0.43400727195E+02  0.00000000000E+00 0. -1.
         11    1    3    3    0    0 -0.29133041649E+01  0.18859614025E+01  0.26779567373E+01  0.43835652290E+01  0.51100000000E-03 0. -1.
        -11    1    3    3    0    0  0.30023383228E+00  0.51248466300E-01  0.60868141543E+01  0.60944297165E+01  0.51100000000E-03 0.  1.
        -12    1    3    3    0    0  0.23103870221E+02  0.46037474506E+01  0.28930933351E+02  0.37309277859E+02  0.00000000000E+00 0.  1.
</event>
<event>
 7    1  0.5417298E-010  0.4778728E+02  0.7816164E-02  0.1312668E+00
        -11   -1    0    0    0    0  0.00000000000E+00  0.00000000000E+00  0.45593999997E+02  0.45594000000E+02  0.51100000000E-03 0. -1.
         11   -1    0    0    0    0 -0.00000000000E+00 -0.00000000000E+00 -0.45593999997E+02  0.45594000000E+02  0.51100000000E-03 0.  1.
    9900012    2    1    2    0    0 -0.42234067794E+02  0.95203591956E+01  0.30445203281E+01  0.47787276208E+02  0.20000023544E+02 0.  0.
         12    1    1    2    0    0  0.42234067794E+02 -0.95203591956E+01 -0.30445203281E+01  0.43400723792E+02  0.00000000000E+00 0. -1.
         11    1    3    3    0    0 -0.35024228129E+01  0.15909355559E+01  0.40712000709E+01  0.56011348655E+01  0.51100000000E-03 0. -1.
        -11    1    3    3    0    0 -0.19041475533E+02  0.10749132448E+01  0.63026476005E+01  0.20086229014E+02  0.51100000000E-03 0.  1.
         12    1    3    3    0    0 -0.19690169448E+02  0.68545103949E+01 -0.73293273434E+01  0.22099912329E+02  0.00000000000E+00 0. -1.
</event>
<event>
 7    1  0.5417298E-010  0.4778727E+02  0.7816164E-02  0.1312668E+00
        -11   -1    0    0    0    0  0.00000000000E+00  0.00000000000E+00  0.45593999997E+02  0.45594000000E+02  0.51100000000E-03 0.  1.
         11   -1    0    0    0    0 -0.00000000000E+00 -0.00000000000E+00 -0.45593999997E+02  0.45594000000E+02  0.51100000000E-03 0. -1.
    9900012    2    1    2    0    0 -0.19901616660E+02  0.38477777288E+02  0.26475674771E+01  0.47787270694E+02  0.19999998403E+02 0.  0.
         12    1    1    2    0    0  0.19901616660E+02 -0.38477777288E+02 -0.26475674771E+01  0.43400729306E+02  0.00000000000E+00 0. -1.
         11    1    3    3    0    0 -0.20829570367E+01  0.12466086125E+02 -0.57157726253E+00  0.12651826513E+02  0.51100000000E-03 0. -1.
        -11    1    3    3    0    0 -0.99605487047E+01  0.23858066461E+02  0.59728972268E+01  0.26534795407E+02  0.51100000000E-03 0.  1.
        -12    1    3    3    0    0 -0.78581109191E+01  0.21536247028E+01 -0.27537524872E+01  0.86006487742E+01  0.00000000000E+00 0.  1.
</event>
<event>
 7    1  0.5417298E-010  0.4778727E+02  0.7816164E-02  0.1312668E+00
        -11   -1    0    0    0    0  0.00000000000E+00  0.00000000000E+00  0.45593999997E+02  0.45594000000E+02  0.51100000000E-03 0. -1.
         11   -1    0    0    0    0 -0.00000000000E+00 -0.00000000000E+00 -0.45593999997E+02  0.45594000000E+02  0.51100000000E-03 0.  1.
    9900012    2    1    2    0    0 -0.15764321279E+02 -0.38715845330E+02  0.11670184473E+02  0.47787266013E+02  0.19999977059E+02 0.  0.
         12    1    1    2    0    0  0.15764321279E+02  0.38715845330E+02 -0.11670184473E+02  0.43400733987E+02  0.00000000000E+00 0. -1.
         11    1    3    3    0    0 -0.32490443502E+01 -0.36819618009E+01  0.87852505136E+01  0.10064480053E+02  0.51100000000E-03 0. -1.
        -11    1    3    3    0    0 -0.62274432040E+01 -0.12849794628E+02  0.33221360917E+01  0.14660656851E+02  0.51100000000E-03 0.  1.
        -12    1    3    3    0    0 -0.62878337248E+01 -0.22184088901E+02 -0.43720213220E+00  0.23062129109E+02  0.00000000000E+00 0.  1.
</event>
<event>
 7    1  0.5417298E-010  0.4778734E+02  0.7816164E-02  0.1312667E+00
        -11   -1    0    0    0    0  0.00000000000E+00  0.00000000000E+00  0.45593999997E+02  0.45594000000E+02  0.51100000000E-03 0. -1.
         11   -1    0    0    0    0 -0.00000000000E+00 -0.00000000000E+00 -0.45593999997E+02  0.45594000000E+02  0.51100000000E-03 0.  1.
    9900012    2    1    2    0    0  0.28063621045E+02  0.23109872022E+02 -0.23706213816E+02  0.47787336589E+02  0.20000298842E+02 0.  0.
         12    1    1    2    0    0 -0.28063621045E+02 -0.23109872022E+02  0.23706213816E+02  0.43400663411E+02  0.00000000000E+00 0. -1.
         11    1    3    3    0    0  0.27599722492E+01  0.77425024538E+01 -0.50673993341E+01  0.96562066742E+01  0.51100000000E-03 0. -1.
        -11    1    3    3    0    0  0.17004535200E+02  0.16448827188E+02 -0.18019047617E+02  0.29738934253E+02  0.51100000000E-03 0.  1.
         12    1    3    3    0    0  0.82991135958E+01 -0.10814576198E+01 -0.61976686484E+00  0.83921956618E+01  0.00000000000E+00 0. -1.
</event>
<event>
 7    1  0.5417298E-010  0.4778727E+02  0.7816164E-02  0.1312668E+00
        -11   -1    0    0    0    0  0.00000000000E+00  0.00000000000E+00  0.45593999997E+02  0.45594000000E+02  0.51100000000E-03 0. -1.
         11   -1    0    0    0    0 -0.00000000000E+00 -0.00000000000E+00 -0.45593999997E+02  0.45594000000E+02  0.51100000000E-03 0.  1.
    9900012    2    1    2    0    0 -0.15173199009E+02  0.37805726488E+02 -0.14970784574E+02  0.47787270579E+02  0.19999997879E+02 0.  0.
         12    1    1    2    0    0  0.15173199009E+02 -0.37805726488E+02  0.14970784574E+02  0.43400729421E+02  0.00000000000E+00 0. -1.
         11    1    3    3    0    0 -0.64243405961E+01  0.16309083166E+02  0.33330506918E+01  0.17842857759E+02  0.51100000000E-03 0. -1.
        -11    1    3    3    0    0 -0.13585576653E+01  0.18027730586E+01 -0.37098843636E+01  0.43426848704E+01  0.51100000000E-03 0.  1.
         12    1    3    3    0    0 -0.73903007474E+01  0.19693870264E+02 -0.14593950902E+02  0.25601727950E+02  0.00000000000E+00 0. -1.
</event>
<event>
 7    1  0.5417298E-010  0.4778727E+02  0.7816164E-02  0.1312668E+00
        -11   -1    0    0    0    0  0.00000000000E+00  0.00000000000E+00  0.45593999997E+02  0.45594000000E+02  0.51100000000E-03 0. -1.
         11   -1    0    0    0    0 -0.00000000000E+00 -0.00000000000E+00 -0.45593999997E+02  0.45594000000E+02  0.51100000000E-03 0.  1.
    9900012    2    1    2    0    0  0.30143982773E+02  0.37585242447E+01 -0.30997378496E+02  0.47787266417E+02  0.19999978903E+02 0.  0.
         12    1    1    2    0    0 -0.30143982773E+02 -0.37585242447E+01  0.30997378496E+02  0.43400733583E+02  0.00000000000E+00 0. -1.
         11    1    3    3    0    0  0.12073356508E+02  0.47572703288E+01 -0.66851137503E+01  0.14597544467E+02  0.51100000000E-03 0. -1.
        -11    1    3    3    0    0  0.24178529863E+01  0.49972642290E-01  0.15991580253E+01  0.28992786999E+01  0.51100000000E-03 0.  1.
        -12    1    3    3    0    0  0.15652773278E+02 -0.10487187264E+01 -0.25911422771E+02  0.30290443250E+02  0.00000000000E+00 0.  1.
</event>
<event>
 7    1  0.5417298E-010  0.4778727E+02  0.7816164E-02  0.1312668E+00
        -11   -1    0    0    0    0  0.00000000000E+00  0.00000000000E+00  0.45593999997E+02  0.45594000000E+02  0.51100000000E-03 0.  1.
         11   -1    0    0    0    0 -0.00000000000E+00 -0.00000000000E+00 -0.45593999997E+02  0.45594000000E+02  0.51100000000E-03 0. -1.
    9900012    2    1    2    0    0  0.19904664029E+02  0.28314609185E+02  0.26186074014E+02  0.47787271715E+02  0.20000003057E+02 0.  0.
         12    1    1    2    0    0 -0.19904664029E+02 -0.28314609185E+02 -0.26186074014E+02  0.43400728285E+02  0.00000000000E+00 0. -1.
         11    1    3    3    0    0 -0.11270679379E+01  0.76885469219E+01  0.11748632063E+01  0.78590291844E+01  0.51100000000E-03 0. -1.
        -11    1    3    3    0    0 -0.49122944933E+00 -0.22593240221E+00 -0.37130868256E+00  0.65591327256E+00  0.51100000000E-03 0.  1.
        -12    1    3    3    0    0  0.21522961416E+02  0.20851994665E+02  0.25382519491E+02  0.39272329258E+02  0.00000000000E+00 0.  1.
</event>
<event>
 7    1  0.5417298E-010  0.4778727E+02  0.7816164E-02  0.1312668E+00
        -11   -1    0    0    0    0  0.00000000000E+00  0.00000000000E+00  0.45593999997E+02  0.45594000000E+02  0.51100000000E-03 0.  1.
         11   -1    0    0    0    0 -0.00000000000E+00 -0.00000000000E+00 -0.45593999997E+02  0.45594000000E+02  0.51100000000E-03 0. -1.
    9900012    2    1    2    0    0 -0.19897532256E+02 -0.30595921969E+02  0.23486189061E+02  0.47787270656E+02  0.19999998227E+02 0.  0.
         12    1    1    2    0    0  0.19897532256E+02  0.30595921969E+02 -0.23486189061E+02  0.43400729344E+02  0.00000000000E+00 0. -1.
         11    1    3    3    0    0  0.32610292095E+01 -0.37270345748E+01  0.29169408629E+01  0.57474901031E+01  0.51100000000E-03 0. -1.
        -11    1    3    3    0    0 -0.60049312574E+01 -0.80122876372E+01  0.13254942610E+01  0.10100142964E+02  0.51100000000E-03 0.  1.
        -12    1    3    3    0    0 -0.17153630208E+02 -0.18856599757E+02  0.19243753937E+02  0.31939637589E+02  0.00000000000E+00 0.  1.
</event>
<event>
 7    1  0.5417298E-010  0.4778726E+02  0.7816164E-02  0.1312668E+00
        -11   -1    0    0    0    0  0.00000000000E+00  0.00000000000E+00  0.45593999997E+02  0.45594000000E+02  0.51100000000E-03 0.  1.
         11   -1    0    0    0    0 -0.00000000000E+00 -0.00000000000E+00 -0.45593999997E+02  0.45594000000E+02  0.51100000000E-03 0. -1.
    9900012    2    1    2    0    0  0.10350610791E+02  0.24315021225E+02  0.34427729786E+02  0.47787262919E+02  0.19999962953E+02 0.  0.
         12    1    1    2    0    0 -0.10350610791E+02 -0.24315021225E+02 -0.34427729786E+02  0.43400737081E+02  0.00000000000E+00 0. -1.
         11    1    3    3    0    0  0.65561166015E+01  0.15797257637E+02  0.17079867768E+02  0.24171427285E+02  0.51100000000E-03 0. -1.
        -11    1    3    3    0    0 -0.23780727843E+01  0.76275300442E+01  0.41151030873E+01  0.89871307114E+01  0.51100000000E-03 0.  1.
        -12    1    3    3    0    0  0.61725669741E+01  0.89023354439E+00  0.13232758930E+02  0.14628704923E+02  0.00000000000E+00 0.  1.
</event>
<event>
 7    1  0.5417298E-010  0.4778726E+02  0.7816164E-02  0.1312668E+00
        -11   -1    0    0    0    0  0.00000000000E+00  0.00000000000E+00  0.45593999997E+02  0.45594000000E+02  0.51100000000E-03 0.  1.
         11   -1    0    0    0    0 -0.00000000000E+00 -0.00000000000E+00 -0.45593999997E+02  0.45594000000E+02  0.51100000000E-03 0. -1.
    9900012    2    1    2    0    0 -0.33049090172E+02  0.27998593834E+02  0.27313553361E+01  0.47787263602E+02  0.19999966067E+02 0.  0.
         12    1    1    2    0    0  0.33049090172E+02 -0.27998593834E+02 -0.27313553361E+01  0.43400736398E+02  0.00000000000E+00 0. -1.
         11    1    3    3    0    0 -0.13043320740E+02  0.79915919188E+01 -0.94883837755E+00  0.15326253679E+02  0.51100000000E-03 0. -1.
        -11    1    3    3    0    0 -0.19079530416E+02  0.88098861002E+01  0.25237103693E+01  0.21166286596E+02  0.51100000000E-03 0.  1.
         12    1    3    3    0    0 -0.92623901717E+00  0.11197115815E+02  0.11564833444E+01  0.11294723326E+02  0.00000000000E+00 0. -1.
</event>
<event>
 7    1  0.5417298E-010  0.4778727E+02  0.7816164E-02  0.1312668E+00
        -11   -1    0    0    0    0  0.00000000000E+00  0.00000000000E+00  0.45593999997E+02  0.45594000000E+02  0.51100000000E-03 0.  1.
         11   -1    0    0    0    0 -0.00000000000E+00 -0.00000000000E+00 -0.45593999997E+02  0.45594000000E+02  0.51100000000E-03 0. -1.
    9900012    2    1    2    0    0 -0.38736161149E+02 -0.17399350535E+02 -0.89663514560E+01  0.47787273762E+02  0.20000012389E+02 0.  0.
         12    1    1    2    0    0  0.38736161149E+02  0.17399350535E+02  0.89663514560E+01  0.43400726238E+02  0.00000000000E+00 0. -1.
         11    1    3    3    0    0 -0.37365818504E+01  0.12770138819E+01 -0.37115337129E+01  0.54192518987E+01  0.51100000000E-03 0. -1.
        -11    1    3    3    0    0 -0.54925110119E+01 -0.80725623618E+01 -0.50944704461E+01  0.11013063592E+02  0.51100000000E-03 0.  1.
        -12    1    3    3    0    0 -0.29507068287E+02 -0.10603802055E+02 -0.16034729701E+00  0.31354958271E+02  0.00000000000E+00 0.  1.
</event>
<event>
 7    1  0.5417298E-010  0.4778727E+02  0.7816164E-02  0.1312668E+00
        -11   -1    0    0    0    0  0.00000000000E+00  0.00000000000E+00  0.45593999997E+02  0.45594000000E+02  0.51100000000E-03 0.  1.
         11   -1    0    0    0    0 -0.00000000000E+00 -0.00000000000E+00 -0.45593999997E+02  0.45594000000E+02  0.51100000000E-03 0. -1.
    9900012    2    1    2    0    0 -0.41171914884E+02  0.27601657220E+01 -0.13449109570E+02  0.47787266847E+02  0.19999980860E+02 0.  0.
         12    1    1    2    0    0  0.41171914884E+02 -0.27601657220E+01  0.13449109570E+02  0.43400733153E+02  0.00000000000E+00 0. -1.
         11    1    3    3    0    0 -0.56981410652E+01 -0.63154744682E+00 -0.73243642649E+01  0.93012889387E+01  0.51100000000E-03 0. -1.
        -11    1    3    3    0    0 -0.17247627271E+01 -0.26938279809E+01 -0.23838250220E+01  0.39892527687E+01  0.51100000000E-03 0.  1.
        -12    1    3    3    0    0 -0.33749011092E+02  0.60855411497E+01 -0.37409202829E+01  0.34496725139E+02  0.00000000000E+00 0.  1.
</event>
<event>
 7    1  0.5417298E-010  0.4778726E+02  0.7816164E-02  0.1312668E+00
        -11   -1    0    0    0    0  0.00000000000E+00  0.00000000000E+00  0.45593999997E+02  0.45594000000E+02  0.51100000000E-03 0.  1.
         11   -1    0    0    0    0 -0.00000000000E+00 -0.00000000000E+00 -0.45593999997E+02  0.45594000000E+02  0.51100000000E-03 0. -1.
    9900012    2    1    2    0    0 -0.31642874363E+02  0.29692461688E+02 -0.84280840173E+00  0.47787261469E+02  0.19999956343E+02 0.  0.
         12    1    1    2    0    0  0.31642874363E+02 -0.29692461688E+02  0.84280840173E+00  0.43400738531E+02  0.00000000000E+00 0. -1.
         11    1    3    3    0    0 -0.11468662481E+02  0.11947389816E+02 -0.76330471033E+01  0.18235507968E+02  0.51100000000E-03 0. -1.
        -11    1    3    3    0    0 -0.19369739057E+02  0.13710707511E+02  0.29317615099E+01  0.23911618878E+02  0.51100000000E-03 0.  1.
         12    1    3    3    0    0 -0.80447282530E+00  0.40343643614E+01  0.38584771917E+01  0.56401346230E+01  0.00000000000E+00 0. -1.
</event>
<event>
 7    1  0.5417298E-010  0.4778727E+02  0.7816164E-02  0.1312668E+00
        -11   -1    0    0    0    0  0.00000000000E+00  0.00000000000E+00  0.45593999997E+02  0.45594000000E+02  0.51100000000E-03 0.  1.
         11   -1    0    0    0    0 -0.00000000000E+00 -0.00000000000E+00 -0.45593999997E+02  0.45594000000E+02  0.51100000000E-03 0. -1.
    9900012    2    1    2    0    0 -0.28147718429E+02  0.31056385342E+02  0.11261881413E+02  0.47787273091E+02  0.20000009331E+02 0.  0.
         12    1    1    2    0    0  0.28147718429E+02 -0.31056385342E+02 -0.11261881413E+02  0.43400726909E+02  0.00000000000E+00 0. -1.
         11    1    3    3    0    0 -0.29436281276E+01  0.10313627871E+02  0.41003203368E+01  0.11482529928E+02  0.51100000000E-03 0. -1.
        -11    1    3    3    0    0 -0.12684946843E+02  0.18925050338E+02  0.62332904387E+01  0.23620315762E+02  0.51100000000E-03 0.  1.
        -12    1    3    3    0    0 -0.12519143458E+02  0.18177071332E+01  0.92827063713E+00  0.12684427402E+02  0.00000000000E+00 0.  1.
</event>
<event>
 7    1  0.5417298E-010  0.4778727E+02  0.7816164E-02  0.1312668E+00
        -11   -1    0    0    0    0  0.00000000000E+00  0.00000000000E+00  0.45593999997E+02  0.45594000000E+02  0.51100000000E-03 0. -1.
         11   -1    0    0    0    0 -0.00000000000E+00 -0.00000000000E+00 -0.45593999997E+02  0.45594000000E+02  0.51100000000E-03 0.  1.
    9900012    2    1    2    0    0 -0.24798405655E+02  0.34754800489E+02  0.77952549955E+01  0.47787273272E+02  0.20000010156E+02 0.  0.
         12    1    1    2    0    0  0.24798405655E+02 -0.34754800489E+02 -0.77952549955E+01  0.43400726728E+02  0.00000000000E+00 0. -1.
         11    1    3    3    0    0 -0.22355397290E+02  0.18001177486E+02  0.26160737504E+01  0.28820999653E+02  0.51100000000E-03 0. -1.
        -11    1    3    3    0    0 -0.19002217770E+01  0.18045209802E+01 -0.96789301647E+00  0.27935561426E+01  0.51100000000E-03 0.  1.
        -12    1    3    3    0    0 -0.54278658814E+00  0.14949102024E+02  0.61470742616E+01  0.16172717476E+02  0.00000000000E+00 0.  1.
</event>
<event>
 7    1  0.5417298E-010  0.4778727E+02  0.7816164E-02  0.1312668E+00
        -11   -1    0    0    0    0  0.00000000000E+00  0.00000000000E+00  0.45593999997E+02  0.45594000000E+02  0.51100000000E-03 0.  1.
         11   -1    0    0    0    0 -0.00000000000E+00 -0.00000000000E+00 -0.45593999997E+02  0.45594000000E+02  0.51100000000E-03 0. -1.
    9900012    2    1    2    0    0  0.32259140509E+02  0.10854115248E+02  0.26928784595E+02  0.47787269546E+02  0.19999993168E+02 0.  0.
         12    1    1    2    0    0 -0.32259140509E+02 -0.10854115248E+02 -0.26928784595E+02  0.43400730454E+02  0.00000000000E+00 0. -1.
         11    1    3    3    0    0  0.14999245078E+02  0.83097090615E+01  0.35192502530E+01  0.17504677666E+02  0.51100000000E-03 0. -1.
        -11    1    3    3    0    0  0.93309611526E+01  0.53754514716E+01  0.12409796540E+02  0.16430622781E+02  0.51100000000E-03 0.  1.
        -12    1    3    3    0    0  0.79289342783E+01 -0.28310452848E+01  0.10999737802E+02  0.13851969099E+02  0.00000000000E+00 0.  1.
</event>
<event>
 7    1  0.5417298E-010  0.4778729E+02  0.7816164E-02  0.1312668E+00
        -11   -1    0    0    0    0  0.00000000000E+00  0.00000000000E+00  0.45593999997E+02  0.45594000000E+02  0.51100000000E-03 0.  1.
         11   -1    0    0    0    0 -0.00000000000E+00 -0.00000000000E+00 -0.45593999997E+02  0.45594000000E+02  0.51100000000E-03 0. -1.
    9900012    2    1    2    0    0  0.97684497274E+01  0.14560715000E+01  0.42262031184E+02  0.47787285328E+02  0.20000065124E+02 0.  0.
         12    1    1    2    0    0 -0.97684497274E+01 -0.14560715000E+01 -0.42262031184E+02  0.43400714672E+02  0.00000000000E+00 0. -1.
         11    1    3    3    0    0  0.80290807943E+01  0.15603246670E+01  0.84985844546E+01  0.11795197729E+02  0.51100000000E-03 0. -1.
        -11    1    3    3    0    0  0.13081819487E+01  0.17307835748E+00  0.34805627683E+02  0.34830633282E+02  0.51100000000E-03 0.  1.
        -12    1    3    3    0    0  0.43118698438E+00 -0.27733152451E+00 -0.10421809541E+01  0.11614543173E+01  0.00000000000E+00 0.  1.
</event>
<event>
 7    1  0.5417298E-010  0.4778727E+02  0.7816164E-02  0.1312668E+00
        -11   -1    0    0    0    0  0.00000000000E+00  0.00000000000E+00  0.45593999997E+02  0.45594000000E+02  0.51100000000E-03 0.  1.
         11   -1    0    0    0    0 -0.00000000000E+00 -0.00000000000E+00 -0.45593999997E+02  0.45594000000E+02  0.51100000000E-03 0. -1.
    9900012    2    1    2    0    0 -0.79229510207E+01 -0.32447079654E+02  0.27713482175E+02  0.47787271605E+02  0.20000002557E+02 0.  0.
         12    1    1    2    0    0  0.79229510207E+01  0.32447079654E+02 -0.27713482175E+02  0.43400728395E+02  0.00000000000E+00 0. -1.
         11    1    3    3    0    0 -0.33642729956E+01 -0.25396786052E+01  0.98159114475E+01  0.10682715854E+02  0.51100000000E-03 0.  1.
        -11    1    3    3    0    0  0.35610483324E+01 -0.11668432363E+02  0.94253821018E+01  0.15416588697E+02  0.51100000000E-03 0. -1.
         12    1    3    3    0    0 -0.81197263576E+01 -0.18238968685E+02  0.84721886257E+01  0.21687967054E+02  0.00000000000E+00 0. -1.
</event>
<event>
 7    1  0.5417298E-010  0.4778727E+02  0.7816164E-02  0.1312668E+00
        -11   -1    0    0    0    0  0.00000000000E+00  0.00000000000E+00  0.45593999997E+02  0.45594000000E+02  0.51100000000E-03 0. -1.
         11   -1    0    0    0    0 -0.00000000000E+00 -0.00000000000E+00 -0.45593999997E+02  0.45594000000E+02  0.51100000000E-03 0.  1.
    9900012    2    1    2    0    0  0.25563525771E+02 -0.83300756563E+01 -0.34069622393E+02  0.47787272123E+02  0.20000004916E+02 0.  0.
         12    1    1    2    0    0 -0.25563525771E+02  0.83300756563E+01  0.34069622393E+02  0.43400727877E+02  0.00000000000E+00 0. -1.
         11    1    3    3    0    0  0.92193289798E+00  0.28698628003E+01 -0.17119807184E+01  0.34665474182E+01  0.51100000000E-03 0. -1.
        -11    1    3    3    0    0  0.42377428096E+01 -0.87641352811E+01 -0.10716685244E+02  0.14478117081E+02  0.51100000000E-03 0.  1.
        -12    1    3    3    0    0  0.20403850063E+02 -0.24358031754E+01 -0.21640956431E+02  0.29842607623E+02  0.00000000000E+00 0.  1.
</event>
<event>
 7    1  0.5417298E-010  0.4778727E+02  0.7816164E-02  0.1312668E+00
        -11   -1    0    0    0    0  0.00000000000E+00  0.00000000000E+00  0.45593999997E+02  0.45594000000E+02  0.51100000000E-03 0. -1.
         11   -1    0    0    0    0 -0.00000000000E+00 -0.00000000000E+00 -0.45593999997E+02  0.45594000000E+02  0.51100000000E-03 0.  1.
    9900012    2    1    2    0    0 -0.39794440747E+02  0.31101024031E+01  0.17039750277E+02  0.47787270273E+02  0.19999996482E+02 0.  0.
         12    1    1    2    0    0  0.39794440747E+02 -0.31101024031E+01 -0.17039750277E+02  0.43400729727E+02  0.00000000000E+00 0. -1.
         11    1    3    3    0    0 -0.12388250850E+02  0.47874799464E+00  0.11973217536E+02  0.17235309605E+02  0.51100000000E-03 0. -1.
        -11    1    3    3    0    0 -0.10186069133E+02  0.53258269228E+01  0.62472260327E+01  0.13082364853E+02  0.51100000000E-03 0.  1.
        -12    1    3    3    0    0 -0.17220120764E+02 -0.26944725143E+01 -0.11806932910E+01  0.17469595814E+02  0.00000000000E+00 0.  1.
</event>
<event>
 7    1  0.5417298E-010  0.4778727E+02  0.7816164E-02  0.1312668E+00
        -11   -1    0    0    0    0  0.00000000000E+00  0.00000000000E+00  0.45593999997E+02  0.45594000000E+02  0.51100000000E-03 0. -1.
         11   -1    0    0    0    0 -0.00000000000E+00 -0.00000000000E+00 -0.45593999997E+02  0.45594000000E+02  0.51100000000E-03 0.  1.
    9900012    2    1    2    0    0  0.25256160185E+02 -0.28550100914E+02 -0.20751897802E+02  0.47787272450E+02  0.20000006409E+02 0.  0.
         12    1    1    2    0    0 -0.25256160185E+02  0.28550100914E+02  0.20751897802E+02  0.43400727550E+02  0.00000000000E+00 0. -1.
         11    1    3    3    0    0  0.35081529474E+00 -0.51295980510E+01  0.13650827634E+01  0.53197085210E+01  0.51100000000E-03 0. -1.
        -11    1    3    3    0    0  0.12322260602E+02 -0.19478468780E+02 -0.13407741588E+02  0.26664890533E+02  0.51100000000E-03 0.  1.
        -12    1    3    3    0    0  0.12583084288E+02 -0.39420340827E+01 -0.87092389772E+01  0.15802673396E+02  0.00000000000E+00 0.  1.
</event>
<event>
 7    1  0.5417298E-010  0.4778727E+02  0.7816164E-02  0.1312668E+00
        -11   -1    0    0    0    0  0.00000000000E+00  0.00000000000E+00  0.45593999997E+02  0.45594000000E+02  0.51100000000E-03 0. -1.
         11   -1    0    0    0    0 -0.00000000000E+00 -0.00000000000E+00 -0.45593999997E+02  0.45594000000E+02  0.51100000000E-03 0.  1.
    9900012    2    1    2    0    0  0.40486901871E+02  0.92444698887E+01 -0.12608481246E+02  0.47787271366E+02  0.20000001466E+02 0.  0.
         12    1    1    2    0    0 -0.40486901871E+02 -0.92444698887E+01  0.12608481246E+02  0.43400728634E+02  0.00000000000E+00 0. -1.
         11    1    3    3    0    0  0.23427240000E+02 -0.95893494190E+00 -0.11923865778E+02  0.26304632779E+02  0.51100000000E-03 0. -1.
        -11    1    3    3    0    0  0.57856448741E+01  0.35348912959E+00 -0.26681250189E+01  0.63810291138E+01  0.51100000000E-03 0.  1.
        -12    1    3    3    0    0  0.11274016996E+02  0.98499157010E+01  0.19835095505E+01  0.15101609474E+02  0.00000000000E+00 0.  1.
</event>
<event>
 7    1  0.5417298E-010  0.4778727E+02  0.7816164E-02  0.1312668E+00
        -11   -1    0    0    0    0  0.00000000000E+00  0.00000000000E+00  0.45593999997E+02  0.45594000000E+02  0.51100000000E-03 0.  1.
         11   -1    0    0    0    0 -0.00000000000E+00 -0.00000000000E+00 -0.45593999997E+02  0.45594000000E+02  0.51100000000E-03 0. -1.
    9900012    2    1    2    0    0  0.34482245261E+02  0.24643961817E+02  0.93420115429E+01  0.47787271066E+02  0.20000000099E+02 0.  0.
         12    1    1    2    0    0 -0.34482245261E+02 -0.24643961817E+02 -0.93420115429E+01  0.43400728934E+02  0.00000000000E+00 0. -1.
         11    1    3    3    0    0  0.50420493298E+01  0.68398974302E+00  0.60186778703E+01  0.78812807957E+01  0.51100000000E-03 0. -1.
        -11    1    3    3    0    0 -0.63399318850E+00  0.25300637405E+01  0.13203278572E+01  0.29234287756E+01  0.51100000000E-03 0.  1.
        -12    1    3    3    0    0  0.30074189120E+02  0.21429908334E+02  0.20030058153E+01  0.36982561495E+02  0.00000000000E+00 0.  1.
</event>
<event>
 7    1  0.5417298E-010  0.4778727E+02  0.7816164E-02  0.1312668E+00
        -11   -1    0    0    0    0  0.00000000000E+00  0.00000000000E+00  0.45593999997E+02  0.45594000000E+02  0.51100000000E-03 0. -1.
         11   -1    0    0    0    0 -0.00000000000E+00 -0.00000000000E+00 -0.45593999997E+02  0.45594000000E+02  0.51100000000E-03 0.  1.
    9900012    2    1    2    0    0  0.25414669899E+00 -0.43358905185E+02 -0.18879368033E+01  0.47787267808E+02  0.19999985245E+02 0.  0.
         12    1    1    2    0    0 -0.25414669899E+00  0.43358905185E+02  0.18879368033E+01  0.43400732192E+02  0.00000000000E+00 0. -1.
         11    1    3    3    0    0 -0.14163665419E+01  0.72711543707E+00 -0.16756072258E+01  0.23113742397E+01  0.51100000000E-03 0.  1.
        -11    1    3    3    0    0 -0.19899230210E+01 -0.31891191444E+01  0.21808092287E+01  0.43458260089E+01  0.51100000000E-03 0. -1.
        -12    1    3    3    0    0  0.36604362618E+01 -0.40896901478E+02 -0.23931388062E+01  0.41130067560E+02  0.00000000000E+00 0.  1.
</event>
<event>
 7    1  0.5417298E-010  0.4778727E+02  0.7816164E-02  0.1312668E+00
        -11   -1    0    0    0    0  0.00000000000E+00  0.00000000000E+00  0.45593999997E+02  0.45594000000E+02  0.51100000000E-03 0. -1.
         11   -1    0    0    0    0 -0.00000000000E+00 -0.00000000000E+00 -0.45593999997E+02  0.45594000000E+02  0.51100000000E-03 0.  1.
    9900012    2    1    2    0    0  0.37939136165E+02 -0.92749734714E+00 -0.21056707460E+02  0.47787271511E+02  0.20000002129E+02 0.  0.
         12    1    1    2    0    0 -0.37939136165E+02  0.92749734714E+00  0.21056707460E+02  0.43400728489E+02  0.00000000000E+00 0. -1.
         11    1    3    3    0    0  0.20364982019E+02 -0.75121044329E-01 -0.38177829290E+01  0.20719884231E+02  0.51100000000E-03 0. -1.
        -11    1    3    3    0    0  0.18248975542E+02 -0.16104916440E+01 -0.12396988355E+02  0.22120219533E+02  0.51100000000E-03 0.  1.
         12    1    3    3    0    0 -0.67482139533E+00  0.75811534121E+00 -0.48419361755E+01  0.49471677467E+01  0.00000000000E+00 0. -1.
</event>
<event>
 7    1  0.5417298E-010  0.4778727E+02  0.7816164E-02  0.1312668E+00
        -11   -1    0    0    0    0  0.00000000000E+00  0.00000000000E+00  0.45593999997E+02  0.45594000000E+02  0.51100000000E-03 0. -1.
         11   -1    0    0    0    0 -0.00000000000E+00 -0.00000000000E+00 -0.45593999997E+02  0.45594000000E+02  0.51100000000E-03 0.  1.
    9900012    2    1    2    0    0 -0.36669759080E+02  0.11282105082E+02  0.20289553510E+02  0.47787272959E+02  0.20000008728E+02 0.  0.
         12    1    1    2    0    0  0.36669759080E+02 -0.11282105082E+02 -0.20289553510E+02  0.43400727041E+02  0.00000000000E+00 0. -1.
         11    1    3    3    0    0 -0.15058490869E+02  0.49880378567E+01  0.16353814284E+02  0.22783456955E+02  0.51100000000E-03 0. -1.
        -11    1    3    3    0    0 -0.57930246371E+00  0.33102278736E+01  0.12792409901E+01  0.35957833209E+01  0.51100000000E-03 0.  1.
        -12    1    3    3    0    0 -0.21031965747E+02  0.29838393515E+01  0.26564982356E+01  0.21408032682E+02  0.00000000000E+00 0.  1.
</event>
<event>
 7    1  0.5417298E-010  0.4778727E+02  0.7816164E-02  0.1312668E+00
        -11   -1    0    0    0    0  0.00000000000E+00  0.00000000000E+00  0.45593999997E+02  0.45594000000E+02  0.51100000000E-03 0. -1.
         11   -1    0    0    0    0 -0.00000000000E+00 -0.00000000000E+00 -0.45593999997E+02  0.45594000000E+02  0.51100000000E-03 0.  1.
    9900012    2    1    2    0    0  0.40169370312E+02  0.83781902271E+01 -0.14136852563E+02  0.47787274393E+02  0.20000015269E+02 0.  0.
         12    1    1    2    0    0 -0.40169370312E+02 -0.83781902271E+01  0.14136852563E+02  0.43400725607E+02  0.00000000000E+00 0. -1.
         11    1    3    3    0    0  0.10876455744E+02 -0.47638981297E+01 -0.56796926458E+01  0.13162481672E+02  0.51100000000E-03 0. -1.
        -11    1    3    3    0    0  0.84227361912E+01 -0.58035864424E+00 -0.36065569409E+01  0.91807709007E+01  0.51100000000E-03 0.  1.
        -12    1    3    3    0    0  0.20870178377E+02  0.13722447001E+02 -0.48506029766E+01  0.25444021821E+02  0.00000000000E+00 0.  1.
</event>
<event>
 7    1  0.5417298E-010  0.4778726E+02  0.7816164E-02  0.1312668E+00
        -11   -1    0    0    0    0  0.00000000000E+00  0.00000000000E+00  0.45593999997E+02  0.45594000000E+02  0.51100000000E-03 0.  1.
         11   -1    0    0    0    0 -0.00000000000E+00 -0.00000000000E+00 -0.45593999997E+02  0.45594000000E+02  0.51100000000E-03 0. -1.
    9900012    2    1    2    0    0 -0.19132960831E+01 -0.78949495603E+01  0.42633711969E+02  0.47787258915E+02  0.19999944698E+02 0.  0.
         12    1    1    2    0    0  0.19132960831E+01  0.78949495603E+01 -0.42633711969E+02  0.43400741085E+02  0.00000000000E+00 0. -1.
         11    1    3    3    0    0 -0.21614132937E+01 -0.63327750543E+01  0.58477353214E+01  0.88866054241E+01  0.51100000000E-03 0. -1.
        -11    1    3    3    0    0 -0.23375219475E+01 -0.59472509830E+01  0.28235111695E+02  0.28949185408E+02  0.51100000000E-03 0.  1.
        -12    1    3    3    0    0  0.25856391581E+01  0.43850764770E+01  0.85508649529E+01  0.99514680830E+01  0.00000000000E+00 0.  1.
</event>
<event>
 7    1  0.5417298E-010  0.4778727E+02  0.7816164E-02  0.1312668E+00
        -11   -1    0    0    0    0  0.00000000000E+00  0.00000000000E+00  0.45593999997E+02  0.45594000000E+02  0.51100000000E-03 0. -1.
         11   -1    0    0    0    0 -0.00000000000E+00 -0.00000000000E+00 -0.45593999997E+02  0.45594000000E+02  0.51100000000E-03 0.  1.
    9900012    2    1    2    0    0 -0.38003973650E+01 -0.40892203008E+02 -0.14035947869E+02  0.47787272822E+02  0.20000008105E+02 0.  0.
         12    1    1    2    0    0  0.38003973650E+01  0.40892203008E+02  0.14035947869E+02  0.43400727178E+02  0.00000000000E+00 0. -1.
         11    1    3    3    0    0  0.34673178938E+01 -0.34987265681E+01 -0.77961357583E+00  0.49871012186E+01  0.51100000000E-03 0. -1.
        -11    1    3    3    0    0 -0.52956728841E+01 -0.28089060203E+01 -0.11425720045E+01  0.61024237294E+01  0.51100000000E-03 0.  1.
        -12    1    3    3    0    0 -0.19720423748E+01 -0.34584570420E+02 -0.12113762288E+02  0.36697747874E+02  0.00000000000E+00 0.  1.
</event>
<event>
 7    1  0.5417298E-010  0.4778725E+02  0.7816164E-02  0.1312668E+00
        -11   -1    0    0    0    0  0.00000000000E+00  0.00000000000E+00  0.45593999997E+02  0.45594000000E+02  0.51100000000E-03 0. -1.
         11   -1    0    0    0    0 -0.00000000000E+00 -0.00000000000E+00 -0.45593999997E+02  0.45594000000E+02  0.51100000000E-03 0.  1.
    9900012    2    1    2    0    0  0.13518806420E+02 -0.34751978544E+02  0.22207366829E+02  0.47787247919E+02  0.19999894562E+02 0.  0.
         12    1    1    2    0    0 -0.13518806420E+02  0.34751978544E+02 -0.22207366829E+02  0.43400752081E+02  0.00000000000E+00 0. -1.
         11    1    3    3    0    0  0.34004066658E+01  0.10715031972E+01  0.60560584684E+00  0.36163024344E+01  0.51100000000E-03 0. -1.
        -11    1    3    3    0    0  0.52250864596E+01 -0.75143067017E+01  0.88764610296E+01  0.12749819386E+02  0.51100000000E-03 0.  1.
        -12    1    3    3    0    0  0.48933132942E+01 -0.28309175039E+02  0.12725299952E+02  0.31421126098E+02  0.00000000000E+00 0.  1.
</event>
<event>
 7    1  0.5417298E-010  0.4778727E+02  0.7816164E-02  0.1312668E+00
        -11   -1    0    0    0    0  0.00000000000E+00  0.00000000000E+00  0.45593999997E+02  0.45594000000E+02  0.51100000000E-03 0.  1.
         11   -1    0    0    0    0 -0.00000000000E+00 -0.00000000000E+00 -0.45593999997E+02  0.45594000000E+02  0.51100000000E-03 0. -1.
    9900012    2    1    2    0    0  0.26633588935E+02 -0.22584997914E+01  0.34193193490E+02  0.47787270030E+02  0.19999995376E+02 0.  0.
         12    1    1    2    0    0 -0.26633588935E+02  0.22584997914E+01 -0.34193193490E+02  0.43400729970E+02  0.00000000000E+00 0. -1.
         11    1    3    3    0    0  0.97755877208E+01  0.66042707149E+00  0.21911827304E+02  0.24002634340E+02  0.51100000000E-03 0.  1.
        -11    1    3    3    0    0  0.91703779454E+01  0.16895914142E+01  0.11473947228E+02  0.14785195841E+02  0.51100000000E-03 0. -1.
         12    1    3    3    0    0  0.76876232686E+01 -0.46085182772E+01  0.80741895878E+00  0.89994398496E+01  0.00000000000E+00 0. -1.
</event>
<event>
 7    1  0.5417298E-010  0.4778727E+02  0.7816164E-02  0.1312668E+00
        -11   -1    0    0    0    0  0.00000000000E+00  0.00000000000E+00  0.45593999997E+02  0.45594000000E+02  0.51100000000E-03 0. -1.
         11   -1    0    0    0    0 -0.00000000000E+00 -0.00000000000E+00 -0.45593999997E+02  0.45594000000E+02  0.51100000000E-03 0.  1.
    9900012    2    1    2    0    0  0.20265183842E+02  0.34151558466E+02 -0.17510475047E+02  0.47787270073E+02  0.19999995571E+02 0.  0.
         12    1    1    2    0    0 -0.20265183842E+02 -0.34151558466E+02  0.17510475047E+02  0.43400729927E+02  0.00000000000E+00 0. -1.
         11    1    3    3    0    0  0.98016619065E+01  0.20738816048E+02 -0.10466030347E+02  0.25213267513E+02  0.51100000000E-03 0. -1.
        -11    1    3    3    0    0  0.10815885026E+02  0.10742255478E+02 -0.10263120165E+02  0.18376916429E+02  0.51100000000E-03 0.  1.
         12    1    3    3    0    0 -0.35236309000E+00  0.26704869405E+01  0.32186754649E+01  0.41970861315E+01  0.00000000000E+00 0. -1.
</event>
<event>
 7    1  0.5417298E-010  0.4778729E+02  0.7816164E-02  0.1312668E+00
        -11   -1    0    0    0    0  0.00000000000E+00  0.00000000000E+00  0.45593999997E+02  0.45594000000E+02  0.51100000000E-03 0.  1.
         11   -1    0    0    0    0 -0.00000000000E+00 -0.00000000000E+00 -0.45593999997E+02  0.45594000000E+02  0.51100000000E-03 0. -1.
    9900012    2    1    2    0    0 -0.52966168158E+01  0.43038365356E+02 -0.18074698722E+01  0.47787285840E+02  0.20000067461E+02 0.  0.
         12    1    1    2    0    0  0.52966168158E+01 -0.43038365356E+02  0.18074698722E+01  0.43400714160E+02  0.00000000000E+00 0. -1.
         11    1    3    3    0    0  0.32898882198E+01  0.24852728960E+02 -0.20690086183E+01  0.25154766908E+02  0.51100000000E-03 0. -1.
        -11    1    3    3    0    0 -0.22750099508E+01  0.13589674976E+02  0.34417340211E+01  0.14202129050E+02  0.51100000000E-03 0.  1.
         12    1    3    3    0    0 -0.63114950848E+01  0.45959614200E+01 -0.31801952750E+01  0.84303898823E+01  0.00000000000E+00 0. -1.
</event>
<event>
 7    1  0.5417298E-010  0.4778727E+02  0.7816164E-02  0.1312668E+00
        -11   -1    0    0    0    0  0.00000000000E+00  0.00000000000E+00  0.45593999997E+02  0.45594000000E+02  0.51100000000E-03 0.  1.
         11   -1    0    0    0    0 -0.00000000000E+00 -0.00000000000E+00 -0.45593999997E+02  0.45594000000E+02  0.51100000000E-03 0. -1.
    9900012    2    1    2    0    0 -0.33756064260E+02 -0.44877969128E+01  0.26907456005E+02  0.47787269774E+02  0.19999994208E+02 0.  0.
         12    1    1    2    0    0  0.33756064260E+02  0.44877969128E+01 -0.26907456005E+02  0.43400730226E+02  0.00000000000E+00 0. -1.
         11    1    3    3    0    0 -0.78959424861E+01 -0.17003873812E+01  0.46702916700E+01  0.93299972955E+01  0.51100000000E-03 0. -1.
        -11    1    3    3    0    0 -0.27848529640E+02 -0.38418613184E+01  0.17242301361E+02  0.32978742516E+02  0.51100000000E-03 0.  1.
         12    1    3    3    0    0  0.19884078657E+01  0.10544517868E+01  0.49948629747E+01  0.54785299622E+01  0.00000000000E+00 0. -1.
</event>
<event>
 7    1  0.5417298E-010  0.4778727E+02  0.7816164E-02  0.1312668E+00
        -11   -1    0    0    0    0  0.00000000000E+00  0.00000000000E+00  0.45593999997E+02  0.45594000000E+02  0.51100000000E-03 0.  1.
         11   -1    0    0    0    0 -0.00000000000E+00 -0.00000000000E+00 -0.45593999997E+02  0.45594000000E+02  0.51100000000E-03 0. -1.
    9900012    2    1    2    0    0  0.43042019878E+02 -0.55280253784E+01  0.66970255117E+00  0.47787273724E+02  0.20000012219E+02 0.  0.
         12    1    1    2    0    0 -0.43042019878E+02  0.55280253784E+01 -0.66970255117E+00  0.43400726276E+02  0.00000000000E+00 0. -1.
         11    1    3    3    0    0  0.98898904002E+01 -0.60593486295E+00  0.32485330515E+01  0.10427370543E+02  0.51100000000E-03 0. -1.
        -11    1    3    3    0    0  0.78776037990E+01 -0.18377498289E+01  0.64485477577E+01  0.10344937626E+02  0.51100000000E-03 0.  1.
         12    1    3    3    0    0  0.25274525679E+02 -0.30843406865E+01 -0.90273782580E+01  0.27014965555E+02  0.00000000000E+00 0. -1.
</event>
<event>
 7    1  0.5417298E-010  0.4778727E+02  0.7816164E-02  0.1312668E+00
        -11   -1    0    0    0    0  0.00000000000E+00  0.00000000000E+00  0.45593999997E+02  0.45594000000E+02  0.51100000000E-03 0.  1.
         11   -1    0    0    0    0 -0.00000000000E+00 -0.00000000000E+00 -0.45593999997E+02  0.45594000000E+02  0.51100000000E-03 0. -1.
    9900012    2    1    2    0    0 -0.80954386744E+01  0.37568741482E+01  0.42473202484E+02  0.47787272357E+02  0.20000005983E+02 0.  0.
         12    1    1    2    0    0  0.80954386744E+01 -0.37568741482E+01 -0.42473202484E+02  0.43400727643E+02  0.00000000000E+00 0. -1.
         11    1    3    3    0    0  0.49275894387E+01  0.62431756253E+00  0.10002975219E+02  0.11168277557E+02  0.51100000000E-03 0. -1.
        -11    1    3    3    0    0 -0.28049544962E+01 -0.36959254693E+01  0.87414070027E+01  0.98964554992E+01  0.51100000000E-03 0.  1.
        -12    1    3    3    0    0 -0.10218073617E+02  0.68284820550E+01  0.23728820263E+02  0.26722539301E+02  0.00000000000E+00 0.  1.
</event>
<event>
 7    1  0.5417298E-010  0.4778727E+02  0.7816164E-02  0.1312668E+00
        -11   -1    0    0    0    0  0.00000000000E+00  0.00000000000E+00  0.45593999997E+02  0.45594000000E+02  0.51100000000E-03 0.  1.
         11   -1    0    0    0    0 -0.00000000000E+00 -0.00000000000E+00 -0.45593999997E+02  0.45594000000E+02  0.51100000000E-03 0. -1.
    9900012    2    1    2    0    0  0.38260839930E+02 -0.18091622915E+02  0.96137533094E+01  0.47787274838E+02  0.20000017298E+02 0.  0.
         12    1    1    2    0    0 -0.38260839930E+02  0.18091622915E+02 -0.96137533094E+01  0.43400725162E+02  0.00000000000E+00 0. -1.
         11    1    3    3    0    0 -0.65501709070E+00 -0.11330645608E+01  0.48163191019E+00  0.13945795947E+01  0.51100000000E-03 0. -1.
        -11    1    3    3    0    0  0.33156107602E+02 -0.20073608470E+02  0.92330232750E+01  0.39843769242E+02  0.51100000000E-03 0.  1.
        -12    1    3    3    0    0  0.57597494183E+01  0.31150501157E+01 -0.10090187576E+00  0.65489260015E+01  0.00000000000E+00 0.  1.
</event>
<event>
 7    1  0.5417298E-010  0.4778728E+02  0.7816164E-02  0.1312668E+00
        -11   -1    0    0    0    0  0.00000000000E+00  0.00000000000E+00  0.45593999997E+02  0.45594000000E+02  0.51100000000E-03 0.  1.
         11   -1    0    0    0    0 -0.00000000000E+00 -0.00000000000E+00 -0.45593999997E+02  0.45594000000E+02  0.51100000000E-03 0. -1.
    9900012    2    1    2    0    0  0.58804177710E+01 -0.11202405494E+02  0.41515655353E+02  0.47787276027E+02  0.20000022717E+02 0.  0.
         12    1    1    2    0    0 -0.58804177710E+01  0.11202405494E+02 -0.41515655353E+02  0.43400723973E+02  0.00000000000E+00 0. -1.
         11    1    3    3    0    0 -0.12109673698E+01 -0.15985890596E+01  0.15130104232E+01  0.25121962013E+01  0.51100000000E-03 0. -1.
        -11    1    3    3    0    0  0.59233501695E+01  0.26463098096E+01  0.50558533900E+01  0.82250037447E+01  0.51100000000E-03 0.  1.
         12    1    3    3    0    0  0.11680349713E+01 -0.12250126244E+02  0.34946791540E+02  0.37050076081E+02  0.00000000000E+00 0. -1.
</event>
<event>
 7    1  0.5417298E-010  0.4778727E+02  0.7816164E-02  0.1312668E+00
        -11   -1    0    0    0    0  0.00000000000E+00  0.00000000000E+00  0.45593999997E+02  0.45594000000E+02  0.51100000000E-03 0.  1.
         11   -1    0    0    0    0 -0.00000000000E+00 -0.00000000000E+00 -0.45593999997E+02  0.45594000000E+02  0.51100000000E-03 0. -1.
    9900012    2    1    2    0    0 -0.18708707398E+02 -0.23834452637E+02  0.31072918815E+02  0.47787272487E+02  0.20000006576E+02 0.  0.
         12    1    1    2    0    0  0.18708707398E+02  0.23834452637E+02 -0.31072918815E+02  0.43400727513E+02  0.00000000000E+00 0. -1.
         11    1    3    3    0    0 -0.57666054478E+01 -0.25636148997E+01  0.20661159895E+01  0.66403836702E+01  0.51100000000E-03 0. -1.
        -11    1    3    3    0    0 -0.13387910172E+02 -0.20573317537E+02  0.18830045147E+02  0.30936517803E+02  0.51100000000E-03 0.  1.
        -12    1    3    3    0    0  0.44580822190E+00 -0.69752020057E+00  0.10176757678E+02  0.10210371014E+02  0.00000000000E+00 0.  1.
</event>
<event>
 7    1  0.5417298E-010  0.4778727E+02  0.7816164E-02  0.1312668E+00
        -11   -1    0    0    0    0  0.00000000000E+00  0.00000000000E+00  0.45593999997E+02  0.45594000000E+02  0.51100000000E-03 0.  1.
         11   -1    0    0    0    0 -0.00000000000E+00 -0.00000000000E+00 -0.45593999997E+02  0.45594000000E+02  0.51100000000E-03 0. -1.
    9900012    2    1    2    0    0  0.12716824408E+02  0.40217139271E+02  0.10221916891E+02  0.47787268450E+02  0.19999988171E+02 0.  0.
         12    1    1    2    0    0 -0.12716824408E+02 -0.40217139271E+02 -0.10221916891E+02  0.43400731550E+02  0.00000000000E+00 0. -1.
         11    1    3    3    0    0  0.91335300996E+01  0.21247490030E+02 -0.31354606117E+01  0.23338987085E+02  0.51100000000E-03 0. -1.
        -11    1    3    3    0    0 -0.17824077246E+01  0.55054561307E+01  0.23387313345E+01  0.62415293815E+01  0.51100000000E-03 0.  1.
         12    1    3    3    0    0  0.53657020331E+01  0.13464193110E+02  0.11018646168E+02  0.18206751983E+02  0.00000000000E+00 0. -1.
</event>
<event>
 7    1  0.5417298E-010  0.4778727E+02  0.7816164E-02  0.1312668E+00
        -11   -1    0    0    0    0  0.00000000000E+00  0.00000000000E+00  0.45593999997E+02  0.45594000000E+02  0.51100000000E-03 0. -1.
         11   -1    0    0    0    0 -0.00000000000E+00 -0.00000000000E+00 -0.45593999997E+02  0.45594000000E+02  0.51100000000E-03 0.  1.
    9900012    2    1    2    0    0  0.39194310369E+02 -0.17799904476E+02  0.55310552039E+01  0.47787272629E+02  0.20000007226E+02 0.  0.
         12    1    1    2    0    0 -0.39194310369E+02  0.17799904476E+02 -0.55310552039E+01  0.43400727371E+02  0.00000000000E+00 0. -1.
         11    1    3    3    0    0  0.25709423398E+02 -0.67721382420E+01  0.52778519863E+01  0.27105203000E+02  0.51100000000E-03 0. -1.
        -11    1    3    3    0    0  0.24446439806E+01  0.23112437743E+01 -0.36681635920E-01  0.33644431604E+01  0.51100000000E-03 0.  1.
         12    1    3    3    0    0  0.11040242991E+02 -0.13339010008E+02  0.28988485352E+00  0.17317626469E+02  0.00000000000E+00 0. -1.
</event>
<event>
 7    1  0.5417298E-010  0.4778727E+02  0.7816164E-02  0.1312668E+00
        -11   -1    0    0    0    0  0.00000000000E+00  0.00000000000E+00  0.45593999997E+02  0.45594000000E+02  0.51100000000E-03 0.  1.
         11   -1    0    0    0    0 -0.00000000000E+00 -0.00000000000E+00 -0.45593999997E+02  0.45594000000E+02  0.51100000000E-03 0. -1.
    9900012    2    1    2    0    0 -0.32543945386E+02  0.15918221042E+02  0.23898234788E+02  0.47787265347E+02  0.19999974025E+02 0.  0.
         12    1    1    2    0    0  0.32543945386E+02 -0.15918221042E+02 -0.23898234788E+02  0.43400734653E+02  0.00000000000E+00 0. -1.
         11    1    3    3    0    0 -0.10767051947E+02  0.54169071275E+01 -0.46877927343E+00  0.12062008320E+02  0.51100000000E-03 0. -1.
        -11    1    3    3    0    0 -0.10235170793E+00  0.30943379359E+01  0.41240891405E+01  0.51568900156E+01  0.51100000000E-03 0.  1.
        -12    1    3    3    0    0 -0.21674541731E+02  0.74069759785E+01  0.20242924921E+02  0.30568367011E+02  0.00000000000E+00 0.  1.
</event>
<event>
 7    1  0.5417298E-010  0.4778727E+02  0.7816164E-02  0.1312668E+00
        -11   -1    0    0    0    0  0.00000000000E+00  0.00000000000E+00  0.45593999997E+02  0.45594000000E+02  0.51100000000E-03 0.  1.
         11   -1    0    0    0    0 -0.00000000000E+00 -0.00000000000E+00 -0.45593999997E+02  0.45594000000E+02  0.51100000000E-03 0. -1.
    9900012    2    1    2    0    0  0.32573945495E+02  0.23523774634E+02  0.16407106245E+02  0.47787273814E+02  0.20000012626E+02 0.  0.
         12    1    1    2    0    0 -0.32573945495E+02 -0.23523774634E+02 -0.16407106245E+02  0.43400726186E+02  0.00000000000E+00 0. -1.
         11    1    3    3    0    0  0.21320408534E+01  0.13154840650E+01  0.66248468354E+01  0.70827037478E+01  0.51100000000E-03 0. -1.
        -11    1    3    3    0    0  0.53926106205E+01  0.10517336076E+02  0.20043071992E+01  0.11987987948E+02  0.51100000000E-03 0.  1.
         12    1    3    3    0    0  0.25049294022E+02  0.11690954493E+02  0.77779522100E+01  0.28716582118E+02  0.00000000000E+00 0. -1.
</event>
<event>
 7    1  0.5417298E-010  0.4778727E+02  0.7816164E-02  0.1312668E+00
        -11   -1    0    0    0    0  0.00000000000E+00  0.00000000000E+00  0.45593999997E+02  0.45594000000E+02  0.51100000000E-03 0. -1.
         11   -1    0    0    0    0 -0.00000000000E+00 -0.00000000000E+00 -0.45593999997E+02  0.45594000000E+02  0.51100000000E-03 0.  1.
    9900012    2    1    2    0    0 -0.38608605274E+02 -0.12664010664E+02 -0.15251945491E+02  0.47787269493E+02  0.19999992927E+02 0.  0.
         12    1    1    2    0    0  0.38608605274E+02  0.12664010664E+02  0.15251945491E+02  0.43400730507E+02  0.00000000000E+00 0. -1.
         11    1    3    3    0    0 -0.18522023609E+02  0.27784260286E+00 -0.91060065591E+01  0.20641267180E+02  0.51100000000E-03 0. -1.
        -11    1    3    3    0    0 -0.18850778892E+02 -0.65900924861E+01 -0.45537565348E+01  0.20482135696E+02  0.51100000000E-03 0.  1.
         12    1    3    3    0    0 -0.12358027725E+01 -0.63517607810E+01 -0.15921823970E+01  0.66638666175E+01  0.00000000000E+00 0. -1.
</event>
<event>
 7    1  0.5417298E-010  0.4778728E+02  0.7816164E-02  0.1312668E+00
        -11   -1    0    0    0    0  0.00000000000E+00  0.00000000000E+00  0.45593999997E+02  0.45594000000E+02  0.51100000000E-03 0.  1.
         11   -1    0    0    0    0 -0.00000000000E+00 -0.00000000000E+00 -0.45593999997E+02  0.45594000000E+02  0.51100000000E-03 0. -1.
    9900012    2    1    2    0    0  0.21705933765E+02  0.15774167898E+02  0.34112325368E+02  0.47787277938E+02  0.20000031431E+02 0.  0.
         12    1    1    2    0    0 -0.21705933765E+02 -0.15774167898E+02 -0.34112325368E+02  0.43400722062E+02  0.00000000000E+00 0. -1.
         11    1    3    3    0    0  0.19934745302E+00  0.10945761976E+01  0.35575784726E+00  0.11680754968E+01  0.51100000000E-03 0. -1.
        -11    1    3    3    0    0  0.15589779351E+02 -0.84017666900E-01  0.12023798223E+02  0.19688067532E+02  0.51100000000E-03 0.  1.
         12    1    3    3    0    0  0.59168069614E+01  0.14763609367E+02  0.21732769298E+02  0.26931134910E+02  0.00000000000E+00 0. -1.
</event>
<event>
 7    1  0.5417298E-010  0.4778723E+02  0.7816164E-02  0.1312668E+00
        -11   -1    0    0    0    0  0.00000000000E+00  0.00000000000E+00  0.45593999997E+02  0.45594000000E+02  0.51100000000E-03 0. -1.
         11   -1    0    0    0    0 -0.00000000000E+00 -0.00000000000E+00 -0.45593999997E+02  0.45594000000E+02  0.51100000000E-03 0.  1.
    9900012    2    1    2    0    0 -0.24253398877E+02 -0.34596724913E+02 -0.99230011237E+01  0.47787231768E+02  0.19999820923E+02 0.  0.
         12    1    1    2    0    0  0.24253398877E+02  0.34596724913E+02  0.99230011237E+01  0.43400768232E+02  0.00000000000E+00 0. -1.
         11    1    3    3    0    0 -0.20631004407E+01 -0.31262195150E+01  0.43356481387E+01  0.57295267630E+01  0.51100000000E-03 0. -1.
        -11    1    3    3    0    0 -0.92796830872E+01 -0.61211474929E+01 -0.37948368241E+01  0.11746563396E+02  0.51100000000E-03 0.  1.
         12    1    3    3    0    0 -0.12910615349E+02 -0.25349357905E+02 -0.10463812438E+02  0.30311141609E+02  0.00000000000E+00 0. -1.
</event>
<event>
 7    1  0.5417298E-010  0.4778727E+02  0.7816164E-02  0.1312668E+00
        -11   -1    0    0    0    0  0.00000000000E+00  0.00000000000E+00  0.45593999997E+02  0.45594000000E+02  0.51100000000E-03 0.  1.
         11   -1    0    0    0    0 -0.00000000000E+00 -0.00000000000E+00 -0.45593999997E+02  0.45594000000E+02  0.51100000000E-03 0. -1.
    9900012    2    1    2    0    0 -0.12491445486E+02  0.28272730368E+02  0.30467029644E+02  0.47787269729E+02  0.19999994001E+02 0.  0.
         12    1    1    2    0    0  0.12491445486E+02 -0.28272730368E+02 -0.30467029644E+02  0.43400730271E+02  0.00000000000E+00 0. -1.
         11    1    3    3    0    0  0.19898410090E+01  0.58385096024E+01  0.54061891871E+01  0.82021060348E+01  0.51100000000E-03 0. -1.
        -11    1    3    3    0    0 -0.32982647667E+01  0.17239740804E+02  0.18927234114E+02  0.25813318363E+02  0.51100000000E-03 0.  1.
        -12    1    3    3    0    0 -0.11183021728E+02  0.51944799619E+01  0.61336063426E+01  0.13771845331E+02  0.00000000000E+00 0.  1.
</event>
<event>
 7    1  0.5417298E-010  0.4778727E+02  0.7816164E-02  0.1312668E+00
        -11   -1    0    0    0    0  0.00000000000E+00  0.00000000000E+00  0.45593999997E+02  0.45594000000E+02  0.51100000000E-03 0. -1.
         11   -1    0    0    0    0 -0.00000000000E+00 -0.00000000000E+00 -0.45593999997E+02  0.45594000000E+02  0.51100000000E-03 0.  1.
    9900012    2    1    2    0    0  0.21327485301E+02 -0.35982781952E+02 -0.11575882010E+02  0.47787271082E+02  0.20000000171E+02 0.  0.
         12    1    1    2    0    0 -0.21327485301E+02  0.35982781952E+02  0.11575882010E+02  0.43400728918E+02  0.00000000000E+00 0. -1.
         11    1    3    3    0    0  0.86227438153E+01 -0.96058833505E+01  0.27390919404E+01  0.13195731536E+02  0.51100000000E-03 0. -1.
        -11    1    3    3    0    0  0.12362638779E+02 -0.21800660613E+02 -0.71130988456E+01  0.26051867806E+02  0.51100000000E-03 0.  1.
         12    1    3    3    0    0  0.34210270645E+00 -0.45762379891E+01 -0.72018751051E+01  0.85396717399E+01  0.00000000000E+00 0. -1.
</event>
<event>
 7    1  0.5417298E-010  0.4778727E+02  0.7816164E-02  0.1312668E+00
        -11   -1    0    0    0    0  0.00000000000E+00  0.00000000000E+00  0.45593999997E+02  0.45594000000E+02  0.51100000000E-03 0.  1.
         11   -1    0    0    0    0 -0.00000000000E+00 -0.00000000000E+00 -0.45593999997E+02  0.45594000000E+02  0.51100000000E-03 0. -1.
    9900012    2    1    2    0    0 -0.14449348137E+01  0.46115817390E+01  0.43130835861E+02  0.47787268153E+02  0.19999986817E+02 0.  0.
         12    1    1    2    0    0  0.14449348137E+01 -0.46115817390E+01 -0.43130835861E+02  0.43400731847E+02  0.00000000000E+00 0. -1.
         11    1    3    3    0    0 -0.22333527612E+01  0.69774492114E+00  0.10286240935E+02  0.10549003050E+02  0.51100000000E-03 0.  1.
        -11    1    3    3    0    0 -0.67859173175E+01 -0.15272367372E+01  0.21244026419E+02  0.22353742072E+02  0.51100000000E-03 0. -1.
        -12    1    3    3    0    0  0.75743352650E+01  0.54410735550E+01  0.11600568508E+02  0.14884523030E+02  0.00000000000E+00 0.  1.
</event>
<event>
 7    1  0.5417298E-010  0.4778726E+02  0.7816164E-02  0.1312668E+00
        -11   -1    0    0    0    0  0.00000000000E+00  0.00000000000E+00  0.45593999997E+02  0.45594000000E+02  0.51100000000E-03 0.  1.
         11   -1    0    0    0    0 -0.00000000000E+00 -0.00000000000E+00 -0.45593999997E+02  0.45594000000E+02  0.51100000000E-03 0. -1.
    9900012    2    1    2    0    0  0.70114995153E+01 -0.36797800496E+02  0.21917688565E+02  0.47787259006E+02  0.19999945112E+02 0.  0.
         12    1    1    2    0    0 -0.70114995153E+01  0.36797800496E+02 -0.21917688565E+02  0.43400740994E+02  0.00000000000E+00 0. -1.
         11    1    3    3    0    0  0.34492597335E+01 -0.74333813779E+01  0.27707354392E+01  0.86504061496E+01  0.51100000000E-03 0. -1.
        -11    1    3    3    0    0 -0.62164954316E+01 -0.70278467440E+01  0.28396553643E+01  0.98030142384E+01  0.51100000000E-03 0.  1.
        -12    1    3    3    0    0  0.97787352134E+01 -0.22336572374E+02  0.16307297761E+02  0.29333838618E+02  0.00000000000E+00 0.  1.
</event>
<event>
 7    1  0.5417298E-010  0.4778727E+02  0.7816164E-02  0.1312668E+00
        -11   -1    0    0    0    0  0.00000000000E+00  0.00000000000E+00  0.45593999997E+02  0.45594000000E+02  0.51100000000E-03 0.  1.
         11   -1    0    0    0    0 -0.00000000000E+00 -0.00000000000E+00 -0.45593999997E+02  0.45594000000E+02  0.51100000000E-03 0. -1.
    9900012    2    1    2    0    0  0.17214933242E+02  0.26230552526E+02  0.29987121426E+02  0.47787271161E+02  0.20000000531E+02 0.  0.
         12    1    1    2    0    0 -0.17214933242E+02 -0.26230552526E+02 -0.29987121426E+02  0.43400728839E+02  0.00000000000E+00 0. -1.
         11    1    3    3    0    0  0.11414628350E+01  0.44343265296E+01  0.31574955874E+00  0.45897589501E+01  0.51100000000E-03 0. -1.
        -11    1    3    3    0    0  0.88653542878E+01  0.20456985767E+02  0.15226770585E+02  0.26998839161E+02  0.51100000000E-03 0.  1.
         12    1    3    3    0    0  0.72081161194E+01  0.13392402296E+01  0.14444601282E+02  0.16198673050E+02  0.00000000000E+00 0. -1.
</event>
<event>
 7    1  0.5417298E-010  0.4778727E+02  0.7816164E-02  0.1312668E+00
        -11   -1    0    0    0    0  0.00000000000E+00  0.00000000000E+00  0.45593999997E+02  0.45594000000E+02  0.51100000000E-03 0. -1.
         11   -1    0    0    0    0 -0.00000000000E+00 -0.00000000000E+00 -0.45593999997E+02  0.45594000000E+02  0.51100000000E-03 0.  1.
    9900012    2    1    2    0    0 -0.16742159494E+02  0.10941525319E+02 -0.38517613959E+02  0.47787268832E+02  0.19999989913E+02 0.  0.
         12    1    1    2    0    0  0.16742159494E+02 -0.10941525319E+02  0.38517613959E+02  0.43400731168E+02  0.00000000000E+00 0. -1.
         11    1    3    3    0    0 -0.74700817557E-01  0.21495638390E+01 -0.35926469913E+01  0.41872804510E+01  0.51100000000E-03 0. -1.
        -11    1    3    3    0    0  0.32528392428E+01 -0.14494959883E+01 -0.33660481996E+01  0.49002329029E+01  0.51100000000E-03 0.  1.
        -12    1    3    3    0    0 -0.19920297920E+02  0.10241457468E+02 -0.31558918768E+02  0.38699755478E+02  0.00000000000E+00 0.  1.
</event>
<event>
 7    1  0.5417298E-010  0.4778727E+02  0.7816164E-02  0.1312668E+00
        -11   -1    0    0    0    0  0.00000000000E+00  0.00000000000E+00  0.45593999997E+02  0.45594000000E+02  0.51100000000E-03 0. -1.
         11   -1    0    0    0    0 -0.00000000000E+00 -0.00000000000E+00 -0.45593999997E+02  0.45594000000E+02  0.51100000000E-03 0.  1.
    9900012    2    1    2    0    0  0.13435303885E+01  0.20289165961E+02 -0.38342767430E+02  0.47787272547E+02  0.20000006851E+02 0.  0.
         12    1    1    2    0    0 -0.13435303885E+01 -0.20289165961E+02  0.38342767430E+02  0.43400727453E+02  0.00000000000E+00 0. -1.
         11    1    3    3    0    0 -0.32433268171E+00  0.50404583469E+00 -0.21640083607E+01  0.22454813155E+01  0.51100000000E-03 0. -1.
        -11    1    3    3    0    0  0.12119882845E+01  0.13087170647E+02 -0.36526674560E+02  0.38819336751E+02  0.51100000000E-03 0.  1.
         12    1    3    3    0    0  0.45587478566E+00  0.66979494797E+01  0.34791549092E+00  0.67224544804E+01  0.00000000000E+00 0. -1.
</event>
<event>
 7    1  0.5417298E-010  0.4778727E+02  0.7816164E-02  0.1312668E+00
        -11   -1    0    0    0    0  0.00000000000E+00  0.00000000000E+00  0.45593999997E+02  0.45594000000E+02  0.51100000000E-03 0.  1.
         11   -1    0    0    0    0 -0.00000000000E+00 -0.00000000000E+00 -0.45593999997E+02  0.45594000000E+02  0.51100000000E-03 0. -1.
    9900012    2    1    2    0    0 -0.14734187898E+02 -0.26803893128E+02  0.30790877500E+02  0.47787272851E+02  0.20000008237E+02 0.  0.
         12    1    1    2    0    0  0.14734187898E+02  0.26803893128E+02 -0.30790877500E+02  0.43400727149E+02  0.00000000000E+00 0. -1.
         11    1    3    3    0    0  0.14659241953E+01 -0.42696964883E+01  0.72863781545E+01  0.85714962941E+01  0.51100000000E-03 0. -1.
        -11    1    3    3    0    0  0.84220695387E+00  0.12200244500E+01  0.34730277937E+01  0.37762010710E+01  0.51100000000E-03 0.  1.
        -12    1    3    3    0    0 -0.17042319047E+02 -0.23754221090E+02  0.20031471552E+02  0.35439575486E+02  0.00000000000E+00 0.  1.
</event>
<event>
 7    1  0.5417298E-010  0.4778727E+02  0.7816164E-02  0.1312668E+00
        -11   -1    0    0    0    0  0.00000000000E+00  0.00000000000E+00  0.45593999997E+02  0.45594000000E+02  0.51100000000E-03 0.  1.
         11   -1    0    0    0    0 -0.00000000000E+00 -0.00000000000E+00 -0.45593999997E+02  0.45594000000E+02  0.51100000000E-03 0. -1.
    9900012    2    1    2    0    0  0.36992788552E+02 -0.17099355525E+02  0.14925439683E+02  0.47787272887E+02  0.20000008400E+02 0.  0.
         12    1    1    2    0    0 -0.36992788552E+02  0.17099355525E+02 -0.14925439683E+02  0.43400727113E+02  0.00000000000E+00 0. -1.
         11    1    3    3    0    0  0.89823840230E+01  0.25961221887E+01  0.44022534185E+01  0.10334549268E+02  0.51100000000E-03 0. -1.
        -11    1    3    3    0    0  0.39226321874E+01 -0.41851543865E+01  0.62552994118E+01  0.84871274003E+01  0.51100000000E-03 0.  1.
        -12    1    3    3    0    0  0.24087772342E+02 -0.15510323327E+02  0.42678868531E+01  0.28965596218E+02  0.00000000000E+00 0.  1.
</event>
<event>
 7    1  0.5417298E-010  0.4778727E+02  0.7816164E-02  0.1312668E+00
        -11   -1    0    0    0    0  0.00000000000E+00  0.00000000000E+00  0.45593999997E+02  0.45594000000E+02  0.51100000000E-03 0.  1.
         11   -1    0    0    0    0 -0.00000000000E+00 -0.00000000000E+00 -0.45593999997E+02  0.45594000000E+02  0.51100000000E-03 0. -1.
    9900012    2    1    2    0    0  0.29973901343E+02 -0.24819100949E+02  0.19214592889E+02  0.47787272892E+02  0.20000008423E+02 0.  0.
         12    1    1    2    0    0 -0.29973901343E+02  0.24819100949E+02 -0.19214592889E+02  0.43400727108E+02  0.00000000000E+00 0. -1.
         11    1    3    3    0    0  0.12995472252E+02 -0.63623468713E+01  0.48671897983E+01  0.15266017606E+02  0.51100000000E-03 0. -1.
        -11    1    3    3    0    0  0.16046625684E+02 -0.92807536446E+01  0.45948274435E+01  0.19098141888E+02  0.51100000000E-03 0.  1.
         12    1    3    3    0    0  0.93180340669E+00 -0.91760004326E+01  0.97525756476E+01  0.13423113398E+02  0.00000000000E+00 0. -1.
</event>
<event>
 7    1  0.5417298E-010  0.4778727E+02  0.7816164E-02  0.1312668E+00
        -11   -1    0    0    0    0  0.00000000000E+00  0.00000000000E+00  0.45593999997E+02  0.45594000000E+02  0.51100000000E-03 0. -1.
         11   -1    0    0    0    0 -0.00000000000E+00 -0.00000000000E+00 -0.45593999997E+02  0.45594000000E+02  0.51100000000E-03 0.  1.
    9900012    2    1    2    0    0  0.11646728295E+02 -0.34926826370E+02  0.22980284322E+02  0.47787274801E+02  0.20000017129E+02 0.  0.
         12    1    1    2    0    0 -0.11646728295E+02  0.34926826370E+02 -0.22980284322E+02  0.43400725199E+02  0.00000000000E+00 0. -1.
         11    1    3    3    0    0  0.37405471623E+01 -0.54572441262E+01 -0.13380344558E+01  0.67500772583E+01  0.51100000000E-03 0. -1.
        -11    1    3    3    0    0 -0.28011976645E+01 -0.31863485182E+01  0.56564814532E+01  0.70707360244E+01  0.51100000000E-03 0.  1.
        -12    1    3    3    0    0  0.10707378797E+02 -0.26283233726E+02  0.18661837324E+02  0.33966461519E+02  0.00000000000E+00 0.  1.
</event>
<event>
 7    1  0.5417298E-010  0.4778727E+02  0.7816164E-02  0.1312668E+00
        -11   -1    0    0    0    0  0.00000000000E+00  0.00000000000E+00  0.45593999997E+02  0.45594000000E+02  0.51100000000E-03 0.  1.
         11   -1    0    0    0    0 -0.00000000000E+00 -0.00000000000E+00 -0.45593999997E+02  0.45594000000E+02  0.51100000000E-03 0. -1.
    9900012    2    1    2    0    0 -0.10930704536E+02 -0.37604516858E+02  0.18709444766E+02  0.47787270591E+02  0.19999997932E+02 0.  0.
         12    1    1    2    0    0  0.10930704536E+02  0.37604516858E+02 -0.18709444766E+02  0.43400729409E+02  0.00000000000E+00 0. -1.
         11    1    3    3    0    0 -0.54685055885E+01 -0.17511397685E+02  0.69503397909E+01  0.19617870061E+02  0.51100000000E-03 0. -1.
        -11    1    3    3    0    0 -0.76574155353E+01 -0.17279994256E+02  0.35675305972E+01  0.19234382989E+02  0.51100000000E-03 0.  1.
         12    1    3    3    0    0  0.21952165877E+01 -0.28131249176E+01  0.81915743778E+01  0.89350175409E+01  0.00000000000E+00 0. -1.
</event>
<event>
 7    1  0.5417298E-010  0.4778727E+02  0.7816164E-02  0.1312668E+00
        -11   -1    0    0    0    0  0.00000000000E+00  0.00000000000E+00  0.45593999997E+02  0.45594000000E+02  0.51100000000E-03 0.  1.
         11   -1    0    0    0    0 -0.00000000000E+00 -0.00000000000E+00 -0.45593999997E+02  0.45594000000E+02  0.51100000000E-03 0. -1.
    9900012    2    1    2    0    0  0.30665933919E+02  0.15053965547E+02  0.26769420722E+02  0.47787271117E+02  0.20000000330E+02 0.  0.
         12    1    1    2    0    0 -0.30665933919E+02 -0.15053965547E+02 -0.26769420722E+02  0.43400728883E+02  0.00000000000E+00 0. -1.
         11    1    3    3    0    0  0.37907709754E+00  0.22459963852E+01 -0.96688751420E+00  0.24744839733E+01  0.51100000000E-03 0. -1.
        -11    1    3    3    0    0  0.83543490547E+01  0.11000650743E+02  0.10128174086E+02  0.17128612771E+02  0.51100000000E-03 0.  1.
        -12    1    3    3    0    0  0.21932507767E+02  0.18073184190E+01  0.17608134150E+02  0.28184174372E+02  0.00000000000E+00 0.  1.
</event>
<event>
 7    1  0.5417298E-010  0.4778727E+02  0.7816164E-02  0.1312668E+00
        -11   -1    0    0    0    0  0.00000000000E+00  0.00000000000E+00  0.45593999997E+02  0.45594000000E+02  0.51100000000E-03 0.  1.
         11   -1    0    0    0    0 -0.00000000000E+00 -0.00000000000E+00 -0.45593999997E+02  0.45594000000E+02  0.51100000000E-03 0. -1.
    9900012    2    1    2    0    0  0.49790392810E+01 -0.89235009924E+01  0.42180604911E+02  0.47787272670E+02  0.20000007412E+02 0.  0.
         12    1    1    2    0    0 -0.49790392810E+01  0.89235009924E+01 -0.42180604911E+02  0.43400727330E+02  0.00000000000E+00 0. -1.
         11    1    3    3    0    0  0.38827304475E+01 -0.45856090105E+01  0.18543605120E+02  0.19492785763E+02  0.51100000000E-03 0. -1.
        -11    1    3    3    0    0  0.30075989137E+01 -0.81064339946E+00  0.24059682622E+02  0.24260484786E+02  0.51100000000E-03 0.  1.
         12    1    3    3    0    0 -0.19112900801E+01 -0.35272485824E+01 -0.42268283030E+00  0.40340021204E+01  0.00000000000E+00 0. -1.
</event>
<event>
 7    1  0.5417298E-010  0.4778727E+02  0.7816164E-02  0.1312668E+00
        -11   -1    0    0    0    0  0.00000000000E+00  0.00000000000E+00  0.45593999997E+02  0.45594000000E+02  0.51100000000E-03 0.  1.
         11   -1    0    0    0    0 -0.00000000000E+00 -0.00000000000E+00 -0.45593999997E+02  0.45594000000E+02  0.51100000000E-03 0. -1.
    9900012    2    1    2    0    0  0.33212416255E+02 -0.21170964094E+02  0.18230444574E+02  0.47787269321E+02  0.19999992141E+02 0.  0.
         12    1    1    2    0    0 -0.33212416255E+02  0.21170964094E+02 -0.18230444574E+02  0.43400730679E+02  0.00000000000E+00 0. -1.
         11    1    3    3    0    0  0.15577573234E+01  0.29863905731E+00 -0.13119761672E+01  0.20584156260E+01  0.51100000000E-03 0. -1.
        -11    1    3    3    0    0  0.37971095522E+01 -0.10309331670E+02  0.79352949890E+01  0.13552463512E+02  0.51100000000E-03 0.  1.
         12    1    3    3    0    0  0.27857549379E+02 -0.11160271482E+02  0.11607125752E+02  0.32176390182E+02  0.00000000000E+00 0. -1.
</event>
<event>
 7    1  0.5417298E-010  0.4778727E+02  0.7816164E-02  0.1312668E+00
        -11   -1    0    0    0    0  0.00000000000E+00  0.00000000000E+00  0.45593999997E+02  0.45594000000E+02  0.51100000000E-03 0.  1.
         11   -1    0    0    0    0 -0.00000000000E+00 -0.00000000000E+00 -0.45593999997E+02  0.45594000000E+02  0.51100000000E-03 0. -1.
    9900012    2    1    2    0    0 -0.21635489610E+02 -0.31085664785E+02  0.21194584389E+02  0.47787269900E+02  0.19999994784E+02 0.  0.
         12    1    1    2    0    0  0.21635489610E+02  0.31085664785E+02 -0.21194584389E+02  0.43400730100E+02  0.00000000000E+00 0. -1.
         11    1    3    3    0    0  0.22304730355E+01 -0.25804842384E+01 -0.19031469664E+01  0.39058773027E+01  0.51100000000E-03 0. -1.
        -11    1    3    3    0    0 -0.28347882079E+01 -0.51413080676E+01  0.34000036020E+01  0.67844747463E+01  0.51100000000E-03 0.  1.
         12    1    3    3    0    0 -0.21031174437E+02 -0.23363872479E+02  0.19697727754E+02  0.37096917851E+02  0.00000000000E+00 0. -1.
</event>
<event>
 7    1  0.5417298E-010  0.4778727E+02  0.7816164E-02  0.1312668E+00
        -11   -1    0    0    0    0  0.00000000000E+00  0.00000000000E+00  0.45593999997E+02  0.45594000000E+02  0.51100000000E-03 0.  1.
         11   -1    0    0    0    0 -0.00000000000E+00 -0.00000000000E+00 -0.45593999997E+02  0.45594000000E+02  0.51100000000E-03 0. -1.
    9900012    2    1    2    0    0  0.31454377625E+02  0.29141831668E+01  0.29761598490E+02  0.47787273278E+02  0.20000010183E+02 0.  0.
         12    1    1    2    0    0 -0.31454377625E+02 -0.29141831668E+01 -0.29761598490E+02  0.43400726722E+02  0.00000000000E+00 0. -1.
         11    1    3    3    0    0 -0.90358633282E+00 -0.13260874482E+01  0.51410770627E+01  0.53856893530E+01  0.51100000000E-03 0. -1.
        -11    1    3    3    0    0  0.14401846139E+02 -0.92599875781E+00  0.16797074349E+02  0.22145255765E+02  0.51100000000E-03 0.  1.
         12    1    3    3    0    0  0.17956117819E+02  0.51662693728E+01  0.78234470782E+01  0.20256328160E+02  0.00000000000E+00 0. -1.
</event>
<event>
 7    1  0.5417298E-010  0.4778726E+02  0.7816164E-02  0.1312668E+00
        -11   -1    0    0    0    0  0.00000000000E+00  0.00000000000E+00  0.45593999997E+02  0.45594000000E+02  0.51100000000E-03 0.  1.
         11   -1    0    0    0    0 -0.00000000000E+00 -0.00000000000E+00 -0.45593999997E+02  0.45594000000E+02  0.51100000000E-03 0. -1.
    9900012    2    1    2    0    0 -0.39857296370E+02  0.85438554639E+01 -0.14900436279E+02  0.47787256442E+02  0.19999933419E+02 0.  0.
         12    1    1    2    0    0  0.39857296370E+02 -0.85438554639E+01  0.14900436279E+02  0.43400743558E+02  0.00000000000E+00 0. -1.
         11    1    3    3    0    0 -0.17795647834E+02 -0.17144361989E+01 -0.39699305898E+01  0.18313512019E+02  0.51100000000E-03 0. -1.
        -11    1    3    3    0    0 -0.13722840702E+02  0.64389032944E+01  0.60552831661E-01  0.15158479458E+02  0.51100000000E-03 0.  1.
         12    1    3    3    0    0 -0.83388078338E+01  0.38193883685E+01 -0.10991058521E+02  0.14315264965E+02  0.00000000000E+00 0. -1.
</event>
<event>
 7    1  0.5417298E-010  0.4778727E+02  0.7816164E-02  0.1312668E+00
        -11   -1    0    0    0    0  0.00000000000E+00  0.00000000000E+00  0.45593999997E+02  0.45594000000E+02  0.51100000000E-03 0.  1.
         11   -1    0    0    0    0 -0.00000000000E+00 -0.00000000000E+00 -0.45593999997E+02  0.45594000000E+02  0.51100000000E-03 0. -1.
    9900012    2    1    2    0    0  0.16810747526E+02  0.26976541574E+02  0.29551456662E+02  0.47787267074E+02  0.19999981895E+02 0.  0.
         12    1    1    2    0    0 -0.16810747526E+02 -0.26976541574E+02 -0.29551456662E+02  0.43400732926E+02  0.00000000000E+00 0. -1.
         11    1    3    3    0    0  0.15576053381E+02  0.18039557905E+02  0.13966217925E+02  0.27624162100E+02  0.51100000000E-03 0. -1.
        -11    1    3    3    0    0  0.27733810122E+01 -0.83801541424E+00  0.35100700603E+01  0.45513189476E+01  0.51100000000E-03 0.  1.
        -12    1    3    3    0    0 -0.15386868669E+01  0.97749990836E+01  0.12075168676E+02  0.15611786026E+02  0.00000000000E+00 0.  1.
</event>
<event>
 7    1  0.5417298E-010  0.4778727E+02  0.7816164E-02  0.1312668E+00
        -11   -1    0    0    0    0  0.00000000000E+00  0.00000000000E+00  0.45593999997E+02  0.45594000000E+02  0.51100000000E-03 0.  1.
         11   -1    0    0    0    0 -0.00000000000E+00 -0.00000000000E+00 -0.45593999997E+02  0.45594000000E+02  0.51100000000E-03 0. -1.
    9900012    2    1    2    0    0  0.12660583547E+02  0.19262554570E+02  0.36773450119E+02  0.47787273993E+02  0.20000013444E+02 0.  0.
         12    1    1    2    0    0 -0.12660583547E+02 -0.19262554570E+02 -0.36773450119E+02  0.43400726007E+02  0.00000000000E+00 0. -1.
         11    1    3    3    0    0 -0.14603885440E+01  0.57460282194E+01  0.33989984957E+01  0.68339422029E+01  0.51100000000E-03 0. -1.
        -11    1    3    3    0    0  0.28744806203E+01  0.93326148306E-01 -0.40507870378E+00  0.29043824858E+01  0.51100000000E-03 0.  1.
        -12    1    3    3    0    0  0.11246491470E+02  0.13423200202E+02  0.33779530327E+02  0.38048949304E+02  0.00000000000E+00 0.  1.
</event>
