<event>
 7    1  0.5913457E-013  0.5052885E+02  0.7816164E-02  0.1300439E+00
        -11   -1    0    0    0    0  0.00000000000E+00  0.00000000000E+00  0.45593999997E+02  0.45594000000E+02  0.51100000000E-03 0.  1.
         11   -1    0    0    0    0 -0.00000000000E+00 -0.00000000000E+00 -0.45593999997E+02  0.45594000000E+02  0.51100000000E-03 0. -1.
    9900012    2    1    2    0    0 -0.26530122556E+02 -0.20745263444E+02 -0.22780541415E+02  0.50528850656E+02  0.29999972053E+02 0.  0.
        -12    1    1    2    0    0  0.26530122556E+02  0.20745263444E+02  0.22780541415E+02  0.40659149344E+02  0.00000000000E+00 0.  1.
         11    1    3    3    0    0 -0.10305424509E+02  0.11662218593E+01  0.88523741427E-01  0.10371580614E+02  0.51100000000E-03 0. -1.
        -11    1    3    3    0    0  0.33315267790E+01 -0.35493184409E+01  0.59023269508E-01  0.48682867707E+01  0.51100000000E-03 0.  1.
         12    1    3    3    0    0 -0.19556224827E+02 -0.18362166863E+02 -0.22928088426E+02  0.35288983270E+02  0.00000000000E+00 0. -1.
</event>
<event>
 7    1  0.5913457E-013  0.5052887E+02  0.7816164E-02  0.1300439E+00
        -11   -1    0    0    0    0  0.00000000000E+00  0.00000000000E+00  0.45593999997E+02  0.45594000000E+02  0.51100000000E-03 0.  1.
         11   -1    0    0    0    0 -0.00000000000E+00 -0.00000000000E+00 -0.45593999997E+02  0.45594000000E+02  0.51100000000E-03 0. -1.
    9900012    2    1    2    0    0  0.24288165316E+02 -0.12363598280E+02 -0.30172696094E+02  0.50528866630E+02  0.30000020608E+02 0.  0.
        -12    1    1    2    0    0 -0.24288165316E+02  0.12363598280E+02  0.30172696094E+02  0.40659133370E+02  0.00000000000E+00 0.  1.
         11    1    3    3    0    0  0.87729430226E+01  0.26807242315E+01  0.15436096004E+01  0.93023407023E+01  0.51100000000E-03 0.  1.
        -11    1    3    3    0    0  0.85326444685E+01  0.42017292200E+00 -0.60880794322E+01  0.10490342146E+02  0.51100000000E-03 0. -1.
         12    1    3    3    0    0  0.69825778253E+01 -0.15464495433E+02 -0.25628226262E+02  0.30736183781E+02  0.00000000000E+00 0. -1.
</event>
<event>
 7    1  0.5913457E-013  0.5052884E+02  0.7816164E-02  0.1300439E+00
        -11   -1    0    0    0    0  0.00000000000E+00  0.00000000000E+00  0.45593999997E+02  0.45594000000E+02  0.51100000000E-03 0.  1.
         11   -1    0    0    0    0 -0.00000000000E+00 -0.00000000000E+00 -0.45593999997E+02  0.45594000000E+02  0.51100000000E-03 0. -1.
    9900012    2    1    2    0    0 -0.17809488777E+01  0.36855908503E+02 -0.17077404358E+02  0.50528837317E+02  0.29999931508E+02 0.  0.
        -12    1    1    2    0    0  0.17809488777E+01 -0.36855908503E+02  0.17077404358E+02  0.40659162683E+02  0.00000000000E+00 0.  1.
         11    1    3    3    0    0 -0.63265695857E+01  0.19831627480E+02 -0.18090278270E+02  0.27578562315E+02  0.51100000000E-03 0.  1.
        -11    1    3    3    0    0  0.67212829928E+01  0.17027969904E+01 -0.19311622974E+01  0.71975378249E+01  0.51100000000E-03 0. -1.
        -12    1    3    3    0    0 -0.21756622849E+01  0.15321484033E+02  0.29440362097E+01  0.15752737176E+02  0.00000000000E+00 0.  1.
</event>
<event>
 7    1  0.5913457E-013  0.5052889E+02  0.7816164E-02  0.1300439E+00
        -11   -1    0    0    0    0  0.00000000000E+00  0.00000000000E+00  0.45593999997E+02  0.45594000000E+02  0.51100000000E-03 0.  1.
         11   -1    0    0    0    0 -0.00000000000E+00 -0.00000000000E+00 -0.45593999997E+02  0.45594000000E+02  0.51100000000E-03 0. -1.
    9900012    2    1    2    0    0  0.35762445076E+02 -0.18953781881E+02  0.38684869163E+01  0.50528886428E+02  0.30000080787E+02 0.  0.
        -12    1    1    2    0    0 -0.35762445076E+02  0.18953781881E+02 -0.38684869163E+01  0.40659113572E+02  0.00000000000E+00 0.  1.
         11    1    3    3    0    0  0.29481159556E+02 -0.99425531750E+01  0.95407689709E+01  0.32542578343E+02  0.51100000000E-03 0. -1.
        -11    1    3    3    0    0  0.50597113587E+01 -0.37818014666E+01  0.36003582323E+01  0.72708514651E+01  0.51100000000E-03 0.  1.
         12    1    3    3    0    0  0.12215741619E+01 -0.52294272393E+01 -0.92726402869E+01  0.10715456620E+02  0.00000000000E+00 0. -1.
</event>
<event>
 7    1  0.5913457E-013  0.5052886E+02  0.7816164E-02  0.1300439E+00
        -11   -1    0    0    0    0  0.00000000000E+00  0.00000000000E+00  0.45593999997E+02  0.45594000000E+02  0.51100000000E-03 0. -1.
         11   -1    0    0    0    0 -0.00000000000E+00 -0.00000000000E+00 -0.45593999997E+02  0.45594000000E+02  0.51100000000E-03 0.  1.
    9900012    2    1    2    0    0 -0.21928073356E+02 -0.23663947814E+02  0.24745557583E+02  0.50528862683E+02  0.30000008613E+02 0.  0.
        -12    1    1    2    0    0  0.21928073356E+02  0.23663947814E+02 -0.24745557583E+02  0.40659137317E+02  0.00000000000E+00 0.  1.
         11    1    3    3    0    0 -0.92872775249E+01 -0.17117907955E+02  0.96873482528E+01  0.21751345085E+02  0.51100000000E-03 0. -1.
        -11    1    3    3    0    0 -0.13678639463E+02 -0.10890807559E+02  0.56705254975E+01  0.18381232997E+02  0.51100000000E-03 0.  1.
        -12    1    3    3    0    0  0.10378436317E+01  0.43447676995E+01  0.93876838325E+01  0.10396284601E+02  0.00000000000E+00 0.  1.
</event>
<event>
 7    1  0.5913457E-013  0.5052886E+02  0.7816164E-02  0.1300439E+00
        -11   -1    0    0    0    0  0.00000000000E+00  0.00000000000E+00  0.45593999997E+02  0.45594000000E+02  0.51100000000E-03 0.  1.
         11   -1    0    0    0    0 -0.00000000000E+00 -0.00000000000E+00 -0.45593999997E+02  0.45594000000E+02  0.51100000000E-03 0. -1.
    9900012    2    1    2    0    0 -0.36722755252E+01 -0.12132792096E+02 -0.38632574567E+02  0.50528855035E+02  0.29999985366E+02 0.  0.
        -12    1    1    2    0    0  0.36722755252E+01  0.12132792096E+02  0.38632574567E+02  0.40659144965E+02  0.00000000000E+00 0.  1.
         11    1    3    3    0    0 -0.50533578821E+01  0.33194569496E+01 -0.55296268158E+01  0.81934115793E+01  0.51100000000E-03 0. -1.
        -11    1    3    3    0    0  0.86321350930E+01 -0.93565534829E+01 -0.69155296769E+01  0.14487353116E+02  0.51100000000E-03 0.  1.
         12    1    3    3    0    0 -0.72510527361E+01 -0.60956955632E+01 -0.26187418074E+02  0.27848090340E+02  0.00000000000E+00 0. -1.
</event>
<event>
 7    1  0.5913457E-013  0.5052886E+02  0.7816164E-02  0.1300439E+00
        -11   -1    0    0    0    0  0.00000000000E+00  0.00000000000E+00  0.45593999997E+02  0.45594000000E+02  0.51100000000E-03 0.  1.
         11   -1    0    0    0    0 -0.00000000000E+00 -0.00000000000E+00 -0.45593999997E+02  0.45594000000E+02  0.51100000000E-03 0. -1.
    9900012    2    1    2    0    0  0.68814059919E+01 -0.48424008209E+00 -0.40069657710E+02  0.50528859504E+02  0.29999998947E+02 0.  0.
        -12    1    1    2    0    0 -0.68814059919E+01  0.48424008209E+00  0.40069657710E+02  0.40659140496E+02  0.00000000000E+00 0.  1.
         11    1    3    3    0    0  0.21128769728E+01 -0.77355605864E+01 -0.33511821582E+02  0.34457877658E+02  0.51100000000E-03 0. -1.
        -11    1    3    3    0    0  0.26710347110E+01  0.18416440260E+01 -0.91559355700E+01  0.97137652622E+01  0.51100000000E-03 0.  1.
        -12    1    3    3    0    0  0.20974943081E+01  0.54096764783E+01  0.25980994421E+01  0.63572165830E+01  0.00000000000E+00 0.  1.
</event>
<event>
 7    1  0.5913457E-013  0.5052886E+02  0.7816164E-02  0.1300439E+00
        -11   -1    0    0    0    0  0.00000000000E+00  0.00000000000E+00  0.45593999997E+02  0.45594000000E+02  0.51100000000E-03 0.  1.
         11   -1    0    0    0    0 -0.00000000000E+00 -0.00000000000E+00 -0.45593999997E+02  0.45594000000E+02  0.51100000000E-03 0. -1.
    9900012    2    1    2    0    0  0.73209091387E+01  0.19677843595E+02 -0.34818850666E+02  0.50528860795E+02  0.30000002872E+02 0.  0.
        -12    1    1    2    0    0 -0.73209091387E+01 -0.19677843595E+02  0.34818850666E+02  0.40659139205E+02  0.00000000000E+00 0.  1.
         11    1    3    3    0    0 -0.57816385806E+00  0.76219726312E+01 -0.99520992233E+01  0.12548825421E+02  0.51100000000E-03 0. -1.
        -11    1    3    3    0    0  0.11021289652E+02  0.18269032565E+02 -0.15777212948E+02  0.26535765018E+02  0.51100000000E-03 0.  1.
        -12    1    3    3    0    0 -0.31222166550E+01 -0.62131616008E+01 -0.90895384953E+01  0.11444270356E+02  0.00000000000E+00 0.  1.
</event>
<event>
 7    1  0.5913457E-013  0.5052886E+02  0.7816164E-02  0.1300439E+00
        -11   -1    0    0    0    0  0.00000000000E+00  0.00000000000E+00  0.45593999997E+02  0.45594000000E+02  0.51100000000E-03 0. -1.
         11   -1    0    0    0    0 -0.00000000000E+00 -0.00000000000E+00 -0.45593999997E+02  0.45594000000E+02  0.51100000000E-03 0.  1.
    9900012    2    1    2    0    0  0.25709793629E+02 -0.26042795326E+02 -0.17718489617E+02  0.50528861407E+02  0.30000004733E+02 0.  0.
        -12    1    1    2    0    0 -0.25709793629E+02  0.26042795326E+02  0.17718489617E+02  0.40659138593E+02  0.00000000000E+00 0.  1.
         11    1    3    3    0    0  0.19207398381E+02 -0.13275654807E+02 -0.19593080503E+01  0.23430878162E+02  0.51100000000E-03 0. -1.
        -11    1    3    3    0    0 -0.45204108775E+01 -0.89432693130E+01 -0.48814323120E+01  0.11146504483E+02  0.51100000000E-03 0.  1.
        -12    1    3    3    0    0  0.11022806125E+02 -0.38238712054E+01 -0.10877749255E+02  0.15951478763E+02  0.00000000000E+00 0.  1.
</event>
<event>
 7    1  0.5913457E-013  0.5052886E+02  0.7816164E-02  0.1300439E+00
        -11   -1    0    0    0    0  0.00000000000E+00  0.00000000000E+00  0.45593999997E+02  0.45594000000E+02  0.51100000000E-03 0.  1.
         11   -1    0    0    0    0 -0.00000000000E+00 -0.00000000000E+00 -0.45593999997E+02  0.45594000000E+02  0.51100000000E-03 0. -1.
    9900012    2    1    2    0    0 -0.23742811724E+02 -0.92781029344E+01 -0.31675882451E+02  0.50528857957E+02  0.29999994246E+02 0.  0.
        -12    1    1    2    0    0  0.23742811724E+02  0.92781029344E+01  0.31675882451E+02  0.40659142043E+02  0.00000000000E+00 0.  1.
         11    1    3    3    0    0 -0.94295325537E+01 -0.71439471181E+01  0.93654580831E+00  0.11867147211E+02  0.51100000000E-03 0. -1.
        -11    1    3    3    0    0 -0.16234920202E+02 -0.44215301030E+01 -0.22365511666E+02  0.27988188129E+02  0.51100000000E-03 0.  1.
        -12    1    3    3    0    0  0.19216410319E+01  0.22873742867E+01 -0.10246916594E+02  0.10673522617E+02  0.00000000000E+00 0.  1.
</event>
<event>
 7    1  0.5913457E-013  0.5052886E+02  0.7816164E-02  0.1300439E+00
        -11   -1    0    0    0    0  0.00000000000E+00  0.00000000000E+00  0.45593999997E+02  0.45594000000E+02  0.51100000000E-03 0.  1.
         11   -1    0    0    0    0 -0.00000000000E+00 -0.00000000000E+00 -0.45593999997E+02  0.45594000000E+02  0.51100000000E-03 0. -1.
    9900012    2    1    2    0    0  0.11380619156E+02  0.11588955997E+02 -0.37273892859E+02  0.50528862253E+02  0.30000007303E+02 0.  0.
        -12    1    1    2    0    0 -0.11380619156E+02 -0.11588955997E+02  0.37273892859E+02  0.40659137747E+02  0.00000000000E+00 0.  1.
         11    1    3    3    0    0  0.50518829678E+01  0.24488662834E+01 -0.16372517535E+02  0.17308315871E+02  0.51100000000E-03 0. -1.
        -11    1    3    3    0    0  0.33401549217E+01  0.79010536537E+01 -0.25890341854E+02  0.27274403482E+02  0.51100000000E-03 0.  1.
        -12    1    3    3    0    0  0.29885812662E+01  0.12390360603E+01  0.49889665297E+01  0.59461428993E+01  0.00000000000E+00 0.  1.
</event>
<event>
 7    1  0.5913457E-013  0.5052885E+02  0.7816164E-02  0.1300439E+00
        -11   -1    0    0    0    0  0.00000000000E+00  0.00000000000E+00  0.45593999997E+02  0.45594000000E+02  0.51100000000E-03 0.  1.
         11   -1    0    0    0    0 -0.00000000000E+00 -0.00000000000E+00 -0.45593999997E+02  0.45594000000E+02  0.51100000000E-03 0. -1.
    9900012    2    1    2    0    0 -0.28855127010E+02  0.25131414368E+02  0.13746282232E+02  0.50528848286E+02  0.29999964850E+02 0.  0.
        -12    1    1    2    0    0  0.28855127010E+02 -0.25131414368E+02 -0.13746282232E+02  0.40659151714E+02  0.00000000000E+00 0.  1.
         11    1    3    3    0    0  0.21552625130E+01  0.56740818234E+01  0.86640357936E+00  0.61311513162E+01  0.51100000000E-03 0. -1.
        -11    1    3    3    0    0 -0.75889100430E+01  0.13601857730E+02  0.12948885976E+02  0.20255264442E+02  0.51100000000E-03 0.  1.
        -12    1    3    3    0    0 -0.23421479480E+02  0.58554748151E+01 -0.69007324121E-01  0.24142432527E+02  0.00000000000E+00 0.  1.
</event>
<event>
 7    1  0.5913457E-013  0.5052886E+02  0.7816164E-02  0.1300439E+00
        -11   -1    0    0    0    0  0.00000000000E+00  0.00000000000E+00  0.45593999997E+02  0.45594000000E+02  0.51100000000E-03 0.  1.
         11   -1    0    0    0    0 -0.00000000000E+00 -0.00000000000E+00 -0.45593999997E+02  0.45594000000E+02  0.51100000000E-03 0. -1.
    9900012    2    1    2    0    0  0.48478976576E+01 -0.26455326646E+02 -0.30492275941E+02  0.50528864351E+02  0.30000013681E+02 0.  0.
        -12    1    1    2    0    0 -0.48478976576E+01  0.26455326646E+02  0.30492275941E+02  0.40659135649E+02  0.00000000000E+00 0.  1.
         11    1    3    3    0    0  0.56513010026E+01 -0.17421532202E+02 -0.16841826837E+02  0.24881602013E+02  0.51100000000E-03 0. -1.
        -11    1    3    3    0    0 -0.91783987814E+01 -0.96441733976E+01 -0.82015837537E+01  0.15637105264E+02  0.51100000000E-03 0.  1.
        -12    1    3    3    0    0  0.83749954364E+01  0.61037895357E+00 -0.54488653508E+01  0.10010157074E+02  0.00000000000E+00 0.  1.
</event>
<event>
 7    1  0.5913457E-013  0.5052886E+02  0.7816164E-02  0.1300439E+00
        -11   -1    0    0    0    0  0.00000000000E+00  0.00000000000E+00  0.45593999997E+02  0.45594000000E+02  0.51100000000E-03 0.  1.
         11   -1    0    0    0    0 -0.00000000000E+00 -0.00000000000E+00 -0.45593999997E+02  0.45594000000E+02  0.51100000000E-03 0. -1.
    9900012    2    1    2    0    0  0.34864124946E+02 -0.74421015980E+00 -0.20907045736E+02  0.50528860580E+02  0.30000002219E+02 0.  0.
        -12    1    1    2    0    0 -0.34864124946E+02  0.74421015980E+00  0.20907045736E+02  0.40659139420E+02  0.00000000000E+00 0.  1.
         11    1    3    3    0    0  0.11015983760E+02 -0.76820865572E+01 -0.53309296503E+01  0.14449400100E+02  0.51100000000E-03 0. -1.
        -11    1    3    3    0    0  0.66829628459E+01 -0.29397860503E+01  0.39218829477E+01  0.82876715994E+01  0.51100000000E-03 0.  1.
         12    1    3    3    0    0  0.17165178340E+02  0.98776624477E+01 -0.19497999033E+02  0.27791788880E+02  0.00000000000E+00 0. -1.
</event>
<event>
 7    1  0.5913457E-013  0.5052886E+02  0.7816164E-02  0.1300439E+00
        -11   -1    0    0    0    0  0.00000000000E+00  0.00000000000E+00  0.45593999997E+02  0.45594000000E+02  0.51100000000E-03 0.  1.
         11   -1    0    0    0    0 -0.00000000000E+00 -0.00000000000E+00 -0.45593999997E+02  0.45594000000E+02  0.51100000000E-03 0. -1.
    9900012    2    1    2    0    0  0.18623389950E+02  0.31208834852E+02 -0.18230293146E+02  0.50528860631E+02  0.30000002373E+02 0.  0.
        -12    1    1    2    0    0 -0.18623389950E+02 -0.31208834852E+02  0.18230293146E+02  0.40659139369E+02  0.00000000000E+00 0.  1.
         11    1    3    3    0    0  0.37174904052E+01  0.84221069046E+00 -0.13049600189E+02  0.13594893126E+02  0.51100000000E-03 0. -1.
        -11    1    3    3    0    0 -0.21134925528E+01  0.21475686003E+01  0.14108564308E+01  0.33270734578E+01  0.51100000000E-03 0.  1.
         12    1    3    3    0    0  0.17019392098E+02  0.28219055561E+02 -0.65915493882E+01  0.33606894047E+02  0.00000000000E+00 0. -1.
</event>
<event>
 7    1  0.5913457E-013  0.5052885E+02  0.7816164E-02  0.1300439E+00
        -11   -1    0    0    0    0  0.00000000000E+00  0.00000000000E+00  0.45593999997E+02  0.45594000000E+02  0.51100000000E-03 0.  1.
         11   -1    0    0    0    0 -0.00000000000E+00 -0.00000000000E+00 -0.45593999997E+02  0.45594000000E+02  0.51100000000E-03 0. -1.
    9900012    2    1    2    0    0 -0.20124995542E+02 -0.35988059409E+01 -0.35145405799E+02  0.50528850987E+02  0.29999973059E+02 0.  0.
        -12    1    1    2    0    0  0.20124995542E+02  0.35988059409E+01  0.35145405799E+02  0.40659149013E+02  0.00000000000E+00 0.  1.
         11    1    3    3    0    0 -0.18940935847E+02 -0.49434025445E+01 -0.15629283851E+02  0.25049367126E+02  0.51100000000E-03 0. -1.
        -11    1    3    3    0    0 -0.47910533650E+01 -0.61156658638E+01 -0.69309659080E+01  0.10411236717E+02  0.51100000000E-03 0.  1.
         12    1    3    3    0    0  0.36069936703E+01  0.74602624674E+01 -0.12585156040E+02  0.15068247143E+02  0.00000000000E+00 0. -1.
</event>
<event>
 7    1  0.5913457E-013  0.5052888E+02  0.7816164E-02  0.1300439E+00
        -11   -1    0    0    0    0  0.00000000000E+00  0.00000000000E+00  0.45593999997E+02  0.45594000000E+02  0.51100000000E-03 0. -1.
         11   -1    0    0    0    0 -0.00000000000E+00 -0.00000000000E+00 -0.45593999997E+02  0.45594000000E+02  0.51100000000E-03 0.  1.
    9900012    2    1    2    0    0  0.24766697024E+01  0.39196976220E+02  0.10517950380E+02  0.50528879033E+02  0.30000058308E+02 0.  0.
        -12    1    1    2    0    0 -0.24766697024E+01 -0.39196976220E+02 -0.10517950380E+02  0.40659120967E+02  0.00000000000E+00 0.  1.
         11    1    3    3    0    0  0.95498781478E+01  0.54617907546E+01 -0.44629511460E+01  0.11872205527E+02  0.51100000000E-03 0.  1.
        -11    1    3    3    0    0  0.50898844153E-01  0.19441586771E+02  0.10366836674E+02  0.22032911513E+02  0.51100000000E-03 0. -1.
        -12    1    3    3    0    0 -0.71241072895E+01  0.14293598695E+02  0.46140648521E+01  0.16623761992E+02  0.00000000000E+00 0.  1.
</event>
<event>
 7    1  0.5913457E-013  0.5052886E+02  0.7816164E-02  0.1300439E+00
        -11   -1    0    0    0    0  0.00000000000E+00  0.00000000000E+00  0.45593999997E+02  0.45594000000E+02  0.51100000000E-03 0.  1.
         11   -1    0    0    0    0 -0.00000000000E+00 -0.00000000000E+00 -0.45593999997E+02  0.45594000000E+02  0.51100000000E-03 0. -1.
    9900012    2    1    2    0    0  0.13850880178E+02  0.18470135706E+02 -0.33468987081E+02  0.50528857228E+02  0.29999992031E+02 0.  0.
        -12    1    1    2    0    0 -0.13850880178E+02 -0.18470135706E+02  0.33468987081E+02  0.40659142772E+02  0.00000000000E+00 0.  1.
         11    1    3    3    0    0 -0.28275934363E+01 -0.32749365109E+01 -0.16986225232E+01  0.46482053019E+01  0.51100000000E-03 0. -1.
        -11    1    3    3    0    0 -0.26450046647E+01  0.96215513204E+01 -0.12675158268E+02  0.16131643960E+02  0.51100000000E-03 0.  1.
         12    1    3    3    0    0  0.19323478279E+02  0.12123520897E+02 -0.19095206290E+02  0.29749007966E+02  0.00000000000E+00 0. -1.
</event>
<event>
 7    1  0.5913457E-013  0.5052887E+02  0.7816164E-02  0.1300439E+00
        -11   -1    0    0    0    0  0.00000000000E+00  0.00000000000E+00  0.45593999997E+02  0.45594000000E+02  0.51100000000E-03 0.  1.
         11   -1    0    0    0    0 -0.00000000000E+00 -0.00000000000E+00 -0.45593999997E+02  0.45594000000E+02  0.51100000000E-03 0. -1.
    9900012    2    1    2    0    0  0.10782462313E+02  0.12786725065E+02 -0.37059457607E+02  0.50528865362E+02  0.30000016753E+02 0.  0.
        -12    1    1    2    0    0 -0.10782462313E+02 -0.12786725065E+02  0.37059457607E+02  0.40659134638E+02  0.00000000000E+00 0.  1.
         11    1    3    3    0    0  0.11308874402E+02  0.10219051195E+02 -0.40153428587E+01  0.15762062876E+02  0.51100000000E-03 0. -1.
        -11    1    3    3    0    0  0.70188972018E+00 -0.14212294761E+01 -0.13143794696E+00  0.15905403478E+01  0.51100000000E-03 0.  1.
         12    1    3    3    0    0 -0.12283018093E+01  0.39889033461E+01 -0.32912676801E+02  0.33176262138E+02  0.00000000000E+00 0. -1.
</event>
<event>
 7    1  0.5913457E-013  0.5052886E+02  0.7816164E-02  0.1300439E+00
        -11   -1    0    0    0    0  0.00000000000E+00  0.00000000000E+00  0.45593999997E+02  0.45594000000E+02  0.51100000000E-03 0.  1.
         11   -1    0    0    0    0 -0.00000000000E+00 -0.00000000000E+00 -0.45593999997E+02  0.45594000000E+02  0.51100000000E-03 0. -1.
    9900012    2    1    2    0    0 -0.39841430230E+01 -0.30767662541E+02  0.26280099145E+02  0.50528855089E+02  0.29999985528E+02 0.  0.
        -12    1    1    2    0    0  0.39841430230E+01  0.30767662541E+02 -0.26280099145E+02  0.40659144911E+02  0.00000000000E+00 0.  1.
         11    1    3    3    0    0 -0.60940238485E+01 -0.10735742490E+02  0.10412193921E+02  0.16149522469E+02  0.51100000000E-03 0. -1.
        -11    1    3    3    0    0 -0.10248184985E+02 -0.11378958651E+02  0.93730782234E+01  0.17954403112E+02  0.51100000000E-03 0.  1.
        -12    1    3    3    0    0  0.12358065811E+02 -0.86529614000E+01  0.64948270009E+01  0.16424929508E+02  0.00000000000E+00 0.  1.
</event>
<event>
 7    1  0.5913457E-013  0.5052887E+02  0.7816164E-02  0.1300439E+00
        -11   -1    0    0    0    0  0.00000000000E+00  0.00000000000E+00  0.45593999997E+02  0.45594000000E+02  0.51100000000E-03 0. -1.
         11   -1    0    0    0    0 -0.00000000000E+00 -0.00000000000E+00 -0.45593999997E+02  0.45594000000E+02  0.51100000000E-03 0.  1.
    9900012    2    1    2    0    0 -0.11272148159E+02 -0.30697397591E+02  0.24161403257E+02  0.50528868795E+02  0.30000027190E+02 0.  0.
        -12    1    1    2    0    0  0.11272148159E+02  0.30697397591E+02 -0.24161403257E+02  0.40659131205E+02  0.00000000000E+00 0.  1.
         11    1    3    3    0    0 -0.60510218519E+01 -0.18156736534E+02  0.23115279564E+02  0.30009966621E+02  0.51100000000E-03 0. -1.
        -11    1    3    3    0    0  0.19167852127E+00  0.35296325451E+01  0.17674910215E+00  0.35392495059E+01  0.51100000000E-03 0.  1.
        -12    1    3    3    0    0 -0.54128048288E+01 -0.16070293602E+02  0.86937459160E+00  0.16979652669E+02  0.00000000000E+00 0.  1.
</event>
<event>
 7    1  0.5913457E-013  0.5052887E+02  0.7816164E-02  0.1300439E+00
        -11   -1    0    0    0    0  0.00000000000E+00  0.00000000000E+00  0.45593999997E+02  0.45594000000E+02  0.51100000000E-03 0. -1.
         11   -1    0    0    0    0 -0.00000000000E+00 -0.00000000000E+00 -0.45593999997E+02  0.45594000000E+02  0.51100000000E-03 0.  1.
    9900012    2    1    2    0    0  0.40359546680E+02 -0.47300052473E+01 -0.13779891156E+01  0.50528870498E+02  0.30000032365E+02 0.  0.
        -12    1    1    2    0    0 -0.40359546680E+02  0.47300052473E+01  0.13779891156E+01  0.40659129502E+02  0.00000000000E+00 0.  1.
         11    1    3    3    0    0  0.12987354754E+02  0.18037355414E+01 -0.69743477322E+01  0.14851477097E+02  0.51100000000E-03 0. -1.
        -11    1    3    3    0    0  0.30486424186E+02 -0.31702436608E+01  0.49623689897E+01  0.31049921268E+02  0.51100000000E-03 0.  1.
        -12    1    3    3    0    0 -0.31142322593E+01 -0.33634971278E+01  0.63398962690E+00  0.46274721329E+01  0.00000000000E+00 0.  1.
</event>
<event>
 7    1  0.5913457E-013  0.5052884E+02  0.7816164E-02  0.1300439E+00
        -11   -1    0    0    0    0  0.00000000000E+00  0.00000000000E+00  0.45593999997E+02  0.45594000000E+02  0.51100000000E-03 0.  1.
         11   -1    0    0    0    0 -0.00000000000E+00 -0.00000000000E+00 -0.45593999997E+02  0.45594000000E+02  0.51100000000E-03 0. -1.
    9900012    2    1    2    0    0 -0.21153173377E+02  0.35849467474E+00 -0.34721497176E+02  0.50528835861E+02  0.29999927082E+02 0.  0.
        -12    1    1    2    0    0  0.21153173377E+02 -0.35849467474E+00  0.34721497176E+02  0.40659164139E+02  0.00000000000E+00 0.  1.
         11    1    3    3    0    0 -0.85303760758E+01 -0.18124214300E+00 -0.10781883789E+01  0.86001543678E+01  0.51100000000E-03 0. -1.
        -11    1    3    3    0    0 -0.72777534433E+01 -0.10189963007E+02 -0.12949446181E+02  0.18013583706E+02  0.51100000000E-03 0.  1.
        -12    1    3    3    0    0 -0.53450438579E+01  0.10729699825E+02 -0.20693862617E+02  0.23915097787E+02  0.00000000000E+00 0.  1.
</event>
<event>
 7    1  0.5913457E-013  0.5052879E+02  0.7816164E-02  0.1300439E+00
        -11   -1    0    0    0    0  0.00000000000E+00  0.00000000000E+00  0.45593999997E+02  0.45594000000E+02  0.51100000000E-03 0. -1.
         11   -1    0    0    0    0 -0.00000000000E+00 -0.00000000000E+00 -0.45593999997E+02  0.45594000000E+02  0.51100000000E-03 0.  1.
    9900012    2    1    2    0    0  0.34163096691E+02 -0.57395122093E+01  0.21286425768E+02  0.50528793197E+02  0.29999797400E+02 0.  0.
        -12    1    1    2    0    0 -0.34163096691E+02  0.57395122093E+01 -0.21286425768E+02  0.40659206803E+02  0.00000000000E+00 0.  1.
         11    1    3    3    0    0  0.29430619735E+01 -0.30197824363E+01 -0.81687372461E+00  0.42951114870E+01  0.51100000000E-03 0. -1.
        -11    1    3    3    0    0  0.24326696780E+02 -0.62611311225E+01  0.26080516874E+01  0.25254541631E+02  0.51100000000E-03 0.  1.
        -12    1    3    3    0    0  0.68933379378E+01  0.35414013494E+01  0.19495247805E+02  0.20979140078E+02  0.00000000000E+00 0.  1.
</event>
<event>
 7    1  0.5913457E-013  0.5052886E+02  0.7816164E-02  0.1300439E+00
        -11   -1    0    0    0    0  0.00000000000E+00  0.00000000000E+00  0.45593999997E+02  0.45594000000E+02  0.51100000000E-03 0. -1.
         11   -1    0    0    0    0 -0.00000000000E+00 -0.00000000000E+00 -0.45593999997E+02  0.45594000000E+02  0.51100000000E-03 0.  1.
    9900012    2    1    2    0    0  0.91485043406E+01 -0.33612533924E+01  0.39473691808E+02  0.50528862023E+02  0.30000006605E+02 0.  0.
        -12    1    1    2    0    0 -0.91485043406E+01  0.33612533924E+01 -0.39473691808E+02  0.40659137977E+02  0.00000000000E+00 0.  1.
         11    1    3    3    0    0 -0.24720209264E+01 -0.25797509396E+01  0.23393379222E+01  0.42706562197E+01  0.51100000000E-03 0.  1.
        -11    1    3    3    0    0  0.32839076499E+01 -0.12654980679E+02  0.17859579287E+02  0.22133620536E+02  0.51100000000E-03 0. -1.
         12    1    3    3    0    0  0.83366176171E+01  0.11873478227E+02  0.19274774599E+02  0.24124585268E+02  0.00000000000E+00 0. -1.
</event>
<event>
 7    1  0.5913457E-013  0.5052887E+02  0.7816164E-02  0.1300439E+00
        -11   -1    0    0    0    0  0.00000000000E+00  0.00000000000E+00  0.45593999997E+02  0.45594000000E+02  0.51100000000E-03 0. -1.
         11   -1    0    0    0    0 -0.00000000000E+00 -0.00000000000E+00 -0.45593999997E+02  0.45594000000E+02  0.51100000000E-03 0.  1.
    9900012    2    1    2    0    0 -0.19147218688E+02  0.35450872779E+02  0.54574848027E+01  0.50528874276E+02  0.30000043850E+02 0.  0.
        -12    1    1    2    0    0  0.19147218688E+02 -0.35450872779E+02 -0.54574848027E+01  0.40659125724E+02  0.00000000000E+00 0.  1.
         11    1    3    3    0    0 -0.17731763664E+01  0.41406804527E+01 -0.54514332433E+01  0.70715990911E+01  0.51100000000E-03 0. -1.
        -11    1    3    3    0    0  0.48037981995E+01  0.50182585644E+01 -0.10818322396E+01  0.70306299445E+01  0.51100000000E-03 0.  1.
        -12    1    3    3    0    0 -0.22177840521E+02  0.26291933761E+02  0.11990750286E+02  0.36426645241E+02  0.00000000000E+00 0.  1.
</event>
<event>
 7    1  0.5913457E-013  0.5052886E+02  0.7816164E-02  0.1300439E+00
        -11   -1    0    0    0    0  0.00000000000E+00  0.00000000000E+00  0.45593999997E+02  0.45594000000E+02  0.51100000000E-03 0. -1.
         11   -1    0    0    0    0 -0.00000000000E+00 -0.00000000000E+00 -0.45593999997E+02  0.45594000000E+02  0.51100000000E-03 0.  1.
    9900012    2    1    2    0    0 -0.29524271149E+02  0.21543900737E+02  0.17814137096E+02  0.50528859252E+02  0.29999998184E+02 0.  0.
        -12    1    1    2    0    0  0.29524271149E+02 -0.21543900737E+02 -0.17814137096E+02  0.40659140748E+02  0.00000000000E+00 0.  1.
         11    1    3    3    0    0 -0.32057661027E+02  0.24775246273E+02  0.15802020777E+02  0.43488048005E+02  0.51100000000E-03 0. -1.
        -11    1    3    3    0    0 -0.65531512573E+00  0.11476444423E+01  0.53790471971E+00  0.14268382629E+01  0.51100000000E-03 0.  1.
        -12    1    3    3    0    0  0.31887050033E+01 -0.43789899784E+01  0.14742115986E+01  0.56139729841E+01  0.00000000000E+00 0.  1.
</event>
<event>
 7    1  0.5913457E-013  0.5052886E+02  0.7816164E-02  0.1300439E+00
        -11   -1    0    0    0    0  0.00000000000E+00  0.00000000000E+00  0.45593999997E+02  0.45594000000E+02  0.51100000000E-03 0.  1.
         11   -1    0    0    0    0 -0.00000000000E+00 -0.00000000000E+00 -0.45593999997E+02  0.45594000000E+02  0.51100000000E-03 0. -1.
    9900012    2    1    2    0    0  0.83878552924E+01  0.26138749911E+02 -0.29992922243E+02  0.50528858986E+02  0.29999997374E+02 0.  0.
        -12    1    1    2    0    0 -0.83878552924E+01 -0.26138749911E+02  0.29992922243E+02  0.40659141014E+02  0.00000000000E+00 0.  1.
         11    1    3    3    0    0 -0.32876265589E+01  0.65889603577E+01  0.19679175683E+01  0.76220461034E+01  0.51100000000E-03 0. -1.
        -11    1    3    3    0    0  0.24592810354E+01 -0.13559983527E+01  0.84178358483E+00  0.29317903419E+01  0.51100000000E-03 0.  1.
         12    1    3    3    0    0  0.92162008159E+01  0.20905787906E+02 -0.32802623396E+02  0.39975022541E+02  0.00000000000E+00 0. -1.
</event>
<event>
 7    1  0.5913457E-013  0.5052888E+02  0.7816164E-02  0.1300439E+00
        -11   -1    0    0    0    0  0.00000000000E+00  0.00000000000E+00  0.45593999997E+02  0.45594000000E+02  0.51100000000E-03 0.  1.
         11   -1    0    0    0    0 -0.00000000000E+00 -0.00000000000E+00 -0.45593999997E+02  0.45594000000E+02  0.51100000000E-03 0. -1.
    9900012    2    1    2    0    0  0.35080526833E+02 -0.13770610850E+02 -0.15260767121E+02  0.50528879262E+02  0.30000059006E+02 0.  0.
        -12    1    1    2    0    0 -0.35080526833E+02  0.13770610850E+02  0.15260767121E+02  0.40659120738E+02  0.00000000000E+00 0.  1.
         11    1    3    3    0    0  0.56654324667E+01  0.12410398585E+01  0.14248277114E+01  0.59722223027E+01  0.51100000000E-03 0. -1.
        -11    1    3    3    0    0  0.45834797894E+01  0.58806484426E+01  0.11227935408E+01  0.75399587984E+01  0.51100000000E-03 0.  1.
        -12    1    3    3    0    0  0.24831614577E+02 -0.20892299151E+02 -0.17808388373E+02  0.37016698161E+02  0.00000000000E+00 0.  1.
</event>
<event>
 7    1  0.5913457E-013  0.5052886E+02  0.7816164E-02  0.1300439E+00
        -11   -1    0    0    0    0  0.00000000000E+00  0.00000000000E+00  0.45593999997E+02  0.45594000000E+02  0.51100000000E-03 0. -1.
         11   -1    0    0    0    0 -0.00000000000E+00 -0.00000000000E+00 -0.45593999997E+02  0.45594000000E+02  0.51100000000E-03 0.  1.
    9900012    2    1    2    0    0  0.16602690436E+02 -0.33218591011E+02 -0.16554189044E+02  0.50528864576E+02  0.30000014365E+02 0.  0.
        -12    1    1    2    0    0 -0.16602690436E+02  0.33218591011E+02  0.16554189044E+02  0.40659135424E+02  0.00000000000E+00 0.  1.
         11    1    3    3    0    0 -0.33427552568E+01 -0.69293385736E+01 -0.62859350255E+01  0.99349245181E+01  0.51100000000E-03 0. -1.
        -11    1    3    3    0    0 -0.49943108309E+00  0.32192647242E+01 -0.17500138879E+01  0.36980597129E+01  0.51100000000E-03 0.  1.
         12    1    3    3    0    0  0.20444876776E+02 -0.29508517162E+02 -0.85182401310E+01  0.36895880345E+02  0.00000000000E+00 0. -1.
</event>
<event>
 7    1  0.5913457E-013  0.5052886E+02  0.7816164E-02  0.1300439E+00
        -11   -1    0    0    0    0  0.00000000000E+00  0.00000000000E+00  0.45593999997E+02  0.45594000000E+02  0.51100000000E-03 0. -1.
         11   -1    0    0    0    0 -0.00000000000E+00 -0.00000000000E+00 -0.45593999997E+02  0.45594000000E+02  0.51100000000E-03 0.  1.
    9900012    2    1    2    0    0  0.36752082334E+02 -0.14580953385E+02  0.94786908401E+01  0.50528864033E+02  0.30000012715E+02 0.  0.
        -12    1    1    2    0    0 -0.36752082334E+02  0.14580953385E+02 -0.94786908401E+01  0.40659135967E+02  0.00000000000E+00 0.  1.
         11    1    3    3    0    0  0.20582212928E+01  0.29143543494E+01  0.53423543972E+01  0.64242109967E+01  0.51100000000E-03 0. -1.
        -11    1    3    3    0    0  0.27839076138E+02 -0.21620043027E+02  0.34096754021E+00  0.35249917444E+02  0.51100000000E-03 0.  1.
         12    1    3    3    0    0  0.68547849033E+01  0.41247352922E+01  0.37953689027E+01  0.88547355923E+01  0.00000000000E+00 0. -1.
</event>
<event>
 7    1  0.5913457E-013  0.5052884E+02  0.7816164E-02  0.1300439E+00
        -11   -1    0    0    0    0  0.00000000000E+00  0.00000000000E+00  0.45593999997E+02  0.45594000000E+02  0.51100000000E-03 0.  1.
         11   -1    0    0    0    0 -0.00000000000E+00 -0.00000000000E+00 -0.45593999997E+02  0.45594000000E+02  0.51100000000E-03 0. -1.
    9900012    2    1    2    0    0  0.21098759461E+02 -0.32833505228E+02 -0.11400455779E+02  0.50528842257E+02  0.29999946526E+02 0.  0.
        -12    1    1    2    0    0 -0.21098759461E+02  0.32833505228E+02  0.11400455779E+02  0.40659157743E+02  0.00000000000E+00 0.  1.
         11    1    3    3    0    0  0.54817216193E+01 -0.33358884182E+01 -0.40412497142E+01  0.75834769706E+01  0.51100000000E-03 0. -1.
        -11    1    3    3    0    0  0.75070841996E+01 -0.57568863854E+01 -0.14089171595E+02  0.16970645554E+02  0.51100000000E-03 0.  1.
         12    1    3    3    0    0  0.81099536420E+01 -0.23740730424E+02  0.67299655296E+01  0.25974719733E+02  0.00000000000E+00 0. -1.
</event>
<event>
 7    1  0.5913457E-013  0.5052886E+02  0.7816164E-02  0.1300439E+00
        -11   -1    0    0    0    0  0.00000000000E+00  0.00000000000E+00  0.45593999997E+02  0.45594000000E+02  0.51100000000E-03 0. -1.
         11   -1    0    0    0    0 -0.00000000000E+00 -0.00000000000E+00 -0.45593999997E+02  0.45594000000E+02  0.51100000000E-03 0.  1.
    9900012    2    1    2    0    0  0.30322023960E+02  0.26552156063E+02  0.53594347638E+01  0.50528859950E+02  0.30000000303E+02 0.  0.
        -12    1    1    2    0    0 -0.30322023960E+02 -0.26552156063E+02 -0.53594347638E+01  0.40659140050E+02  0.00000000000E+00 0.  1.
         11    1    3    3    0    0  0.23176383146E+02  0.74893085877E+01  0.99187273379E+01  0.26298586105E+02  0.51100000000E-03 0. -1.
        -11    1    3    3    0    0  0.10306345524E+02  0.12660687651E+02 -0.50085674898E+01  0.17076285264E+02  0.51100000000E-03 0.  1.
        -12    1    3    3    0    0 -0.31607047090E+01  0.64021598238E+01  0.44927491571E+00  0.71539885810E+01  0.00000000000E+00 0.  1.
</event>
<event>
 7    1  0.5913457E-013  0.5052886E+02  0.7816164E-02  0.1300439E+00
        -11   -1    0    0    0    0  0.00000000000E+00  0.00000000000E+00  0.45593999997E+02  0.45594000000E+02  0.51100000000E-03 0.  1.
         11   -1    0    0    0    0 -0.00000000000E+00 -0.00000000000E+00 -0.45593999997E+02  0.45594000000E+02  0.51100000000E-03 0. -1.
    9900012    2    1    2    0    0 -0.68818422122E+01 -0.27344809493E+02 -0.29292786392E+02  0.50528859661E+02  0.29999999426E+02 0.  0.
        -12    1    1    2    0    0  0.68818422122E+01  0.27344809493E+02  0.29292786392E+02  0.40659140339E+02  0.00000000000E+00 0.  1.
         11    1    3    3    0    0 -0.10921020160E+00  0.13166183413E+01  0.66755925923E+00  0.14802183455E+01  0.51100000000E-03 0. -1.
        -11    1    3    3    0    0 -0.78599177306E+01 -0.15388343354E+01  0.77057084407E+00  0.80461231367E+01  0.51100000000E-03 0.  1.
         12    1    3    3    0    0  0.10872857200E+01 -0.27122593499E+02 -0.30730916496E+02  0.41002518179E+02  0.00000000000E+00 0. -1.
</event>
<event>
 7    1  0.5913457E-013  0.5052886E+02  0.7816164E-02  0.1300439E+00
        -11   -1    0    0    0    0  0.00000000000E+00  0.00000000000E+00  0.45593999997E+02  0.45594000000E+02  0.51100000000E-03 0.  1.
         11   -1    0    0    0    0 -0.00000000000E+00 -0.00000000000E+00 -0.45593999997E+02  0.45594000000E+02  0.51100000000E-03 0. -1.
    9900012    2    1    2    0    0 -0.11753405724E+01 -0.22531464209E+02 -0.33824807756E+02  0.50528856814E+02  0.29999990772E+02 0.  0.
        -12    1    1    2    0    0  0.11753405724E+01  0.22531464209E+02  0.33824807756E+02  0.40659143186E+02  0.00000000000E+00 0.  1.
         11    1    3    3    0    0 -0.45930710553E+01  0.12221668979E+01 -0.11728921318E+02  0.12655338367E+02  0.51100000000E-03 0. -1.
        -11    1    3    3    0    0 -0.55443328348E+01 -0.14334960299E+02 -0.19127935296E+02  0.24537901750E+02  0.51100000000E-03 0.  1.
        -12    1    3    3    0    0  0.89620633177E+01 -0.94186708076E+01 -0.29679511427E+01  0.13335616697E+02  0.00000000000E+00 0.  1.
</event>
<event>
 7    1  0.5913457E-013  0.5052886E+02  0.7816164E-02  0.1300439E+00
        -11   -1    0    0    0    0  0.00000000000E+00  0.00000000000E+00  0.45593999997E+02  0.45594000000E+02  0.51100000000E-03 0.  1.
         11   -1    0    0    0    0 -0.00000000000E+00 -0.00000000000E+00 -0.45593999997E+02  0.45594000000E+02  0.51100000000E-03 0. -1.
    9900012    2    1    2    0    0  0.94291800621E+01 -0.32353970461E+02 -0.22748123202E+02  0.50528856496E+02  0.29999989805E+02 0.  0.
        -12    1    1    2    0    0 -0.94291800621E+01  0.32353970461E+02  0.22748123202E+02  0.40659143504E+02  0.00000000000E+00 0.  1.
         11    1    3    3    0    0  0.87836172408E+00 -0.17027379875E+02 -0.38105931727E+01  0.17470655549E+02  0.51100000000E-03 0. -1.
        -11    1    3    3    0    0 -0.53534712946E+01  0.11977396770E+01 -0.42795615815E+01  0.69576492314E+01  0.51100000000E-03 0.  1.
         12    1    3    3    0    0  0.13904289633E+02 -0.16524330264E+02 -0.14657968448E+02  0.26100551716E+02  0.00000000000E+00 0. -1.
</event>
<event>
 7    1  0.5913457E-013  0.5052886E+02  0.7816164E-02  0.1300439E+00
        -11   -1    0    0    0    0  0.00000000000E+00  0.00000000000E+00  0.45593999997E+02  0.45594000000E+02  0.51100000000E-03 0.  1.
         11   -1    0    0    0    0 -0.00000000000E+00 -0.00000000000E+00 -0.45593999997E+02  0.45594000000E+02  0.51100000000E-03 0. -1.
    9900012    2    1    2    0    0  0.40081704252E+02 -0.67106254644E+01  0.12609793862E+01  0.50528861066E+02  0.30000003697E+02 0.  0.
        -12    1    1    2    0    0 -0.40081704252E+02  0.67106254644E+01 -0.12609793862E+01  0.40659138934E+02  0.00000000000E+00 0.  1.
         11    1    3    3    0    0  0.11389724851E+02 -0.10485003477E+02 -0.16457719853E+01  0.15568227124E+02  0.51100000000E-03 0. -1.
        -11    1    3    3    0    0  0.51721194125E+00 -0.47990698062E+01 -0.17702597970E+01  0.51412449083E+01  0.51100000000E-03 0.  1.
         12    1    3    3    0    0  0.28174767460E+02  0.85734478186E+01  0.46770111685E+01  0.29819389034E+02  0.00000000000E+00 0. -1.
</event>
<event>
 7    1  0.5913457E-013  0.5052885E+02  0.7816164E-02  0.1300439E+00
        -11   -1    0    0    0    0  0.00000000000E+00  0.00000000000E+00  0.45593999997E+02  0.45594000000E+02  0.51100000000E-03 0.  1.
         11   -1    0    0    0    0 -0.00000000000E+00 -0.00000000000E+00 -0.45593999997E+02  0.45594000000E+02  0.51100000000E-03 0. -1.
    9900012    2    1    2    0    0  0.48645064500E+01  0.14605982807E+02 -0.37632007122E+02  0.50528854451E+02  0.29999983589E+02 0.  0.
        -12    1    1    2    0    0 -0.48645064500E+01 -0.14605982807E+02  0.37632007122E+02  0.40659145549E+02  0.00000000000E+00 0.  1.
         11    1    3    3    0    0 -0.77199366596E+01  0.31376883677E+01 -0.10125528876E+02  0.13113689244E+02  0.51100000000E-03 0. -1.
        -11    1    3    3    0    0 -0.49479430976E+01  0.37416664245E+01 -0.66559840187E+01  0.90985895637E+01  0.51100000000E-03 0.  1.
        -12    1    3    3    0    0  0.17532386207E+02  0.77266280152E+01 -0.20850494227E+02  0.28316575643E+02  0.00000000000E+00 0.  1.
</event>
<event>
 7    1  0.5913457E-013  0.5052886E+02  0.7816164E-02  0.1300439E+00
        -11   -1    0    0    0    0  0.00000000000E+00  0.00000000000E+00  0.45593999997E+02  0.45594000000E+02  0.51100000000E-03 0.  1.
         11   -1    0    0    0    0 -0.00000000000E+00 -0.00000000000E+00 -0.45593999997E+02  0.45594000000E+02  0.51100000000E-03 0. -1.
    9900012    2    1    2    0    0 -0.69134999352E+01 -0.14489576511E+02 -0.37355336021E+02  0.50528862797E+02  0.30000008958E+02 0.  0.
        -12    1    1    2    0    0  0.69134999352E+01  0.14489576511E+02  0.37355336021E+02  0.40659137203E+02  0.00000000000E+00 0.  1.
         11    1    3    3    0    0 -0.38443444260E+01 -0.44824385935E+01 -0.22831654807E+02  0.23582953617E+02  0.51100000000E-03 0. -1.
        -11    1    3    3    0    0  0.96698154809E-01 -0.46501083087E+01 -0.18818721727E+02  0.19384972157E+02  0.51100000000E-03 0.  1.
        -12    1    3    3    0    0 -0.31658536639E+01 -0.53570296089E+01  0.42950405132E+01  0.75609370228E+01  0.00000000000E+00 0.  1.
</event>
<event>
 7    1  0.5913457E-013  0.5052886E+02  0.7816164E-02  0.1300439E+00
        -11   -1    0    0    0    0  0.00000000000E+00  0.00000000000E+00  0.45593999997E+02  0.45594000000E+02  0.51100000000E-03 0. -1.
         11   -1    0    0    0    0 -0.00000000000E+00 -0.00000000000E+00 -0.45593999997E+02  0.45594000000E+02  0.51100000000E-03 0.  1.
    9900012    2    1    2    0    0 -0.24384913458E+02 -0.16577969762E+02  0.27994868787E+02  0.50528858787E+02  0.29999996768E+02 0.  0.
        -12    1    1    2    0    0  0.24384913458E+02  0.16577969762E+02 -0.27994868787E+02  0.40659141213E+02  0.00000000000E+00 0.  1.
         11    1    3    3    0    0 -0.16663949479E+02 -0.47338087612E+01  0.18827155563E+02  0.25584330057E+02  0.51100000000E-03 0. -1.
        -11    1    3    3    0    0 -0.31488495071E+01  0.14260454716E+01  0.10298638942E+02  0.10863278659E+02  0.51100000000E-03 0.  1.
        -12    1    3    3    0    0 -0.45721144720E+01 -0.13270206472E+02 -0.11309257178E+01  0.14081250070E+02  0.00000000000E+00 0.  1.
</event>
<event>
 7    1  0.6639257E-013  0.5052886E+02  0.7816164E-02  0.1300439E+00
        -11   -1    0    0    0    0  0.00000000000E+00  0.00000000000E+00  0.45593999997E+02  0.45594000000E+02  0.51100000000E-03 0.  1.
         11   -1    0    0    0    0 -0.00000000000E+00 -0.00000000000E+00 -0.45593999997E+02  0.45594000000E+02  0.51100000000E-03 0. -1.
    9900012    2    1    2    0    0  0.28444618266E+02 -0.28921150940E+02 -0.27634718062E+01  0.50528855193E+02  0.29999985844E+02 0.  0.
        -12    1    1    2    0    0 -0.28444618266E+02  0.28921150940E+02  0.27634718062E+01  0.40659144807E+02  0.00000000000E+00 0.  1.
         11    1    3    3    0    0  0.15412735842E+02 -0.21424160289E+02  0.28853252788E+01  0.26549428853E+02  0.51100000000E-03 0. -1.
        -11    1    3    3    0    0  0.18551720629E+01  0.19395535238E+01  0.51433274707E+01  0.58014954095E+01  0.51100000000E-03 0.  1.
        -12    1    3    3    0    0  0.11176710361E+02 -0.94365441754E+01 -0.10792124556E+02  0.18177930930E+02  0.00000000000E+00 0.  1.
</event>
<event>
 7    1  0.5913457E-013  0.5052886E+02  0.7816164E-02  0.1300439E+00
        -11   -1    0    0    0    0  0.00000000000E+00  0.00000000000E+00  0.45593999997E+02  0.45594000000E+02  0.51100000000E-03 0.  1.
         11   -1    0    0    0    0 -0.00000000000E+00 -0.00000000000E+00 -0.45593999997E+02  0.45594000000E+02  0.51100000000E-03 0. -1.
    9900012    2    1    2    0    0 -0.40078320264E+00 -0.26199035225E+01 -0.40572665740E+02  0.50528859245E+02  0.29999998162E+02 0.  0.
        -12    1    1    2    0    0  0.40078320264E+00  0.26199035225E+01  0.40572665740E+02  0.40659140755E+02  0.00000000000E+00 0.  1.
         11    1    3    3    0    0 -0.19714717970E+01 -0.42830597230E+01 -0.19612691353E+01  0.51066504207E+01  0.51100000000E-03 0. -1.
        -11    1    3    3    0    0 -0.46257723932E+01  0.91538768822E+00  0.14063009328E+01  0.49207100532E+01  0.51100000000E-03 0.  1.
        -12    1    3    3    0    0  0.61964609876E+01  0.74776851227E+00 -0.40017697538E+02  0.40501498771E+02  0.00000000000E+00 0.  1.
</event>
<event>
 7    1  0.5913457E-013  0.5052886E+02  0.7816164E-02  0.1300439E+00
        -11   -1    0    0    0    0  0.00000000000E+00  0.00000000000E+00  0.45593999997E+02  0.45594000000E+02  0.51100000000E-03 0. -1.
         11   -1    0    0    0    0 -0.00000000000E+00 -0.00000000000E+00 -0.45593999997E+02  0.45594000000E+02  0.51100000000E-03 0.  1.
    9900012    2    1    2    0    0 -0.14181455484E+02 -0.36366918175E+02  0.11379791387E+02  0.50528855036E+02  0.29999985367E+02 0.  0.
        -12    1    1    2    0    0  0.14181455484E+02  0.36366918175E+02 -0.11379791387E+02  0.40659144964E+02  0.00000000000E+00 0.  1.
         11    1    3    3    0    0 -0.45910618594E+01  0.28377074351E+01  0.14361302818E+01  0.55850606918E+01  0.51100000000E-03 0. -1.
        -11    1    3    3    0    0 -0.61999803985E+00 -0.18706209006E+01 -0.37025798401E+01  0.41943673965E+01  0.51100000000E-03 0.  1.
         12    1    3    3    0    0 -0.89703955849E+01 -0.37334004710E+02  0.13646240945E+02  0.40749426947E+02  0.00000000000E+00 0. -1.
</event>
<event>
 7    1  0.5913457E-013  0.5052888E+02  0.7816164E-02  0.1300439E+00
        -11   -1    0    0    0    0  0.00000000000E+00  0.00000000000E+00  0.45593999997E+02  0.45594000000E+02  0.51100000000E-03 0.  1.
         11   -1    0    0    0    0 -0.00000000000E+00 -0.00000000000E+00 -0.45593999997E+02  0.45594000000E+02  0.51100000000E-03 0. -1.
    9900012    2    1    2    0    0  0.23070868481E+02 -0.24076664909E+02 -0.23263989906E+02  0.50528880581E+02  0.30000063014E+02 0.  0.
        -12    1    1    2    0    0 -0.23070868481E+02  0.24076664909E+02  0.23263989906E+02  0.40659119419E+02  0.00000000000E+00 0.  1.
         11    1    3    3    0    0  0.14202611830E+02 -0.43002429178E+01  0.96671649886E+00  0.14870804047E+02  0.51100000000E-03 0. -1.
        -11    1    3    3    0    0  0.99470351396E+01 -0.16177990343E+02 -0.11092862919E+02  0.21993691996E+02  0.51100000000E-03 0.  1.
         12    1    3    3    0    0 -0.10787784890E+01 -0.35984316479E+01 -0.13137843486E+02  0.13664384538E+02  0.00000000000E+00 0. -1.
</event>
<event>
 7    1  0.5913457E-013  0.5052886E+02  0.7816164E-02  0.1300439E+00
        -11   -1    0    0    0    0  0.00000000000E+00  0.00000000000E+00  0.45593999997E+02  0.45594000000E+02  0.51100000000E-03 0.  1.
         11   -1    0    0    0    0 -0.00000000000E+00 -0.00000000000E+00 -0.45593999997E+02  0.45594000000E+02  0.51100000000E-03 0. -1.
    9900012    2    1    2    0    0 -0.10380941831E+02 -0.53588800995E+01 -0.38944632457E+02  0.50528856546E+02  0.29999989957E+02 0.  0.
        -12    1    1    2    0    0  0.10380941831E+02  0.53588800995E+01  0.38944632457E+02  0.40659143454E+02  0.00000000000E+00 0.  1.
         11    1    3    3    0    0 -0.15737152140E+02 -0.35152851104E+01 -0.12552098025E+02  0.20434538213E+02  0.51100000000E-03 0. -1.
        -11    1    3    3    0    0 -0.30687701549E+01 -0.14704313428E+01 -0.13344057026E+01  0.36551549130E+01  0.51100000000E-03 0.  1.
        -12    1    3    3    0    0  0.84249804639E+01 -0.37316364620E+00 -0.25058128730E+02  0.26439163420E+02  0.00000000000E+00 0.  1.
</event>
<event>
 7    1  0.5913457E-013  0.5052886E+02  0.7816164E-02  0.1300439E+00
        -11   -1    0    0    0    0  0.00000000000E+00  0.00000000000E+00  0.45593999997E+02  0.45594000000E+02  0.51100000000E-03 0.  1.
         11   -1    0    0    0    0 -0.00000000000E+00 -0.00000000000E+00 -0.45593999997E+02  0.45594000000E+02  0.51100000000E-03 0. -1.
    9900012    2    1    2    0    0 -0.32215404070E+02  0.42721844320E+01 -0.24435260598E+02  0.50528858596E+02  0.29999996189E+02 0.  0.
        -12    1    1    2    0    0  0.32215404070E+02 -0.42721844320E+01  0.24435260598E+02  0.40659141404E+02  0.00000000000E+00 0.  1.
         11    1    3    3    0    0  0.24001450688E+01 -0.37997296482E+00  0.28669426892E+01  0.37582491202E+01  0.51100000000E-03 0. -1.
        -11    1    3    3    0    0  0.11277217304E+01  0.15963701382E+01 -0.58205005400E+00  0.20393470636E+01  0.51100000000E-03 0.  1.
         12    1    3    3    0    0 -0.35743270869E+02  0.30557872586E+01 -0.26720153233E+02  0.44731262412E+02  0.00000000000E+00 0. -1.
</event>
<event>
 7    1  0.5913457E-013  0.5052886E+02  0.7816164E-02  0.1300439E+00
        -11   -1    0    0    0    0  0.00000000000E+00  0.00000000000E+00  0.45593999997E+02  0.45594000000E+02  0.51100000000E-03 0.  1.
         11   -1    0    0    0    0 -0.00000000000E+00 -0.00000000000E+00 -0.45593999997E+02  0.45594000000E+02  0.51100000000E-03 0. -1.
    9900012    2    1    2    0    0  0.38063792298E+02 -0.13241266482E+02 -0.53835493130E+01  0.50528855575E+02  0.29999987005E+02 0.  0.
        -12    1    1    2    0    0 -0.38063792298E+02  0.13241266482E+02  0.53835493130E+01  0.40659144425E+02  0.00000000000E+00 0.  1.
         11    1    3    3    0    0  0.66636046893E+00 -0.10709934453E+00 -0.37323379165E+01  0.37928687201E+01  0.51100000000E-03 0. -1.
        -11    1    3    3    0    0  0.17862814054E+02  0.55559677592E+01  0.39667725244E+01  0.19122870815E+02  0.51100000000E-03 0.  1.
         12    1    3    3    0    0  0.19534617775E+02 -0.18690134897E+02 -0.56179839208E+01  0.27613116040E+02  0.00000000000E+00 0. -1.
</event>
<event>
 7    1  0.5913457E-013  0.5052887E+02  0.7816164E-02  0.1300439E+00
        -11   -1    0    0    0    0  0.00000000000E+00  0.00000000000E+00  0.45593999997E+02  0.45594000000E+02  0.51100000000E-03 0.  1.
         11   -1    0    0    0    0 -0.00000000000E+00 -0.00000000000E+00 -0.45593999997E+02  0.45594000000E+02  0.51100000000E-03 0. -1.
    9900012    2    1    2    0    0 -0.37746856547E+02  0.93147021027E+01 -0.11898569585E+02  0.50528870489E+02  0.30000032339E+02 0.  0.
        -12    1    1    2    0    0  0.37746856547E+02 -0.93147021027E+01  0.11898569585E+02  0.40659129511E+02  0.00000000000E+00 0.  1.
         11    1    3    3    0    0 -0.16661666600E+02  0.72260069944E+01 -0.97694841550E+01  0.20622054503E+02  0.51100000000E-03 0. -1.
        -11    1    3    3    0    0 -0.13604698366E+02  0.83394410413E+01 -0.86767181710E+01  0.18163687208E+02  0.51100000000E-03 0.  1.
        -12    1    3    3    0    0 -0.74804915802E+01 -0.62507459330E+01  0.65476327414E+01  0.11743128779E+02  0.00000000000E+00 0.  1.
</event>
<event>
 7    1  0.5913457E-013  0.5052886E+02  0.7816164E-02  0.1300439E+00
        -11   -1    0    0    0    0  0.00000000000E+00  0.00000000000E+00  0.45593999997E+02  0.45594000000E+02  0.51100000000E-03 0. -1.
         11   -1    0    0    0    0 -0.00000000000E+00 -0.00000000000E+00 -0.45593999997E+02  0.45594000000E+02  0.51100000000E-03 0.  1.
    9900012    2    1    2    0    0 -0.32631928884E+02 -0.25061254814E+01  0.24125543676E+02  0.50528864430E+02  0.30000013921E+02 0.  0.
        -12    1    1    2    0    0  0.32631928884E+02  0.25061254814E+01 -0.24125543676E+02  0.40659135570E+02  0.00000000000E+00 0.  1.
         11    1    3    3    0    0 -0.64622141439E+01  0.38922553301E+01 -0.46702798423E+01  0.88725068196E+01  0.51100000000E-03 0. -1.
        -11    1    3    3    0    0 -0.67700373287E+01 -0.46252752762E+01  0.18483698178E+01  0.84049418830E+01  0.51100000000E-03 0.  1.
         12    1    3    3    0    0 -0.19399677412E+02 -0.17731055353E+01  0.26947453701E+02  0.33251415727E+02  0.00000000000E+00 0. -1.
</event>
<event>
 7    1  0.5913457E-013  0.5052885E+02  0.7816164E-02  0.1300439E+00
        -11   -1    0    0    0    0  0.00000000000E+00  0.00000000000E+00  0.45593999997E+02  0.45594000000E+02  0.51100000000E-03 0.  1.
         11   -1    0    0    0    0 -0.00000000000E+00 -0.00000000000E+00 -0.45593999997E+02  0.45594000000E+02  0.51100000000E-03 0. -1.
    9900012    2    1    2    0    0  0.12015869544E+02  0.78967395995E+00 -0.38835057588E+02  0.50528850922E+02  0.29999972863E+02 0.  0.
        -12    1    1    2    0    0 -0.12015869544E+02 -0.78967395995E+00  0.38835057588E+02  0.40659149078E+02  0.00000000000E+00 0.  1.
         11    1    3    3    0    0  0.16850638977E+02  0.85074203150E+01 -0.14588318562E+02  0.23856640020E+02  0.51100000000E-03 0. -1.
        -11    1    3    3    0    0  0.36555645700E+00 -0.60919982681E+00  0.15709015806E+00  0.72762183249E+00  0.51100000000E-03 0.  1.
        -12    1    3    3    0    0 -0.52003258899E+01 -0.71085465283E+01 -0.24403829185E+02  0.25944589069E+02  0.00000000000E+00 0.  1.
</event>
<event>
 7    1  0.5913457E-013  0.5052887E+02  0.7816164E-02  0.1300439E+00
        -11   -1    0    0    0    0  0.00000000000E+00  0.00000000000E+00  0.45593999997E+02  0.45594000000E+02  0.51100000000E-03 0.  1.
         11   -1    0    0    0    0 -0.00000000000E+00 -0.00000000000E+00 -0.45593999997E+02  0.45594000000E+02  0.51100000000E-03 0. -1.
    9900012    2    1    2    0    0  0.30859054793E+01  0.32649778759E+02 -0.24034020609E+02  0.50528868033E+02  0.30000024873E+02 0.  0.
        -12    1    1    2    0    0 -0.30859054793E+01 -0.32649778759E+02  0.24034020609E+02  0.40659131967E+02  0.00000000000E+00 0.  1.
         11    1    3    3    0    0  0.38363715339E+00  0.12224736615E+02  0.46994289203E+01  0.13102518659E+02  0.51100000000E-03 0. -1.
        -11    1    3    3    0    0 -0.46138649202E+01  0.74402142669E+01 -0.77742257515E+01  0.11708250259E+02  0.51100000000E-03 0.  1.
        -12    1    3    3    0    0  0.73161332461E+01  0.12984827878E+02 -0.20959223778E+02  0.25718099115E+02  0.00000000000E+00 0.  1.
</event>
<event>
 7    1  0.5913457E-013  0.5052885E+02  0.7816164E-02  0.1300439E+00
        -11   -1    0    0    0    0  0.00000000000E+00  0.00000000000E+00  0.45593999997E+02  0.45594000000E+02  0.51100000000E-03 0.  1.
         11   -1    0    0    0    0 -0.00000000000E+00 -0.00000000000E+00 -0.45593999997E+02  0.45594000000E+02  0.51100000000E-03 0. -1.
    9900012    2    1    2    0    0 -0.12326887295E+02  0.10701748567E+02 -0.37238244805E+02  0.50528850366E+02  0.29999971173E+02 0.  0.
        -12    1    1    2    0    0  0.12326887295E+02 -0.10701748567E+02  0.37238244805E+02  0.40659149634E+02  0.00000000000E+00 0.  1.
         11    1    3    3    0    0 -0.74298619879E+01 -0.38311298939E+01 -0.16516622347E+01  0.85210559100E+01  0.51100000000E-03 0. -1.
        -11    1    3    3    0    0 -0.35652974859E+00  0.12395842289E+02 -0.99911195641E+01  0.15925027156E+02  0.51100000000E-03 0.  1.
        -12    1    3    3    0    0 -0.45404955584E+01  0.21370361717E+01 -0.25595463007E+02  0.26082767300E+02  0.00000000000E+00 0.  1.
</event>
<event>
 7    1  0.5913457E-013  0.5052885E+02  0.7816164E-02  0.1300439E+00
        -11   -1    0    0    0    0  0.00000000000E+00  0.00000000000E+00  0.45593999997E+02  0.45594000000E+02  0.51100000000E-03 0. -1.
         11   -1    0    0    0    0 -0.00000000000E+00 -0.00000000000E+00 -0.45593999997E+02  0.45594000000E+02  0.51100000000E-03 0.  1.
    9900012    2    1    2    0    0 -0.34531381732E+02 -0.18189478102E+02  0.11397051489E+02  0.50528853174E+02  0.29999979709E+02 0.  0.
        -12    1    1    2    0    0  0.34531381732E+02  0.18189478102E+02 -0.11397051489E+02  0.40659146826E+02  0.00000000000E+00 0.  1.
         11    1    3    3    0    0 -0.16883565624E+02 -0.66797905389E+01 -0.44563805547E+01  0.18695820863E+02  0.51100000000E-03 0.  1.
        -11    1    3    3    0    0 -0.18029229485E+02 -0.75064834138E+01  0.48570127111E+01  0.20124387738E+02  0.51100000000E-03 0. -1.
        -12    1    3    3    0    0  0.38141337738E+00 -0.40032041488E+01  0.10996419333E+02  0.11708644574E+02  0.00000000000E+00 0.  1.
</event>
<event>
 7    1  0.5913457E-013  0.5052886E+02  0.7816164E-02  0.1300439E+00
        -11   -1    0    0    0    0  0.00000000000E+00  0.00000000000E+00  0.45593999997E+02  0.45594000000E+02  0.51100000000E-03 0.  1.
         11   -1    0    0    0    0 -0.00000000000E+00 -0.00000000000E+00 -0.45593999997E+02  0.45594000000E+02  0.51100000000E-03 0. -1.
    9900012    2    1    2    0    0 -0.17472784519E+02 -0.28178077253E+01 -0.36605015282E+02  0.50528863474E+02  0.30000011016E+02 0.  0.
        -12    1    1    2    0    0  0.17472784519E+02  0.28178077253E+01  0.36605015282E+02  0.40659136526E+02  0.00000000000E+00 0.  1.
         11    1    3    3    0    0 -0.11591316228E+02  0.63594152632E+01 -0.31816718811E+02  0.34454381006E+02  0.51100000000E-03 0. -1.
        -11    1    3    3    0    0  0.28965168122E+01 -0.79698160961E+00 -0.20396854978E+01  0.36311577383E+01  0.51100000000E-03 0.  1.
        -12    1    3    3    0    0 -0.87779851032E+01 -0.83802413789E+01 -0.27486109735E+01  0.12443324730E+02  0.00000000000E+00 0.  1.
</event>
<event>
 7    1  0.5913457E-013  0.5052887E+02  0.7816164E-02  0.1300439E+00
        -11   -1    0    0    0    0  0.00000000000E+00  0.00000000000E+00  0.45593999997E+02  0.45594000000E+02  0.51100000000E-03 0.  1.
         11   -1    0    0    0    0 -0.00000000000E+00 -0.00000000000E+00 -0.45593999997E+02  0.45594000000E+02  0.51100000000E-03 0. -1.
    9900012    2    1    2    0    0 -0.60755712036E+00 -0.24147255570E+02 -0.32706361411E+02  0.50528866291E+02  0.30000019578E+02 0.  0.
        -12    1    1    2    0    0  0.60755712036E+00  0.24147255570E+02  0.32706361411E+02  0.40659133709E+02  0.00000000000E+00 0.  1.
         11    1    3    3    0    0 -0.13083272971E+00  0.12471190966E+01 -0.36118989112E+01  0.38233803434E+01  0.51100000000E-03 0. -1.
        -11    1    3    3    0    0 -0.72617942966E+01 -0.26509794964E+01 -0.19730896818E+02  0.21191263252E+02  0.51100000000E-03 0.  1.
        -12    1    3    3    0    0  0.67850699060E+01 -0.22743395170E+02 -0.93635656818E+01  0.25514222696E+02  0.00000000000E+00 0.  1.
</event>
<event>
 7    1  0.5913457E-013  0.5052887E+02  0.7816164E-02  0.1300439E+00
        -11   -1    0    0    0    0  0.00000000000E+00  0.00000000000E+00  0.45593999997E+02  0.45594000000E+02  0.51100000000E-03 0. -1.
         11   -1    0    0    0    0 -0.00000000000E+00 -0.00000000000E+00 -0.45593999997E+02  0.45594000000E+02  0.51100000000E-03 0.  1.
    9900012    2    1    2    0    0  0.69890582725E-01  0.14267822248E+02  0.38073475071E+02  0.50528866458E+02  0.30000020087E+02 0.  0.
        -12    1    1    2    0    0 -0.69890582725E-01 -0.14267822248E+02 -0.38073475071E+02  0.40659133542E+02  0.00000000000E+00 0.  1.
         11    1    3    3    0    0 -0.50538769434E+01 -0.18061330415E+01  0.37114009960E+01  0.65252039307E+01  0.51100000000E-03 0. -1.
        -11    1    3    3    0    0 -0.26224962455E+01  0.13119525391E+01 -0.23016272957E+01  0.37277599831E+01  0.51100000000E-03 0.  1.
         12    1    3    3    0    0  0.77462637716E+01  0.14762002750E+02  0.36663701370E+02  0.40275902545E+02  0.00000000000E+00 0. -1.
</event>
<event>
 7    1  0.5913457E-013  0.5052896E+02  0.7816164E-02  0.1300438E+00
        -11   -1    0    0    0    0  0.00000000000E+00  0.00000000000E+00  0.45593999997E+02  0.45594000000E+02  0.51100000000E-03 0.  1.
         11   -1    0    0    0    0 -0.00000000000E+00 -0.00000000000E+00 -0.45593999997E+02  0.45594000000E+02  0.51100000000E-03 0. -1.
    9900012    2    1    2    0    0 -0.22881571387E+02 -0.21650762305E+02 -0.25706721354E+02  0.50528962379E+02  0.30000311645E+02 0.  0.
        -12    1    1    2    0    0  0.22881571387E+02  0.21650762305E+02  0.25706721354E+02  0.40659037621E+02  0.00000000000E+00 0.  1.
         11    1    3    3    0    0 -0.17164311191E+02 -0.37499610161E+01 -0.18252200156E+02  0.25334138965E+02  0.51100000000E-03 0.  1.
        -11    1    3    3    0    0 -0.85620273679E+01 -0.51709693017E+01 -0.68766889400E+01  0.12138207743E+02  0.51100000000E-03 0. -1.
        -12    1    3    3    0    0  0.28447671721E+01 -0.12729831987E+02 -0.57783225794E+00  0.13056615672E+02  0.00000000000E+00 0.  1.
</event>
<event>
 7    1  0.5913457E-013  0.5052886E+02  0.7816164E-02  0.1300439E+00
        -11   -1    0    0    0    0  0.00000000000E+00  0.00000000000E+00  0.45593999997E+02  0.45594000000E+02  0.51100000000E-03 0. -1.
         11   -1    0    0    0    0 -0.00000000000E+00 -0.00000000000E+00 -0.45593999997E+02  0.45594000000E+02  0.51100000000E-03 0.  1.
    9900012    2    1    2    0    0  0.39195166843E+02  0.10812243391E+02  0.15128899546E-01  0.50528856626E+02  0.29999990200E+02 0.  0.
        -12    1    1    2    0    0 -0.39195166843E+02 -0.10812243391E+02 -0.15128899546E-01  0.40659143374E+02  0.00000000000E+00 0.  1.
         11    1    3    3    0    0  0.20126300455E+02 -0.10865729141E+01  0.11645005443E+02  0.23277774007E+02  0.51100000000E-03 0. -1.
        -11    1    3    3    0    0  0.38985212895E+01  0.77636082033E+01 -0.23770804065E+01  0.90068080972E+01  0.51100000000E-03 0.  1.
        -12    1    3    3    0    0  0.15170345099E+02  0.41352081015E+01 -0.92527961370E+01  0.18244274522E+02  0.00000000000E+00 0.  1.
</event>
<event>
 7    1  0.5913457E-013  0.5052886E+02  0.7816164E-02  0.1300439E+00
        -11   -1    0    0    0    0  0.00000000000E+00  0.00000000000E+00  0.45593999997E+02  0.45594000000E+02  0.51100000000E-03 0. -1.
         11   -1    0    0    0    0 -0.00000000000E+00 -0.00000000000E+00 -0.45593999997E+02  0.45594000000E+02  0.51100000000E-03 0.  1.
    9900012    2    1    2    0    0  0.36849331376E+02 -0.15184405971E+02  0.80452671974E+01  0.50528859185E+02  0.29999997978E+02 0.  0.
        -12    1    1    2    0    0 -0.36849331376E+02  0.15184405971E+02 -0.80452671974E+01  0.40659140815E+02  0.00000000000E+00 0.  1.
         11    1    3    3    0    0  0.11637282473E+02 -0.79591704312E+01  0.53417504990E+01  0.15076771404E+02  0.51100000000E-03 0. -1.
        -11    1    3    3    0    0  0.14367983858E+02 -0.40603267846E+01  0.13276372160E+02  0.19979671462E+02  0.51100000000E-03 0.  1.
        -12    1    3    3    0    0  0.10844065045E+02 -0.31649087548E+01 -0.10572855461E+02  0.15472416318E+02  0.00000000000E+00 0.  1.
</event>
<event>
 7    1  0.5913457E-013  0.5052886E+02  0.7816164E-02  0.1300439E+00
        -11   -1    0    0    0    0  0.00000000000E+00  0.00000000000E+00  0.45593999997E+02  0.45594000000E+02  0.51100000000E-03 0. -1.
         11   -1    0    0    0    0 -0.00000000000E+00 -0.00000000000E+00 -0.45593999997E+02  0.45594000000E+02  0.51100000000E-03 0.  1.
    9900012    2    1    2    0    0 -0.32971286254E+02 -0.41720400844E+01  0.23423358888E+02  0.50528863545E+02  0.30000011230E+02 0.  0.
        -12    1    1    2    0    0  0.32971286254E+02  0.41720400844E+01 -0.23423358888E+02  0.40659136455E+02  0.00000000000E+00 0.  1.
         11    1    3    3    0    0 -0.74840115889E+01 -0.15450833330E+01  0.12300746024E+02  0.14481231473E+02  0.51100000000E-03 0. -1.
        -11    1    3    3    0    0 -0.64763721177E+01 -0.25557263518E+01  0.15097435357E+02  0.16625513154E+02  0.51100000000E-03 0.  1.
        -12    1    3    3    0    0 -0.19010902547E+02 -0.71230399664E-01 -0.39748224928E+01  0.19422118918E+02  0.00000000000E+00 0.  1.
</event>
<event>
 7    1  0.5913457E-013  0.5052885E+02  0.7816164E-02  0.1300439E+00
        -11   -1    0    0    0    0  0.00000000000E+00  0.00000000000E+00  0.45593999997E+02  0.45594000000E+02  0.51100000000E-03 0.  1.
         11   -1    0    0    0    0 -0.00000000000E+00 -0.00000000000E+00 -0.45593999997E+02  0.45594000000E+02  0.51100000000E-03 0. -1.
    9900012    2    1    2    0    0  0.15023359601E+02 -0.19816085070E+02 -0.32168114911E+02  0.50528853696E+02  0.29999981296E+02 0.  0.
        -12    1    1    2    0    0 -0.15023359601E+02  0.19816085070E+02  0.32168114911E+02  0.40659146304E+02  0.00000000000E+00 0.  1.
         11    1    3    3    0    0  0.11158388234E+02 -0.57480737954E-01 -0.87056109429E+01  0.14152759242E+02  0.51100000000E-03 0. -1.
        -11    1    3    3    0    0 -0.12142093138E+01 -0.64200911269E+01  0.22976745105E+01  0.69261232123E+01  0.51100000000E-03 0.  1.
         12    1    3    3    0    0  0.50791806807E+01 -0.13338513206E+02 -0.25760178478E+02  0.29449971242E+02  0.00000000000E+00 0. -1.
</event>
<event>
 7    1  0.5913457E-013  0.5052886E+02  0.7816164E-02  0.1300439E+00
        -11   -1    0    0    0    0  0.00000000000E+00  0.00000000000E+00  0.45593999997E+02  0.45594000000E+02  0.51100000000E-03 0.  1.
         11   -1    0    0    0    0 -0.00000000000E+00 -0.00000000000E+00 -0.45593999997E+02  0.45594000000E+02  0.51100000000E-03 0. -1.
    9900012    2    1    2    0    0 -0.36123749905E+02  0.12491723883E+02 -0.13863534266E+02  0.50528855210E+02  0.29999985895E+02 0.  0.
        -12    1    1    2    0    0  0.36123749905E+02 -0.12491723883E+02  0.13863534266E+02  0.40659144790E+02  0.00000000000E+00 0.  1.
         11    1    3    3    0    0 -0.89225793403E+01  0.10128842355E+02  0.38998945749E+01  0.14050446523E+02  0.51100000000E-03 0. -1.
        -11    1    3    3    0    0  0.82610304894E+00  0.31358918221E+01  0.80570288057E-01  0.32438797142E+01  0.51100000000E-03 0.  1.
         12    1    3    3    0    0 -0.28027273613E+02 -0.77301029483E+00 -0.17843999129E+02  0.33234528972E+02  0.00000000000E+00 0. -1.
</event>
<event>
 7    1  0.5913457E-013  0.5052886E+02  0.7816164E-02  0.1300439E+00
        -11   -1    0    0    0    0  0.00000000000E+00  0.00000000000E+00  0.45593999997E+02  0.45594000000E+02  0.51100000000E-03 0.  1.
         11   -1    0    0    0    0 -0.00000000000E+00 -0.00000000000E+00 -0.45593999997E+02  0.45594000000E+02  0.51100000000E-03 0. -1.
    9900012    2    1    2    0    0  0.30725161401E+02 -0.25574687653E+02 -0.74206093811E+01  0.50528860373E+02  0.30000001589E+02 0.  0.
        -12    1    1    2    0    0 -0.30725161401E+02  0.25574687653E+02  0.74206093811E+01  0.40659139627E+02  0.00000000000E+00 0.  1.
         11    1    3    3    0    0  0.13244209927E+01  0.19664563283E+01 -0.29472678156E+01  0.37825162650E+01  0.51100000000E-03 0.  1.
        -11    1    3    3    0    0  0.30170565313E+02 -0.15311108709E+02 -0.61186929325E+01  0.34382138744E+02  0.51100000000E-03 0. -1.
         12    1    3    3    0    0 -0.76982490437E+00 -0.12230035272E+02  0.16453513670E+01  0.12364205363E+02  0.00000000000E+00 0. -1.
</event>
<event>
 7    1  0.5913457E-013  0.5052886E+02  0.7816164E-02  0.1300439E+00
        -11   -1    0    0    0    0  0.00000000000E+00  0.00000000000E+00  0.45593999997E+02  0.45594000000E+02  0.51100000000E-03 0. -1.
         11   -1    0    0    0    0 -0.00000000000E+00 -0.00000000000E+00 -0.45593999997E+02  0.45594000000E+02  0.51100000000E-03 0.  1.
    9900012    2    1    2    0    0  0.26592938584E+02 -0.10607944458E+02 -0.28869587547E+02  0.50528856462E+02  0.29999989701E+02 0.  0.
        -12    1    1    2    0    0 -0.26592938584E+02  0.10607944458E+02  0.28869587547E+02  0.40659143538E+02  0.00000000000E+00 0.  1.
         11    1    3    3    0    0 -0.68380060545E+00 -0.50766889878E+00  0.55052067541E-01  0.85342953433E+00  0.51100000000E-03 0. -1.
        -11    1    3    3    0    0  0.21578550726E+02  0.19439198385E+01 -0.29185939680E+02  0.36348751713E+02  0.51100000000E-03 0.  1.
        -12    1    3    3    0    0  0.56981884630E+01 -0.12044195398E+02  0.26130006632E+00  0.13326675214E+02  0.00000000000E+00 0.  1.
</event>
<event>
 7    1  0.5913457E-013  0.5052886E+02  0.7816164E-02  0.1300439E+00
        -11   -1    0    0    0    0  0.00000000000E+00  0.00000000000E+00  0.45593999997E+02  0.45594000000E+02  0.51100000000E-03 0.  1.
         11   -1    0    0    0    0 -0.00000000000E+00 -0.00000000000E+00 -0.45593999997E+02  0.45594000000E+02  0.51100000000E-03 0. -1.
    9900012    2    1    2    0    0  0.23466541457E+02  0.61550951705E+01 -0.32628233205E+02  0.50528863676E+02  0.30000011630E+02 0.  0.
        -12    1    1    2    0    0 -0.23466541457E+02 -0.61550951705E+01  0.32628233205E+02  0.40659136324E+02  0.00000000000E+00 0.  1.
         11    1    3    3    0    0  0.18254302327E+02 -0.13636512052E+01 -0.12110926118E+02  0.21948886754E+02  0.51100000000E-03 0. -1.
        -11    1    3    3    0    0  0.95661497815E+01 -0.16018089369E+01 -0.11409254546E+02  0.14974915795E+02  0.51100000000E-03 0.  1.
         12    1    3    3    0    0 -0.43539106515E+01  0.91205553126E+01 -0.91080525418E+01  0.13605061127E+02  0.00000000000E+00 0. -1.
</event>
<event>
 7    1  0.5913457E-013  0.5052879E+02  0.7816164E-02  0.1300439E+00
        -11   -1    0    0    0    0  0.00000000000E+00  0.00000000000E+00  0.45593999997E+02  0.45594000000E+02  0.51100000000E-03 0.  1.
         11   -1    0    0    0    0 -0.00000000000E+00 -0.00000000000E+00 -0.45593999997E+02  0.45594000000E+02  0.51100000000E-03 0. -1.
    9900012    2    1    2    0    0  0.19274740372E+02 -0.22419735765E+02 -0.27910772110E+02  0.50528789875E+02  0.29999787303E+02 0.  0.
        -12    1    1    2    0    0 -0.19274740372E+02  0.22419735765E+02  0.27910772110E+02  0.40659210125E+02  0.00000000000E+00 0.  1.
         11    1    3    3    0    0  0.87516389430E+01 -0.70072658928E+01 -0.18891115545E+02  0.21967412371E+02  0.51100000000E-03 0. -1.
        -11    1    3    3    0    0  0.67241306986E+01  0.19225213188E+01 -0.82262358970E+01  0.10797267208E+02  0.51100000000E-03 0.  1.
         12    1    3    3    0    0  0.37989707305E+01 -0.17334991192E+02 -0.79342066785E+00  0.17764110295E+02  0.00000000000E+00 0. -1.
</event>
<event>
 7    1  0.5913457E-013  0.5052888E+02  0.7816164E-02  0.1300439E+00
        -11   -1    0    0    0    0  0.00000000000E+00  0.00000000000E+00  0.45593999997E+02  0.45594000000E+02  0.51100000000E-03 0. -1.
         11   -1    0    0    0    0 -0.00000000000E+00 -0.00000000000E+00 -0.45593999997E+02  0.45594000000E+02  0.51100000000E-03 0.  1.
    9900012    2    1    2    0    0  0.15054583957E+02  0.34331350462E+02  0.15744270109E+02  0.50528878466E+02  0.30000056585E+02 0.  0.
        -12    1    1    2    0    0 -0.15054583957E+02 -0.34331350462E+02 -0.15744270109E+02  0.40659121534E+02  0.00000000000E+00 0.  1.
         11    1    3    3    0    0  0.39527596528E+01 -0.33048456272E+01 -0.14307256822E+01  0.53472693715E+01  0.51100000000E-03 0. -1.
        -11    1    3    3    0    0 -0.21858368448E+01  0.58184302964E+00  0.75209339771E-01  0.22632014337E+01  0.51100000000E-03 0.  1.
         12    1    3    3    0    0  0.13287661149E+02  0.37054353059E+02  0.17099786451E+02  0.42918407661E+02  0.00000000000E+00 0. -1.
</event>
<event>
 7    1  0.5913457E-013  0.5052886E+02  0.7816164E-02  0.1300439E+00
        -11   -1    0    0    0    0  0.00000000000E+00  0.00000000000E+00  0.45593999997E+02  0.45594000000E+02  0.51100000000E-03 0.  1.
         11   -1    0    0    0    0 -0.00000000000E+00 -0.00000000000E+00 -0.45593999997E+02  0.45594000000E+02  0.51100000000E-03 0. -1.
    9900012    2    1    2    0    0 -0.33990581511E+02 -0.22279540986E+02  0.11948833059E+01  0.50528864198E+02  0.30000013218E+02 0.  0.
        -12    1    1    2    0    0  0.33990581511E+02  0.22279540986E+02 -0.11948833059E+01  0.40659135802E+02  0.00000000000E+00 0.  1.
         11    1    3    3    0    0 -0.26948763077E+02 -0.15631762613E+02  0.47872262024E+01  0.31519920189E+02  0.51100000000E-03 0. -1.
        -11    1    3    3    0    0 -0.56748519055E+01 -0.10104729926E+02  0.25152387711E+01  0.11859002376E+02  0.51100000000E-03 0.  1.
         12    1    3    3    0    0 -0.13669665288E+01  0.34569515527E+01 -0.61075816676E+01  0.71499416330E+01  0.00000000000E+00 0. -1.
</event>
<event>
 7    1  0.5913457E-013  0.5052885E+02  0.7816164E-02  0.1300439E+00
        -11   -1    0    0    0    0  0.00000000000E+00  0.00000000000E+00  0.45593999997E+02  0.45594000000E+02  0.51100000000E-03 0.  1.
         11   -1    0    0    0    0 -0.00000000000E+00 -0.00000000000E+00 -0.45593999997E+02  0.45594000000E+02  0.51100000000E-03 0. -1.
    9900012    2    1    2    0    0 -0.15773097450E+02 -0.77433712308E+01 -0.36666278839E+02  0.50528850905E+02  0.29999972811E+02 0.  0.
        -12    1    1    2    0    0  0.15773097450E+02  0.77433712308E+01  0.36666278839E+02  0.40659149095E+02  0.00000000000E+00 0.  1.
         11    1    3    3    0    0 -0.51373516721E+01  0.78031521016E+01 -0.77748255798E+00  0.93747556935E+01  0.51100000000E-03 0. -1.
        -11    1    3    3    0    0 -0.23581372514E+01 -0.24452006923E+01 -0.21337339366E+01  0.40115630988E+01  0.51100000000E-03 0.  1.
         12    1    3    3    0    0 -0.82776085269E+01 -0.13101322640E+02 -0.33755062345E+02  0.37142532113E+02  0.00000000000E+00 0. -1.
</event>
<event>
 7    1  0.5913457E-013  0.5052885E+02  0.7816164E-02  0.1300439E+00
        -11   -1    0    0    0    0  0.00000000000E+00  0.00000000000E+00  0.45593999997E+02  0.45594000000E+02  0.51100000000E-03 0.  1.
         11   -1    0    0    0    0 -0.00000000000E+00 -0.00000000000E+00 -0.45593999997E+02  0.45594000000E+02  0.51100000000E-03 0. -1.
    9900012    2    1    2    0    0 -0.33497872173E+02  0.18004748212E+02 -0.14383617449E+02  0.50528845444E+02  0.29999956212E+02 0.  0.
        -12    1    1    2    0    0  0.33497872173E+02 -0.18004748212E+02  0.14383617449E+02  0.40659154556E+02  0.00000000000E+00 0.  1.
         11    1    3    3    0    0 -0.10038696424E+02  0.23232962686E+01 -0.41565873200E+01  0.11110821295E+02  0.51100000000E-03 0. -1.
        -11    1    3    3    0    0 -0.13349462544E+02 -0.37795052303E+01  0.24478190837E+01  0.14088457280E+02  0.51100000000E-03 0.  1.
         12    1    3    3    0    0 -0.10109713205E+02  0.19460957173E+02 -0.12674849213E+02  0.25329566869E+02  0.00000000000E+00 0. -1.
</event>
<event>
 7    1  0.5913457E-013  0.5052885E+02  0.7816164E-02  0.1300439E+00
        -11   -1    0    0    0    0  0.00000000000E+00  0.00000000000E+00  0.45593999997E+02  0.45594000000E+02  0.51100000000E-03 0.  1.
         11   -1    0    0    0    0 -0.00000000000E+00 -0.00000000000E+00 -0.45593999997E+02  0.45594000000E+02  0.51100000000E-03 0. -1.
    9900012    2    1    2    0    0  0.35436391116E+02 -0.99563883368E+01 -0.17271343794E+02  0.50528846043E+02  0.29999958033E+02 0.  0.
        -12    1    1    2    0    0 -0.35436391116E+02  0.99563883368E+01  0.17271343794E+02  0.40659153957E+02  0.00000000000E+00 0.  1.
         11    1    3    3    0    0  0.59855202597E+00  0.55871061140E+00  0.36957736864E+01  0.37853884183E+01  0.51100000000E-03 0. -1.
        -11    1    3    3    0    0 -0.20916599978E+01  0.63056452432E+00 -0.40927677457E+01  0.46393319829E+01  0.51100000000E-03 0.  1.
         12    1    3    3    0    0  0.36929499088E+02 -0.11145663473E+02 -0.16874349735E+02  0.42104125642E+02  0.00000000000E+00 0. -1.
</event>
<event>
 7    1  0.5913457E-013  0.5052886E+02  0.7816164E-02  0.1300439E+00
        -11   -1    0    0    0    0  0.00000000000E+00  0.00000000000E+00  0.45593999997E+02  0.45594000000E+02  0.51100000000E-03 0.  1.
         11   -1    0    0    0    0 -0.00000000000E+00 -0.00000000000E+00 -0.45593999997E+02  0.45594000000E+02  0.51100000000E-03 0. -1.
    9900012    2    1    2    0    0 -0.25739090002E+02  0.94860521073E+01 -0.30011321495E+02  0.50528863799E+02  0.30000012004E+02 0.  0.
        -12    1    1    2    0    0  0.25739090002E+02 -0.94860521073E+01  0.30011321495E+02  0.40659136201E+02  0.00000000000E+00 0.  1.
         11    1    3    3    0    0  0.45842514748E+01  0.33145532054E+01 -0.10818755927E+02  0.12208484943E+02  0.51100000000E-03 0. -1.
        -11    1    3    3    0    0 -0.15749944906E+02  0.12732651178E+01 -0.16251596099E+02  0.22667076226E+02  0.51100000000E-03 0.  1.
        -12    1    3    3    0    0 -0.14573396571E+02  0.48982337841E+01 -0.29409694691E+01  0.15653302630E+02  0.00000000000E+00 0.  1.
</event>
<event>
 7    1  0.5913457E-013  0.5052886E+02  0.7816164E-02  0.1300439E+00
        -11   -1    0    0    0    0  0.00000000000E+00  0.00000000000E+00  0.45593999997E+02  0.45594000000E+02  0.51100000000E-03 0.  1.
         11   -1    0    0    0    0 -0.00000000000E+00 -0.00000000000E+00 -0.45593999997E+02  0.45594000000E+02  0.51100000000E-03 0. -1.
    9900012    2    1    2    0    0  0.29988551534E+02 -0.19901836145E+02 -0.18914792401E+02  0.50528859864E+02  0.30000000042E+02 0.  0.
        -12    1    1    2    0    0 -0.29988551534E+02  0.19901836145E+02  0.18914792401E+02  0.40659140136E+02  0.00000000000E+00 0.  1.
         11    1    3    3    0    0  0.11872933255E+02 -0.13358402251E+02 -0.44149482152E+01  0.18409378664E+02  0.51100000000E-03 0. -1.
        -11    1    3    3    0    0 -0.15793251568E+01  0.25038725609E+00 -0.10851471986E+02  0.10968655627E+02  0.51100000000E-03 0.  1.
         12    1    3    3    0    0  0.19694943435E+02 -0.67938211506E+01 -0.36483722000E+01  0.21150825573E+02  0.00000000000E+00 0. -1.
</event>
<event>
 7    1  0.5913457E-013  0.5052887E+02  0.7816164E-02  0.1300439E+00
        -11   -1    0    0    0    0  0.00000000000E+00  0.00000000000E+00  0.45593999997E+02  0.45594000000E+02  0.51100000000E-03 0.  1.
         11   -1    0    0    0    0 -0.00000000000E+00 -0.00000000000E+00 -0.45593999997E+02  0.45594000000E+02  0.51100000000E-03 0. -1.
    9900012    2    1    2    0    0  0.14595639709E+01  0.36629060041E+02 -0.17588241220E+02  0.50528873156E+02  0.30000040446E+02 0.  0.
        -12    1    1    2    0    0 -0.14595639709E+01 -0.36629060041E+02  0.17588241220E+02  0.40659126844E+02  0.00000000000E+00 0.  1.
         11    1    3    3    0    0  0.79219167085E+01  0.19405566380E+02 -0.26933272798E+01  0.21132600004E+02  0.51100000000E-03 0. -1.
        -11    1    3    3    0    0 -0.78143391489E+01  0.11131821072E+02 -0.39028404051E+00  0.13606383009E+02  0.51100000000E-03 0.  1.
        -12    1    3    3    0    0  0.13519864113E+01  0.60916725899E+01 -0.14504629899E+02  0.15789890143E+02  0.00000000000E+00 0.  1.
</event>
<event>
 7    1  0.5913457E-013  0.5052886E+02  0.7816164E-02  0.1300439E+00
        -11   -1    0    0    0    0  0.00000000000E+00  0.00000000000E+00  0.45593999997E+02  0.45594000000E+02  0.51100000000E-03 0.  1.
         11   -1    0    0    0    0 -0.00000000000E+00 -0.00000000000E+00 -0.45593999997E+02  0.45594000000E+02  0.51100000000E-03 0. -1.
    9900012    2    1    2    0    0 -0.18504043087E+02 -0.34033279828E+02 -0.12349152619E+02  0.50528864288E+02  0.30000013491E+02 0.  0.
        -12    1    1    2    0    0  0.18504043087E+02  0.34033279828E+02  0.12349152619E+02  0.40659135712E+02  0.00000000000E+00 0.  1.
         11    1    3    3    0    0  0.18197342036E+01 -0.11668187492E+02 -0.14061014883E+01  0.11892651242E+02  0.51100000000E-03 0. -1.
        -11    1    3    3    0    0 -0.14786011153E+02 -0.21929677055E+02 -0.95313785805E-01  0.26448930915E+02  0.51100000000E-03 0.  1.
         12    1    3    3    0    0 -0.55377661372E+01 -0.43541528144E+00 -0.10847737344E+02  0.12187282131E+02  0.00000000000E+00 0. -1.
</event>
<event>
 7    1  0.5913457E-013  0.5052887E+02  0.7816164E-02  0.1300439E+00
        -11   -1    0    0    0    0  0.00000000000E+00  0.00000000000E+00  0.45593999997E+02  0.45594000000E+02  0.51100000000E-03 0. -1.
         11   -1    0    0    0    0 -0.00000000000E+00 -0.00000000000E+00 -0.45593999997E+02  0.45594000000E+02  0.51100000000E-03 0.  1.
    9900012    2    1    2    0    0  0.13266609495E+02 -0.13350186726E+01  0.38410673028E+02  0.50528868126E+02  0.30000025154E+02 0.  0.
        -12    1    1    2    0    0 -0.13266609495E+02  0.13350186726E+01 -0.38410673028E+02  0.40659131874E+02  0.00000000000E+00 0.  1.
         11    1    3    3    0    0  0.45268356703E+01  0.89259541247E+01  0.12688546510E+02  0.16160572732E+02  0.51100000000E-03 0. -1.
        -11    1    3    3    0    0  0.49150892471E+01 -0.12089395504E+02  0.63046685899E+01  0.14493461707E+02  0.51100000000E-03 0.  1.
         12    1    3    3    0    0  0.38246845777E+01  0.18284227065E+01  0.19417457928E+02  0.19874833687E+02  0.00000000000E+00 0. -1.
</event>
<event>
 7    1  0.5913457E-013  0.5052886E+02  0.7816164E-02  0.1300439E+00
        -11   -1    0    0    0    0  0.00000000000E+00  0.00000000000E+00  0.45593999997E+02  0.45594000000E+02  0.51100000000E-03 0. -1.
         11   -1    0    0    0    0 -0.00000000000E+00 -0.00000000000E+00 -0.45593999997E+02  0.45594000000E+02  0.51100000000E-03 0.  1.
    9900012    2    1    2    0    0 -0.27168500874E+02 -0.22373097438E+02  0.20358852186E+02  0.50528858457E+02  0.29999995766E+02 0.  0.
        -12    1    1    2    0    0  0.27168500874E+02  0.22373097438E+02 -0.20358852186E+02  0.40659141543E+02  0.00000000000E+00 0.  1.
         11    1    3    3    0    0  0.13711771634E+01  0.36111924847E+01  0.24390607723E+01  0.45683537174E+01  0.51100000000E-03 0.  1.
        -11    1    3    3    0    0 -0.97066397694E+01 -0.48110789502E+01  0.13454280065E+02  0.17273765907E+02  0.51100000000E-03 0. -1.
         12    1    3    3    0    0 -0.18833038268E+02 -0.21173210972E+02  0.44655113489E+01  0.28686738833E+02  0.00000000000E+00 0. -1.
</event>
<event>
 7    1  0.5913457E-013  0.5052888E+02  0.7816164E-02  0.1300439E+00
        -11   -1    0    0    0    0  0.00000000000E+00  0.00000000000E+00  0.45593999997E+02  0.45594000000E+02  0.51100000000E-03 0.  1.
         11   -1    0    0    0    0 -0.00000000000E+00 -0.00000000000E+00 -0.45593999997E+02  0.45594000000E+02  0.51100000000E-03 0. -1.
    9900012    2    1    2    0    0 -0.34546506039E+02 -0.20340566613E+02 -0.67797190828E+01  0.50528876541E+02  0.30000050733E+02 0.  0.
        -12    1    1    2    0    0  0.34546506039E+02  0.20340566613E+02  0.67797190828E+01  0.40659123459E+02  0.00000000000E+00 0.  1.
         11    1    3    3    0    0  0.26902392333E+00 -0.48388097537E+01  0.66689429923E+00  0.48919527769E+01  0.51100000000E-03 0. -1.
        -11    1    3    3    0    0 -0.15294185279E+02 -0.73764324574E+01  0.86556717557E+01  0.19058974604E+02  0.51100000000E-03 0.  1.
         12    1    3    3    0    0 -0.19521344683E+02 -0.81253244022E+01 -0.16102285138E+02  0.26577949160E+02  0.00000000000E+00 0. -1.
</event>
<event>
 7    1  0.5913457E-013  0.5052886E+02  0.7816164E-02  0.1300439E+00
        -11   -1    0    0    0    0  0.00000000000E+00  0.00000000000E+00  0.45593999997E+02  0.45594000000E+02  0.51100000000E-03 0.  1.
         11   -1    0    0    0    0 -0.00000000000E+00 -0.00000000000E+00 -0.45593999997E+02  0.45594000000E+02  0.51100000000E-03 0. -1.
    9900012    2    1    2    0    0 -0.22928793792E+02  0.13964302645E+02 -0.30535781543E+02  0.50528864648E+02  0.30000014585E+02 0.  0.
        -12    1    1    2    0    0  0.22928793792E+02 -0.13964302645E+02  0.30535781543E+02  0.40659135352E+02  0.00000000000E+00 0.  1.
         11    1    3    3    0    0 -0.89098881900E+01  0.86103847357E+01 -0.27826885874E+02  0.30460801213E+02  0.51100000000E-03 0. -1.
        -11    1    3    3    0    0 -0.68819939053E+01 -0.10673728025E+01 -0.67066491374E+01  0.96685194175E+01  0.51100000000E-03 0.  1.
         12    1    3    3    0    0 -0.71369116969E+01  0.64212907116E+01  0.39977534687E+01  0.10399544017E+02  0.00000000000E+00 0. -1.
</event>
<event>
 7    1  0.5913457E-013  0.5052890E+02  0.7816164E-02  0.1300439E+00
        -11   -1    0    0    0    0  0.00000000000E+00  0.00000000000E+00  0.45593999997E+02  0.45594000000E+02  0.51100000000E-03 0.  1.
         11   -1    0    0    0    0 -0.00000000000E+00 -0.00000000000E+00 -0.45593999997E+02  0.45594000000E+02  0.51100000000E-03 0. -1.
    9900012    2    1    2    0    0  0.38173753062E+02 -0.12575679106E+02 -0.61464796627E+01  0.50528900895E+02  0.30000124760E+02 0.  0.
        -12    1    1    2    0    0 -0.38173753062E+02  0.12575679106E+02  0.61464796627E+01  0.40659099105E+02  0.00000000000E+00 0.  1.
         11    1    3    3    0    0  0.11863079164E+02  0.19721013147E+01 -0.17015759932E+01  0.12145665563E+02  0.51100000000E-03 0. -1.
        -11    1    3    3    0    0  0.24412163092E+02 -0.55446678527E+01  0.46315391374E+01  0.25458754947E+02  0.51100000000E-03 0.  1.
         12    1    3    3    0    0  0.18985108060E+01 -0.90031125679E+01 -0.90764428069E+01  0.12924480385E+02  0.00000000000E+00 0. -1.
</event>
<event>
 7    1  0.5913457E-013  0.5052886E+02  0.7816164E-02  0.1300439E+00
        -11   -1    0    0    0    0  0.00000000000E+00  0.00000000000E+00  0.45593999997E+02  0.45594000000E+02  0.51100000000E-03 0.  1.
         11   -1    0    0    0    0 -0.00000000000E+00 -0.00000000000E+00 -0.45593999997E+02  0.45594000000E+02  0.51100000000E-03 0. -1.
    9900012    2    1    2    0    0  0.36831440010E+02  0.17199520942E+02 -0.88709083079E+00  0.50528862970E+02  0.30000009484E+02 0.  0.
        -12    1    1    2    0    0 -0.36831440010E+02 -0.17199520942E+02  0.88709083079E+00  0.40659137030E+02  0.00000000000E+00 0.  1.
         11    1    3    3    0    0  0.91558312660E+01 -0.94285915811E+00  0.19050375571E+00  0.92062218910E+01  0.51100000000E-03 0. -1.
        -11    1    3    3    0    0  0.42892327137E+01 -0.91447615384E+00  0.85891790711E+01  0.96440541934E+01  0.51100000000E-03 0.  1.
         12    1    3    3    0    0  0.23386376031E+02  0.19056856254E+02 -0.96667736576E+01  0.31678586886E+02  0.00000000000E+00 0. -1.
</event>
<event>
 7    1  0.5913457E-013  0.5052885E+02  0.7816164E-02  0.1300439E+00
        -11   -1    0    0    0    0  0.00000000000E+00  0.00000000000E+00  0.45593999997E+02  0.45594000000E+02  0.51100000000E-03 0.  1.
         11   -1    0    0    0    0 -0.00000000000E+00 -0.00000000000E+00 -0.45593999997E+02  0.45594000000E+02  0.51100000000E-03 0. -1.
    9900012    2    1    2    0    0  0.32162837727E+02 -0.24266649130E+02 -0.54633094199E+01  0.50528854160E+02  0.29999982704E+02 0.  0.
        -12    1    1    2    0    0 -0.32162837727E+02  0.24266649130E+02  0.54633094199E+01  0.40659145840E+02  0.00000000000E+00 0.  1.
         11    1    3    3    0    0  0.12780416849E+01 -0.67060574582E+01  0.50767521358E+01  0.85075266494E+01  0.51100000000E-03 0.  1.
        -11    1    3    3    0    0 -0.79705591716E+00  0.26686342554E+01  0.53142967501E+00  0.28353702906E+01  0.51100000000E-03 0. -1.
         12    1    3    3    0    0  0.31681851959E+02 -0.20229225927E+02 -0.11071491231E+02  0.39185957220E+02  0.00000000000E+00 0. -1.
</event>
<event>
 7    1  0.5913457E-013  0.5052886E+02  0.7816164E-02  0.1300439E+00
        -11   -1    0    0    0    0  0.00000000000E+00  0.00000000000E+00  0.45593999997E+02  0.45594000000E+02  0.51100000000E-03 0.  1.
         11   -1    0    0    0    0 -0.00000000000E+00 -0.00000000000E+00 -0.45593999997E+02  0.45594000000E+02  0.51100000000E-03 0. -1.
    9900012    2    1    2    0    0  0.89588968730E+01  0.58659616450E+01 -0.39223644377E+02  0.50528860592E+02  0.30000002256E+02 0.  0.
        -12    1    1    2    0    0 -0.89588968730E+01 -0.58659616450E+01  0.39223644377E+02  0.40659139408E+02  0.00000000000E+00 0.  1.
         11    1    3    3    0    0  0.20421122236E+01 -0.80630165121E+01 -0.75686801310E+01  0.11245771507E+02  0.51100000000E-03 0. -1.
        -11    1    3    3    0    0 -0.32839621089E+01  0.68762785306E+01 -0.22813780331E+02  0.24052779191E+02  0.51100000000E-03 0.  1.
         12    1    3    3    0    0  0.10200746758E+02  0.70526996265E+01 -0.88411839145E+01  0.15230309894E+02  0.00000000000E+00 0. -1.
</event>
<event>
 7    1  0.6033825E-013  0.5052886E+02  0.7816164E-02  0.1300439E+00
        -11   -1    0    0    0    0  0.00000000000E+00  0.00000000000E+00  0.45593999997E+02  0.45594000000E+02  0.51100000000E-03 0. -1.
         11   -1    0    0    0    0 -0.00000000000E+00 -0.00000000000E+00 -0.45593999997E+02  0.45594000000E+02  0.51100000000E-03 0.  1.
    9900012    2    1    2    0    0  0.10924671855E+02  0.26653218684E+02  0.28695353461E+02  0.50528857957E+02  0.29999994247E+02 0.  0.
        -12    1    1    2    0    0 -0.10924671855E+02 -0.26653218684E+02 -0.28695353461E+02  0.40659142043E+02  0.00000000000E+00 0.  1.
         11    1    3    3    0    0  0.17752905684E+01  0.89886066618E+01  0.17455906670E+02  0.19714344632E+02  0.51100000000E-03 0. -1.
        -11    1    3    3    0    0 -0.27601184999E+01  0.12750944653E+02  0.12244217468E+02  0.17892057046E+02  0.51100000000E-03 0.  1.
        -12    1    3    3    0    0  0.11909499786E+02  0.49136673697E+01 -0.10047706769E+01  0.12922456279E+02  0.00000000000E+00 0.  1.
</event>
<event>
 7    1  0.5913457E-013  0.5052887E+02  0.7816164E-02  0.1300439E+00
        -11   -1    0    0    0    0  0.00000000000E+00  0.00000000000E+00  0.45593999997E+02  0.45594000000E+02  0.51100000000E-03 0.  1.
         11   -1    0    0    0    0 -0.00000000000E+00 -0.00000000000E+00 -0.45593999997E+02  0.45594000000E+02  0.51100000000E-03 0. -1.
    9900012    2    1    2    0    0  0.15525810605E+02  0.37225823925E+02 -0.51334577043E+01  0.50528866342E+02  0.30000019733E+02 0.  0.
        -12    1    1    2    0    0 -0.15525810605E+02 -0.37225823925E+02  0.51334577043E+01  0.40659133658E+02  0.00000000000E+00 0.  1.
         11    1    3    3    0    0  0.55064515498E+01  0.26563372964E+02 -0.74014308944E+00  0.27138194560E+02  0.51100000000E-03 0.  1.
        -11    1    3    3    0    0  0.13750372020E+02  0.54087824969E+01  0.12452036131E+01  0.14828290228E+02  0.51100000000E-03 0. -1.
         12    1    3    3    0    0 -0.37310129651E+01  0.52536684635E+01 -0.56385182279E+01  0.85623815540E+01  0.00000000000E+00 0. -1.
</event>
<event>
 7    1  0.5913457E-013  0.5052876E+02  0.7816164E-02  0.1300439E+00
        -11   -1    0    0    0    0  0.00000000000E+00  0.00000000000E+00  0.45593999997E+02  0.45594000000E+02  0.51100000000E-03 0. -1.
         11   -1    0    0    0    0 -0.00000000000E+00 -0.00000000000E+00 -0.45593999997E+02  0.45594000000E+02  0.51100000000E-03 0.  1.
    9900012    2    1    2    0    0 -0.29329070936E+02 -0.17375558949E+02  0.22160078585E+02  0.50528763243E+02  0.29999706352E+02 0.  0.
        -12    1    1    2    0    0  0.29329070936E+02  0.17375558949E+02 -0.22160078585E+02  0.40659236757E+02  0.00000000000E+00 0.  1.
         11    1    3    3    0    0 -0.49240738718E+01  0.84320984880E-01  0.20936502824E+01  0.53513535941E+01  0.51100000000E-03 0. -1.
        -11    1    3    3    0    0 -0.28407331216E+02 -0.81461849805E+01  0.10863045378E+02  0.31485592764E+02  0.51100000000E-03 0.  1.
        -12    1    3    3    0    0  0.40023341517E+01 -0.93136949538E+01  0.92033829243E+01  0.13691816885E+02  0.00000000000E+00 0.  1.
</event>
<event>
 7    1  0.5913457E-013  0.5052881E+02  0.7816164E-02  0.1300439E+00
        -11   -1    0    0    0    0  0.00000000000E+00  0.00000000000E+00  0.45593999997E+02  0.45594000000E+02  0.51100000000E-03 0.  1.
         11   -1    0    0    0    0 -0.00000000000E+00 -0.00000000000E+00 -0.45593999997E+02  0.45594000000E+02  0.51100000000E-03 0. -1.
    9900012    2    1    2    0    0  0.28385931463E+02 -0.87884648157E+01  0.27751957218E+02  0.50528814712E+02  0.29999862799E+02 0.  0.
        -12    1    1    2    0    0 -0.28385931463E+02  0.87884648157E+01 -0.27751957218E+02  0.40659185288E+02  0.00000000000E+00 0.  1.
         11    1    3    3    0    0  0.12445370949E+02 -0.11587973793E+01  0.10485301177E+02  0.16314766638E+02  0.51100000000E-03 0. -1.
        -11    1    3    3    0    0  0.11553266255E+02 -0.79577694002E+01  0.23028190538E+02  0.26964821800E+02  0.51100000000E-03 0.  1.
         12    1    3    3    0    0  0.43872942589E+01  0.32810196380E+00 -0.57615344969E+01  0.72492262741E+01  0.00000000000E+00 0. -1.
</event>
<event>
 7    1  0.5913457E-013  0.5052890E+02  0.7816164E-02  0.1300439E+00
        -11   -1    0    0    0    0  0.00000000000E+00  0.00000000000E+00  0.45593999997E+02  0.45594000000E+02  0.51100000000E-03 0. -1.
         11   -1    0    0    0    0 -0.00000000000E+00 -0.00000000000E+00 -0.45593999997E+02  0.45594000000E+02  0.51100000000E-03 0.  1.
    9900012    2    1    2    0    0  0.46591106013E+01  0.37514194662E+02 -0.14971326178E+02  0.50528896219E+02  0.30000110548E+02 0.  0.
        -12    1    1    2    0    0 -0.46591106013E+01 -0.37514194662E+02  0.14971326178E+02  0.40659103781E+02  0.00000000000E+00 0.  1.
         11    1    3    3    0    0  0.48584811218E+01  0.12818649955E+02  0.50657652162E+01  0.14614533963E+02  0.51100000000E-03 0. -1.
        -11    1    3    3    0    0 -0.28618044557E+01 -0.20619668929E+00 -0.72456882313E+01  0.77931020797E+01  0.51100000000E-03 0.  1.
         12    1    3    3    0    0  0.26624339352E+01  0.24901741397E+02 -0.12791403163E+02  0.28121260177E+02  0.00000000000E+00 0. -1.
</event>
<event>
 7    1  0.5913457E-013  0.5052886E+02  0.7816164E-02  0.1300439E+00
        -11   -1    0    0    0    0  0.00000000000E+00  0.00000000000E+00  0.45593999997E+02  0.45594000000E+02  0.51100000000E-03 0.  1.
         11   -1    0    0    0    0 -0.00000000000E+00 -0.00000000000E+00 -0.45593999997E+02  0.45594000000E+02  0.51100000000E-03 0. -1.
    9900012    2    1    2    0    0 -0.13758354696E+02 -0.38080698576E+02 -0.37059022270E+01  0.50528860323E+02  0.30000001438E+02 0.  0.
        -12    1    1    2    0    0  0.13758354696E+02  0.38080698576E+02  0.37059022270E+01  0.40659139677E+02  0.00000000000E+00 0.  1.
         11    1    3    3    0    0 -0.44253612560E+01 -0.20665783184E+02 -0.50208397713E+00  0.21140257932E+02  0.51100000000E-03 0. -1.
        -11    1    3    3    0    0 -0.91759136016E+01 -0.19763902321E+02 -0.86586539302E+01  0.23447420189E+02  0.51100000000E-03 0.  1.
        -12    1    3    3    0    0 -0.15707983820E+00  0.23489869285E+01  0.54548356803E+01  0.59411822026E+01  0.00000000000E+00 0.  1.
</event>
<event>
 7    1  0.5913457E-013  0.5052886E+02  0.7816164E-02  0.1300439E+00
        -11   -1    0    0    0    0  0.00000000000E+00  0.00000000000E+00  0.45593999997E+02  0.45594000000E+02  0.51100000000E-03 0.  1.
         11   -1    0    0    0    0 -0.00000000000E+00 -0.00000000000E+00 -0.45593999997E+02  0.45594000000E+02  0.51100000000E-03 0. -1.
    9900012    2    1    2    0    0  0.19277195401E+02  0.29060407263E+02 -0.20905690113E+02  0.50528863119E+02  0.30000009936E+02 0.  0.
        -12    1    1    2    0    0 -0.19277195401E+02 -0.29060407263E+02  0.20905690113E+02  0.40659136881E+02  0.00000000000E+00 0.  1.
         11    1    3    3    0    0  0.22156886479E+01  0.11857738717E+00 -0.55440442257E+01  0.59715796418E+01  0.51100000000E-03 0. -1.
        -11    1    3    3    0    0 -0.52461013393E+01  0.10113072493E+02 -0.93839641811E+01  0.14759898324E+02  0.51100000000E-03 0.  1.
         12    1    3    3    0    0  0.22307608093E+02  0.18828757383E+02 -0.59776817059E+01  0.29797385153E+02  0.00000000000E+00 0. -1.
</event>
<event>
 7    1  0.5913457E-013  0.5052887E+02  0.7816164E-02  0.1300439E+00
        -11   -1    0    0    0    0  0.00000000000E+00  0.00000000000E+00  0.45593999997E+02  0.45594000000E+02  0.51100000000E-03 0.  1.
         11   -1    0    0    0    0 -0.00000000000E+00 -0.00000000000E+00 -0.45593999997E+02  0.45594000000E+02  0.51100000000E-03 0. -1.
    9900012    2    1    2    0    0  0.23870958100E+02 -0.32775338908E+02  0.30198829720E+01  0.50528866041E+02  0.30000018819E+02 0.  0.
        -12    1    1    2    0    0 -0.23870958100E+02  0.32775338908E+02 -0.30198829720E+01  0.40659133959E+02  0.00000000000E+00 0.  1.
         11    1    3    3    0    0  0.48922773246E+01  0.31282375395E+01  0.51413164975E+01  0.77558612103E+01  0.51100000000E-03 0.  1.
        -11    1    3    3    0    0  0.16544917568E+01 -0.17955424601E+01 -0.37591135928E+01  0.44824380603E+01  0.51100000000E-03 0. -1.
         12    1    3    3    0    0  0.17324189018E+02 -0.34108033987E+02  0.16376800673E+01  0.38290566771E+02  0.00000000000E+00 0. -1.
</event>
<event>
 7    1  0.5913457E-013  0.5052886E+02  0.7816164E-02  0.1300439E+00
        -11   -1    0    0    0    0  0.00000000000E+00  0.00000000000E+00  0.45593999997E+02  0.45594000000E+02  0.51100000000E-03 0.  1.
         11   -1    0    0    0    0 -0.00000000000E+00 -0.00000000000E+00 -0.45593999997E+02  0.45594000000E+02  0.51100000000E-03 0. -1.
    9900012    2    1    2    0    0  0.13587064538E+02 -0.25788646273E+02 -0.28346126313E+02  0.50528862327E+02  0.30000007529E+02 0.  0.
        -12    1    1    2    0    0 -0.13587064538E+02  0.25788646273E+02  0.28346126313E+02  0.40659137673E+02  0.00000000000E+00 0.  1.
         11    1    3    3    0    0 -0.28381700857E+00 -0.13188099999E+02 -0.64131685980E+01  0.14667490085E+02  0.51100000000E-03 0. -1.
        -11    1    3    3    0    0 -0.22879577702E+01 -0.26381842687E+01  0.29449735674E+01  0.45681108314E+01  0.51100000000E-03 0.  1.
        -12    1    3    3    0    0  0.16158839317E+02 -0.99623620054E+01 -0.24877931283E+02  0.31293261410E+02  0.00000000000E+00 0.  1.
</event>
<event>
 7    1  0.5913457E-013  0.5052885E+02  0.7816164E-02  0.1300439E+00
        -11   -1    0    0    0    0  0.00000000000E+00  0.00000000000E+00  0.45593999997E+02  0.45594000000E+02  0.51100000000E-03 0.  1.
         11   -1    0    0    0    0 -0.00000000000E+00 -0.00000000000E+00 -0.45593999997E+02  0.45594000000E+02  0.51100000000E-03 0. -1.
    9900012    2    1    2    0    0 -0.41945605778E+01  0.38813598288E+02  0.11361186571E+02  0.50528852065E+02  0.29999976338E+02 0.  0.
        -12    1    1    2    0    0  0.41945605778E+01 -0.38813598288E+02 -0.11361186571E+02  0.40659147935E+02  0.00000000000E+00 0.  1.
         11    1    3    3    0    0 -0.16861636342E+01  0.64420921722E+01 -0.56031916342E+01  0.87028418409E+01  0.51100000000E-03 0. -1.
        -11    1    3    3    0    0  0.26132263799E+01 -0.18895593901E+01 -0.63620177774E-01  0.32254355658E+01  0.51100000000E-03 0.  1.
        -12    1    3    3    0    0 -0.51216233235E+01  0.34261065506E+02  0.17027998382E+02  0.38600574659E+02  0.00000000000E+00 0.  1.
</event>
<event>
 7    1  0.5913457E-013  0.5052885E+02  0.7816164E-02  0.1300439E+00
        -11   -1    0    0    0    0  0.00000000000E+00  0.00000000000E+00  0.45593999997E+02  0.45594000000E+02  0.51100000000E-03 0. -1.
         11   -1    0    0    0    0 -0.00000000000E+00 -0.00000000000E+00 -0.45593999997E+02  0.45594000000E+02  0.51100000000E-03 0.  1.
    9900012    2    1    2    0    0 -0.40645205382E+02 -0.10178367608E+01 -0.31232246655E+00  0.50528852720E+02  0.29999978327E+02 0.  0.
        -12    1    1    2    0    0  0.40645205382E+02  0.10178367608E+01  0.31232246655E+00  0.40659147280E+02  0.00000000000E+00 0.  1.
         11    1    3    3    0    0 -0.18461708369E+02 -0.26551145250E+01 -0.18785887862E+01  0.18746023715E+02  0.51100000000E-03 0. -1.
        -11    1    3    3    0    0 -0.69322888546E+01 -0.92487086805E+01  0.52361291977E+01  0.12689061835E+02  0.51100000000E-03 0.  1.
        -12    1    3    3    0    0 -0.15251208159E+02  0.10885986445E+02 -0.36698628781E+01  0.19093767169E+02  0.00000000000E+00 0.  1.
</event>
<event>
 7    1  0.5913457E-013  0.5052886E+02  0.7816164E-02  0.1300439E+00
        -11   -1    0    0    0    0  0.00000000000E+00  0.00000000000E+00  0.45593999997E+02  0.45594000000E+02  0.51100000000E-03 0.  1.
         11   -1    0    0    0    0 -0.00000000000E+00 -0.00000000000E+00 -0.45593999997E+02  0.45594000000E+02  0.51100000000E-03 0. -1.
    9900012    2    1    2    0    0  0.33019492692E+02  0.83087977383E+00 -0.23710512636E+02  0.50528859966E+02  0.30000000352E+02 0.  0.
        -12    1    1    2    0    0 -0.33019492692E+02 -0.83087977383E+00  0.23710512636E+02  0.40659140034E+02  0.00000000000E+00 0.  1.
         11    1    3    3    0    0  0.38936782850E+01 -0.73702444810E+01 -0.14770170533E+02  0.16959928423E+02  0.51100000000E-03 0. -1.
        -11    1    3    3    0    0 -0.81809681188E+00 -0.17468016894E+00  0.61754673115E+00  0.10397883349E+01  0.51100000000E-03 0.  1.
         12    1    3    3    0    0  0.29943911219E+02  0.83758044237E+01 -0.95578888346E+01  0.32529143208E+02  0.00000000000E+00 0. -1.
</event>
<event>
 7    1  0.5913457E-013  0.5052886E+02  0.7816164E-02  0.1300439E+00
        -11   -1    0    0    0    0  0.00000000000E+00  0.00000000000E+00  0.45593999997E+02  0.45594000000E+02  0.51100000000E-03 0.  1.
         11   -1    0    0    0    0 -0.00000000000E+00 -0.00000000000E+00 -0.45593999997E+02  0.45594000000E+02  0.51100000000E-03 0. -1.
    9900012    2    1    2    0    0  0.30821446005E+02 -0.21143335789E+02 -0.16005113757E+02  0.50528857750E+02  0.29999993617E+02 0.  0.
        -12    1    1    2    0    0 -0.30821446005E+02  0.21143335789E+02  0.16005113757E+02  0.40659142250E+02  0.00000000000E+00 0.  1.
         11    1    3    3    0    0  0.61770623502E+01 -0.17931211602E+01 -0.10930044185E+02  0.12682162628E+02  0.51100000000E-03 0. -1.
        -11    1    3    3    0    0 -0.21237385910E+01 -0.50845384443E+01  0.32441646055E+01  0.63943256910E+01  0.51100000000E-03 0.  1.
         12    1    3    3    0    0  0.26768122246E+02 -0.14265676185E+02 -0.83192341776E+01  0.31452369432E+02  0.00000000000E+00 0. -1.
</event>
<event>
 7    1  0.5913457E-013  0.5052887E+02  0.7816164E-02  0.1300439E+00
        -11   -1    0    0    0    0  0.00000000000E+00  0.00000000000E+00  0.45593999997E+02  0.45594000000E+02  0.51100000000E-03 0.  1.
         11   -1    0    0    0    0 -0.00000000000E+00 -0.00000000000E+00 -0.45593999997E+02  0.45594000000E+02  0.51100000000E-03 0. -1.
    9900012    2    1    2    0    0 -0.19603529852E+02 -0.34896995377E+02 -0.71460646213E+01  0.50528869309E+02  0.30000028750E+02 0.  0.
        -12    1    1    2    0    0  0.19603529852E+02  0.34896995377E+02  0.71460646213E+01  0.40659130691E+02  0.00000000000E+00 0.  1.
         11    1    3    3    0    0 -0.18857469382E+01 -0.20446565189E+02 -0.46757277421E+01  0.21058976702E+02  0.51100000000E-03 0. -1.
        -11    1    3    3    0    0 -0.34683193646E+01 -0.13829518533E+02 -0.47450563802E+01  0.15026655728E+02  0.51100000000E-03 0.  1.
        -12    1    3    3    0    0 -0.14249463549E+02 -0.62091165541E+00  0.22747195010E+01  0.14443236879E+02  0.00000000000E+00 0.  1.
</event>
<event>
 7    1  0.5913457E-013  0.5052886E+02  0.7816164E-02  0.1300439E+00
        -11   -1    0    0    0    0  0.00000000000E+00  0.00000000000E+00  0.45593999997E+02  0.45594000000E+02  0.51100000000E-03 0.  1.
         11   -1    0    0    0    0 -0.00000000000E+00 -0.00000000000E+00 -0.45593999997E+02  0.45594000000E+02  0.51100000000E-03 0. -1.
    9900012    2    1    2    0    0  0.29944592998E+02  0.13219288150E+02 -0.24119232911E+02  0.50528860496E+02  0.30000001963E+02 0.  0.
        -12    1    1    2    0    0 -0.29944592998E+02 -0.13219288150E+02  0.24119232911E+02  0.40659139504E+02  0.00000000000E+00 0.  1.
         11    1    3    3    0    0  0.39727052335E+01  0.12191472693E+02 -0.15285827672E+02  0.19951714743E+02  0.51100000000E-03 0. -1.
        -11    1    3    3    0    0  0.67129391989E+00 -0.34940798905E+01 -0.76894335290E+00  0.36401241667E+01  0.51100000000E-03 0.  1.
         12    1    3    3    0    0  0.25300593845E+02  0.45218953471E+01 -0.80644618861E+01  0.26937021586E+02  0.00000000000E+00 0. -1.
</event>
<event>
 7    1  0.5913457E-013  0.5052885E+02  0.7816164E-02  0.1300439E+00
        -11   -1    0    0    0    0  0.00000000000E+00  0.00000000000E+00  0.45593999997E+02  0.45594000000E+02  0.51100000000E-03 0.  1.
         11   -1    0    0    0    0 -0.00000000000E+00 -0.00000000000E+00 -0.45593999997E+02  0.45594000000E+02  0.51100000000E-03 0. -1.
    9900012    2    1    2    0    0 -0.37167411128E+02  0.15871131212E+02 -0.44561819406E+01  0.50528845885E+02  0.29999957552E+02 0.  0.
        -12    1    1    2    0    0  0.37167411128E+02 -0.15871131212E+02  0.44561819406E+01  0.40659154115E+02  0.00000000000E+00 0.  1.
         11    1    3    3    0    0 -0.21094593898E+02  0.10023365869E+02  0.59385210362E+01  0.24098045303E+02  0.51100000000E-03 0. -1.
        -11    1    3    3    0    0 -0.10691809345E+02  0.86484078281E+01  0.71772339107E+00  0.13770434712E+02  0.51100000000E-03 0.  1.
         12    1    3    3    0    0 -0.53810078848E+01 -0.28006424853E+01 -0.11112426368E+02  0.12660365870E+02  0.00000000000E+00 0. -1.
</event>
<event>
 7    1  0.5913457E-013  0.5052886E+02  0.7816164E-02  0.1300439E+00
        -11   -1    0    0    0    0  0.00000000000E+00  0.00000000000E+00  0.45593999997E+02  0.45594000000E+02  0.51100000000E-03 0. -1.
         11   -1    0    0    0    0 -0.00000000000E+00 -0.00000000000E+00 -0.45593999997E+02  0.45594000000E+02  0.51100000000E-03 0.  1.
    9900012    2    1    2    0    0 -0.19548411765E+01 -0.24757528421E+02  0.32193305125E+02  0.50528861883E+02  0.30000006180E+02 0.  0.
        -12    1    1    2    0    0  0.19548411765E+01  0.24757528421E+02 -0.32193305125E+02  0.40659138117E+02  0.00000000000E+00 0.  1.
         11    1    3    3    0    0  0.54198816061E+00  0.33429203679E+01  0.51244913807E+01  0.61424164564E+01  0.51100000000E-03 0.  1.
        -11    1    3    3    0    0  0.28570652188E+01 -0.90297406739E+01 -0.15341540245E+01  0.95944081180E+01  0.51100000000E-03 0. -1.
         12    1    3    3    0    0 -0.53538945559E+01 -0.19070708115E+02  0.28602967768E+02  0.34792037309E+02  0.00000000000E+00 0. -1.
</event>
<event>
 7    1  0.5913457E-013  0.5052885E+02  0.7816164E-02  0.1300439E+00
        -11   -1    0    0    0    0  0.00000000000E+00  0.00000000000E+00  0.45593999997E+02  0.45594000000E+02  0.51100000000E-03 0.  1.
         11   -1    0    0    0    0 -0.00000000000E+00 -0.00000000000E+00 -0.45593999997E+02  0.45594000000E+02  0.51100000000E-03 0. -1.
    9900012    2    1    2    0    0  0.37124280856E+02 -0.15100313401E+02  0.68508953747E+01  0.50528850214E+02  0.29999970712E+02 0.  0.
        -12    1    1    2    0    0 -0.37124280856E+02  0.15100313401E+02 -0.68508953747E+01  0.40659149786E+02  0.00000000000E+00 0.  1.
         11    1    3    3    0    0  0.79466952129E+01 -0.35094117031E+01  0.14486329231E+01  0.88070694851E+01  0.51100000000E-03 0. -1.
        -11    1    3    3    0    0  0.15193438687E+02  0.74289399415E+01  0.64262218333E+01  0.18092154518E+02  0.51100000000E-03 0.  1.
        -12    1    3    3    0    0  0.13984146955E+02 -0.19019841639E+02 -0.10239593818E+01  0.23629626211E+02  0.00000000000E+00 0.  1.
</event>
<event>
 7    1  0.5913457E-013  0.5052886E+02  0.7816164E-02  0.1300439E+00
        -11   -1    0    0    0    0  0.00000000000E+00  0.00000000000E+00  0.45593999997E+02  0.45594000000E+02  0.51100000000E-03 0.  1.
         11   -1    0    0    0    0 -0.00000000000E+00 -0.00000000000E+00 -0.45593999997E+02  0.45594000000E+02  0.51100000000E-03 0. -1.
    9900012    2    1    2    0    0 -0.27732079022E+02  0.28528099549E+02 -0.83812426107E+01  0.50528857136E+02  0.29999991750E+02 0.  0.
        -12    1    1    2    0    0  0.27732079022E+02 -0.28528099549E+02  0.83812426107E+01  0.40659142864E+02  0.00000000000E+00 0.  1.
         11    1    3    3    0    0 -0.98624223879E+01 -0.18550744355E+01 -0.33228783627E+01  0.10571196592E+02  0.51100000000E-03 0. -1.
        -11    1    3    3    0    0 -0.37597259209E+01  0.82442135881E-02  0.37670154017E+01  0.53222187352E+01  0.51100000000E-03 0.  1.
         12    1    3    3    0    0 -0.14109930713E+02  0.30374929771E+02 -0.88253796497E+01  0.34635441808E+02  0.00000000000E+00 0. -1.
</event>
<event>
 7    1  0.5913457E-013  0.5052890E+02  0.7816164E-02  0.1300439E+00
        -11   -1    0    0    0    0  0.00000000000E+00  0.00000000000E+00  0.45593999997E+02  0.45594000000E+02  0.51100000000E-03 0.  1.
         11   -1    0    0    0    0 -0.00000000000E+00 -0.00000000000E+00 -0.45593999997E+02  0.45594000000E+02  0.51100000000E-03 0. -1.
    9900012    2    1    2    0    0 -0.61408584333E+01  0.30534405494E+02 -0.26136220183E+02  0.50528904257E+02  0.30000134980E+02 0.  0.
        -12    1    1    2    0    0  0.61408584333E+01 -0.30534405494E+02  0.26136220183E+02  0.40659095743E+02  0.00000000000E+00 0.  1.
         11    1    3    3    0    0 -0.52605832550E+01  0.15488105537E+02 -0.10675498716E+02  0.19532573368E+02  0.51100000000E-03 0. -1.
        -11    1    3    3    0    0 -0.10605798521E+02  0.10577093063E+02 -0.44152814338E+01  0.15615779530E+02  0.51100000000E-03 0.  1.
        -12    1    3    3    0    0  0.97255233431E+01  0.44692068950E+01 -0.11045440033E+02  0.15380551359E+02  0.00000000000E+00 0.  1.
</event>
<event>
 7    1  0.5913457E-013  0.5052887E+02  0.7816164E-02  0.1300439E+00
        -11   -1    0    0    0    0  0.00000000000E+00  0.00000000000E+00  0.45593999997E+02  0.45594000000E+02  0.51100000000E-03 0.  1.
         11   -1    0    0    0    0 -0.00000000000E+00 -0.00000000000E+00 -0.45593999997E+02  0.45594000000E+02  0.51100000000E-03 0. -1.
    9900012    2    1    2    0    0 -0.39992836134E+02  0.62460691578E+00 -0.73039755954E+01  0.50528866520E+02  0.30000020274E+02 0.  0.
        -12    1    1    2    0    0  0.39992836134E+02 -0.62460691578E+00  0.73039755954E+01  0.40659133480E+02  0.00000000000E+00 0.  1.
         11    1    3    3    0    0 -0.29809616430E+02  0.18990241355E+01  0.46247080933E+00  0.29873623883E+02  0.51100000000E-03 0. -1.
        -11    1    3    3    0    0 -0.55022969703E+01  0.71537503081E+01 -0.14791354609E+01  0.91454500924E+01  0.51100000000E-03 0.  1.
         12    1    3    3    0    0 -0.46809227334E+01 -0.84281675278E+01 -0.62873109439E+01  0.11509792544E+02  0.00000000000E+00 0. -1.
</event>
<event>
 7    1  0.5913457E-013  0.5052887E+02  0.7816164E-02  0.1300439E+00
        -11   -1    0    0    0    0  0.00000000000E+00  0.00000000000E+00  0.45593999997E+02  0.45594000000E+02  0.51100000000E-03 0.  1.
         11   -1    0    0    0    0 -0.00000000000E+00 -0.00000000000E+00 -0.45593999997E+02  0.45594000000E+02  0.51100000000E-03 0. -1.
    9900012    2    1    2    0    0  0.30166318546E+02 -0.27228950972E+02  0.13198250794E+01  0.50528874532E+02  0.30000044626E+02 0.  0.
        -12    1    1    2    0    0 -0.30166318546E+02  0.27228950972E+02 -0.13198250794E+01  0.40659125468E+02  0.00000000000E+00 0.  1.
         11    1    3    3    0    0  0.82284302664E+01 -0.25396540532E+02 -0.11045605085E+01  0.26719120304E+02  0.51100000000E-03 0. -1.
        -11    1    3    3    0    0  0.42892763863E+01 -0.26067833817E+00  0.41921472304E+01  0.60033277252E+01  0.51100000000E-03 0.  1.
        -12    1    3    3    0    0  0.17648611893E+02 -0.15717321011E+01 -0.17677616425E+01  0.17806426502E+02  0.00000000000E+00 0.  1.
</event>
<event>
 7    1  0.5913457E-013  0.5052884E+02  0.7816164E-02  0.1300439E+00
        -11   -1    0    0    0    0  0.00000000000E+00  0.00000000000E+00  0.45593999997E+02  0.45594000000E+02  0.51100000000E-03 0. -1.
         11   -1    0    0    0    0 -0.00000000000E+00 -0.00000000000E+00 -0.45593999997E+02  0.45594000000E+02  0.51100000000E-03 0.  1.
    9900012    2    1    2    0    0 -0.37392119610E+02 -0.15940299189E+02 -0.95063830778E+00  0.50528837928E+02  0.29999933367E+02 0.  0.
        -12    1    1    2    0    0  0.37392119610E+02  0.15940299189E+02  0.95063830778E+00  0.40659162072E+02  0.00000000000E+00 0.  1.
         11    1    3    3    0    0 -0.37992066645E+01 -0.61731715881E+00 -0.26095891037E+01  0.46502695949E+01  0.51100000000E-03 0. -1.
        -11    1    3    3    0    0  0.46121160233E+01 -0.31201262313E+01  0.15188060966E+01  0.57717912412E+01  0.51100000000E-03 0.  1.
         12    1    3    3    0    0 -0.38205028969E+02 -0.12202855799E+02  0.14014469930E+00  0.40106777092E+02  0.00000000000E+00 0. -1.
</event>
<event>
 7    1  0.5913457E-013  0.5052885E+02  0.7816164E-02  0.1300439E+00
        -11   -1    0    0    0    0  0.00000000000E+00  0.00000000000E+00  0.45593999997E+02  0.45594000000E+02  0.51100000000E-03 0.  1.
         11   -1    0    0    0    0 -0.00000000000E+00 -0.00000000000E+00 -0.45593999997E+02  0.45594000000E+02  0.51100000000E-03 0. -1.
    9900012    2    1    2    0    0 -0.88739476317E+01 -0.23296457399E+02 -0.32120002385E+02  0.50528850634E+02  0.29999971988E+02 0.  0.
        -12    1    1    2    0    0  0.88739476317E+01  0.23296457399E+02  0.32120002385E+02  0.40659149366E+02  0.00000000000E+00 0.  1.
         11    1    3    3    0    0 -0.13326376289E+01  0.28723149963E+01 -0.23197299272E+01  0.39252087440E+01  0.51100000000E-03 0. -1.
        -11    1    3    3    0    0 -0.16013577352E+01 -0.14447589799E+02 -0.56044058850E+00  0.14546865350E+02  0.51100000000E-03 0.  1.
         12    1    3    3    0    0 -0.59399522677E+01 -0.11721182596E+02 -0.29239831870E+02  0.32056776540E+02  0.00000000000E+00 0. -1.
</event>
<event>
 7    1  0.5913457E-013  0.5052886E+02  0.7816164E-02  0.1300439E+00
        -11   -1    0    0    0    0  0.00000000000E+00  0.00000000000E+00  0.45593999997E+02  0.45594000000E+02  0.51100000000E-03 0.  1.
         11   -1    0    0    0    0 -0.00000000000E+00 -0.00000000000E+00 -0.45593999997E+02  0.45594000000E+02  0.51100000000E-03 0. -1.
    9900012    2    1    2    0    0  0.20695324196E+02  0.26226588769E+01 -0.34899730638E+02  0.50528856112E+02  0.29999988637E+02 0.  0.
        -12    1    1    2    0    0 -0.20695324196E+02 -0.26226588769E+01  0.34899730638E+02  0.40659143888E+02  0.00000000000E+00 0.  1.
         11    1    3    3    0    0  0.17604958009E+02  0.65147312937E+01 -0.34947397611E+02  0.39669848378E+02  0.51100000000E-03 0. -1.
        -11    1    3    3    0    0  0.48009952676E+01 -0.17551652517E+01 -0.36335827386E+01  0.62716093947E+01  0.51100000000E-03 0.  1.
         12    1    3    3    0    0 -0.17106290805E+01 -0.21369071651E+01  0.36812497114E+01  0.45873983390E+01  0.00000000000E+00 0. -1.
</event>
<event>
 7    1  0.5913457E-013  0.5052886E+02  0.7816164E-02  0.1300439E+00
        -11   -1    0    0    0    0  0.00000000000E+00  0.00000000000E+00  0.45593999997E+02  0.45594000000E+02  0.51100000000E-03 0. -1.
         11   -1    0    0    0    0 -0.00000000000E+00 -0.00000000000E+00 -0.45593999997E+02  0.45594000000E+02  0.51100000000E-03 0.  1.
    9900012    2    1    2    0    0 -0.11691212909E+02  0.34698900783E+02 -0.17676740957E+02  0.50528863933E+02  0.30000012411E+02 0.  0.
        -12    1    1    2    0    0  0.11691212909E+02 -0.34698900783E+02  0.17676740957E+02  0.40659136067E+02  0.00000000000E+00 0.  1.
         11    1    3    3    0    0 -0.96419113914E+01  0.11170363907E+01 -0.26514182271E+01  0.10062019899E+02  0.51100000000E-03 0. -1.
        -11    1    3    3    0    0 -0.50887620918E+01  0.14398321850E+01 -0.21342975964E+01  0.57029678975E+01  0.51100000000E-03 0.  1.
         12    1    3    3    0    0  0.30394605744E+01  0.32142032207E+02 -0.12891025134E+02  0.34763876136E+02  0.00000000000E+00 0. -1.
</event>
<event>
 7    1  0.5913457E-013  0.5052885E+02  0.7816164E-02  0.1300439E+00
        -11   -1    0    0    0    0  0.00000000000E+00  0.00000000000E+00  0.45593999997E+02  0.45594000000E+02  0.51100000000E-03 0.  1.
         11   -1    0    0    0    0 -0.00000000000E+00 -0.00000000000E+00 -0.45593999997E+02  0.45594000000E+02  0.51100000000E-03 0. -1.
    9900012    2    1    2    0    0 -0.33474675434E+02  0.17856830401E+02 -0.14620066611E+02  0.50528848077E+02  0.29999964215E+02 0.  0.
        -12    1    1    2    0    0  0.33474675434E+02 -0.17856830401E+02  0.14620066611E+02  0.40659151923E+02  0.00000000000E+00 0.  1.
         11    1    3    3    0    0 -0.16941974110E+02  0.81449554335E+01 -0.61003484036E+01  0.19763224349E+02  0.51100000000E-03 0. -1.
        -11    1    3    3    0    0 -0.18724927969E+02  0.12071597419E+02 -0.67905728994E+00  0.22289179230E+02  0.51100000000E-03 0.  1.
         12    1    3    3    0    0  0.21922266448E+01 -0.23597224516E+01 -0.78406609173E+01  0.84764444981E+01  0.00000000000E+00 0. -1.
</event>
<event>
 7    1  0.5913457E-013  0.5052887E+02  0.7816164E-02  0.1300439E+00
        -11   -1    0    0    0    0  0.00000000000E+00  0.00000000000E+00  0.45593999997E+02  0.45594000000E+02  0.51100000000E-03 0.  1.
         11   -1    0    0    0    0 -0.00000000000E+00 -0.00000000000E+00 -0.45593999997E+02  0.45594000000E+02  0.51100000000E-03 0. -1.
    9900012    2    1    2    0    0 -0.58594587065E+01 -0.38245722069E+02  0.12493862755E+02  0.50528866715E+02  0.30000020868E+02 0.  0.
        -12    1    1    2    0    0  0.58594587065E+01  0.38245722069E+02 -0.12493862755E+02  0.40659133285E+02  0.00000000000E+00 0.  1.
         11    1    3    3    0    0 -0.59801522024E+01 -0.11164438661E+02  0.20917008619E+01  0.12836748955E+02  0.51100000000E-03 0. -1.
        -11    1    3    3    0    0  0.15338176452E+00 -0.24328428690E+02  0.17572466708E+02  0.30011457062E+02  0.51100000000E-03 0.  1.
         12    1    3    3    0    0 -0.32688268660E-01 -0.27528547180E+01 -0.71703048152E+01  0.76806606984E+01  0.00000000000E+00 0. -1.
</event>
<event>
 7    1  0.5913457E-013  0.5052886E+02  0.7816164E-02  0.1300439E+00
        -11   -1    0    0    0    0  0.00000000000E+00  0.00000000000E+00  0.45593999997E+02  0.45594000000E+02  0.51100000000E-03 0.  1.
         11   -1    0    0    0    0 -0.00000000000E+00 -0.00000000000E+00 -0.45593999997E+02  0.45594000000E+02  0.51100000000E-03 0. -1.
    9900012    2    1    2    0    0  0.23191412375E+02  0.33372118668E+02  0.12749629434E+01  0.50528862738E+02  0.30000008779E+02 0.  0.
        -12    1    1    2    0    0 -0.23191412375E+02 -0.33372118668E+02 -0.12749629434E+01  0.40659137262E+02  0.00000000000E+00 0.  1.
         11    1    3    3    0    0  0.10722145456E+02  0.47752870799E+01  0.42104047108E+00  0.11745000861E+02  0.51100000000E-03 0. -1.
        -11    1    3    3    0    0  0.12210816571E+02  0.43684999453E+01 -0.49286294459E+01  0.13873688103E+02  0.51100000000E-03 0.  1.
         12    1    3    3    0    0  0.25845034808E+00  0.24228331643E+02  0.57825519183E+01  0.24910173774E+02  0.00000000000E+00 0. -1.
</event>
<event>
 7    1  0.5913457E-013  0.5052886E+02  0.7816164E-02  0.1300439E+00
        -11   -1    0    0    0    0  0.00000000000E+00  0.00000000000E+00  0.45593999997E+02  0.45594000000E+02  0.51100000000E-03 0. -1.
         11   -1    0    0    0    0 -0.00000000000E+00 -0.00000000000E+00 -0.45593999997E+02  0.45594000000E+02  0.51100000000E-03 0.  1.
    9900012    2    1    2    0    0 -0.66508213889E+01  0.27203584087E+02  0.29477059333E+02  0.50528862783E+02  0.30000008914E+02 0.  0.
        -12    1    1    2    0    0  0.66508213889E+01 -0.27203584087E+02 -0.29477059333E+02  0.40659137217E+02  0.00000000000E+00 0.  1.
         11    1    3    3    0    0  0.18742060383E+01  0.23129229318E+01  0.62410161093E+01  0.69146614595E+01  0.51100000000E-03 0. -1.
        -11    1    3    3    0    0 -0.67800876238E+01  0.27868059558E+02  0.26363552662E+02  0.38956838179E+02  0.51100000000E-03 0.  1.
        -12    1    3    3    0    0 -0.17449398035E+01 -0.29773984024E+01 -0.31275094385E+01  0.46573631437E+01  0.00000000000E+00 0.  1.
</event>
<event>
 7    1  0.5913457E-013  0.5052886E+02  0.7816164E-02  0.1300439E+00
        -11   -1    0    0    0    0  0.00000000000E+00  0.00000000000E+00  0.45593999997E+02  0.45594000000E+02  0.51100000000E-03 0.  1.
         11   -1    0    0    0    0 -0.00000000000E+00 -0.00000000000E+00 -0.45593999997E+02  0.45594000000E+02  0.51100000000E-03 0. -1.
    9900012    2    1    2    0    0 -0.84126971012E+01  0.73182060561E+01 -0.39100330927E+02  0.50528862147E+02  0.30000006981E+02 0.  0.
        -12    1    1    2    0    0  0.84126971012E+01 -0.73182060561E+01  0.39100330927E+02  0.40659137853E+02  0.00000000000E+00 0.  1.
         11    1    3    3    0    0  0.76246085577E+01  0.49783532027E+01 -0.65241265280E+01  0.11201914278E+02  0.51100000000E-03 0. -1.
        -11    1    3    3    0    0 -0.17818099398E+01  0.68156715232E+01 -0.92836465055E+01  0.11653940006E+02  0.51100000000E-03 0.  1.
        -12    1    3    3    0    0 -0.14255495719E+02 -0.44758186698E+01 -0.23292557893E+02  0.27673007863E+02  0.00000000000E+00 0.  1.
</event>
<event>
 7    1  0.5913457E-013  0.5052886E+02  0.7816164E-02  0.1300439E+00
        -11   -1    0    0    0    0  0.00000000000E+00  0.00000000000E+00  0.45593999997E+02  0.45594000000E+02  0.51100000000E-03 0.  1.
         11   -1    0    0    0    0 -0.00000000000E+00 -0.00000000000E+00 -0.45593999997E+02  0.45594000000E+02  0.51100000000E-03 0. -1.
    9900012    2    1    2    0    0 -0.20089997181E+01  0.34368336422E+02 -0.21632086758E+02  0.50528858276E+02  0.29999995215E+02 0.  0.
        -12    1    1    2    0    0  0.20089997181E+01 -0.34368336422E+02  0.21632086758E+02  0.40659141724E+02  0.00000000000E+00 0.  1.
         11    1    3    3    0    0 -0.23456484375E+01  0.16614276684E+01  0.27214515045E+01  0.39583717665E+01  0.51100000000E-03 0. -1.
        -11    1    3    3    0    0 -0.55234732455E+01  0.11733769579E+02  0.11677407782E+01  0.13021279661E+02  0.51100000000E-03 0.  1.
         12    1    3    3    0    0  0.58601219649E+01  0.20973139174E+02 -0.25521279041E+02  0.33549206848E+02  0.00000000000E+00 0. -1.
</event>
<event>
 7    1  0.5913457E-013  0.5052885E+02  0.7816164E-02  0.1300439E+00
        -11   -1    0    0    0    0  0.00000000000E+00  0.00000000000E+00  0.45593999997E+02  0.45594000000E+02  0.51100000000E-03 0.  1.
         11   -1    0    0    0    0 -0.00000000000E+00 -0.00000000000E+00 -0.45593999997E+02  0.45594000000E+02  0.51100000000E-03 0. -1.
    9900012    2    1    2    0    0  0.31843607647E+02  0.22480656537E+02 -0.11565943696E+02  0.50528851953E+02  0.29999975997E+02 0.  0.
        -12    1    1    2    0    0 -0.31843607647E+02 -0.22480656537E+02  0.11565943696E+02  0.40659148047E+02  0.00000000000E+00 0.  1.
         11    1    3    3    0    0  0.22423317358E+02  0.16724579068E+02 -0.71741967193E+01  0.28878812392E+02  0.51100000000E-03 0. -1.
        -11    1    3    3    0    0  0.10184604541E+02 -0.41839048598E+01 -0.38565104206E+01  0.11666357719E+02  0.51100000000E-03 0.  1.
        -12    1    3    3    0    0 -0.76431425213E+00  0.99399823284E+01 -0.53523655658E+00  0.99836818427E+01  0.00000000000E+00 0.  1.
</event>
<event>
 7    1  0.5913457E-013  0.5052888E+02  0.7816164E-02  0.1300439E+00
        -11   -1    0    0    0    0  0.00000000000E+00  0.00000000000E+00  0.45593999997E+02  0.45594000000E+02  0.51100000000E-03 0.  1.
         11   -1    0    0    0    0 -0.00000000000E+00 -0.00000000000E+00 -0.45593999997E+02  0.45594000000E+02  0.51100000000E-03 0. -1.
    9900012    2    1    2    0    0 -0.12987069402E+01 -0.21930871947E+02 -0.34212780911E+02  0.50528878493E+02  0.30000056667E+02 0.  0.
        -12    1    1    2    0    0  0.12987069402E+01  0.21930871947E+02  0.34212780911E+02  0.40659121507E+02  0.00000000000E+00 0.  1.
         11    1    3    3    0    0 -0.58095999071E+01 -0.16464636231E+02 -0.21259690330E+02  0.27510182306E+02  0.51100000000E-03 0. -1.
        -11    1    3    3    0    0  0.25156918882E+01 -0.88301197215E+01 -0.15735908625E+02  0.18218631686E+02  0.51100000000E-03 0.  1.
        -12    1    3    3    0    0  0.19952010787E+01  0.33638840054E+01  0.27828180448E+01  0.48000645013E+01  0.00000000000E+00 0.  1.
</event>
<event>
 7    1  0.5913457E-013  0.5052887E+02  0.7816164E-02  0.1300439E+00
        -11   -1    0    0    0    0  0.00000000000E+00  0.00000000000E+00  0.45593999997E+02  0.45594000000E+02  0.51100000000E-03 0.  1.
         11   -1    0    0    0    0 -0.00000000000E+00 -0.00000000000E+00 -0.45593999997E+02  0.45594000000E+02  0.51100000000E-03 0. -1.
    9900012    2    1    2    0    0 -0.17232819529E+02 -0.31034239231E+02 -0.19826021974E+02  0.50528865468E+02  0.30000017078E+02 0.  0.
        -12    1    1    2    0    0  0.17232819529E+02  0.31034239231E+02  0.19826021974E+02  0.40659134532E+02  0.00000000000E+00 0.  1.
         11    1    3    3    0    0 -0.23304667780E+01 -0.11200095812E+02 -0.10642347419E+02  0.15624748972E+02  0.51100000000E-03 0.  1.
        -11    1    3    3    0    0 -0.87777390535E+01  0.18765991359E+01  0.27447689441E+01  0.93863775774E+01  0.51100000000E-03 0. -1.
         12    1    3    3    0    0 -0.61246136972E+01 -0.21710742554E+02 -0.11928443500E+02  0.25517738919E+02  0.00000000000E+00 0. -1.
</event>
<event>
 7    1  0.5913457E-013  0.5052885E+02  0.7816164E-02  0.1300439E+00
        -11   -1    0    0    0    0  0.00000000000E+00  0.00000000000E+00  0.45593999997E+02  0.45594000000E+02  0.51100000000E-03 0. -1.
         11   -1    0    0    0    0 -0.00000000000E+00 -0.00000000000E+00 -0.45593999997E+02  0.45594000000E+02  0.51100000000E-03 0.  1.
    9900012    2    1    2    0    0 -0.14353173806E+02  0.22496150101E+02  0.30676963171E+02  0.50528850513E+02  0.29999971618E+02 0.  0.
        -12    1    1    2    0    0  0.14353173806E+02 -0.22496150101E+02 -0.30676963171E+02  0.40659149487E+02  0.00000000000E+00 0.  1.
         11    1    3    3    0    0  0.30953745217E+01  0.34268569567E+01  0.11025867169E+02  0.11953846206E+02  0.51100000000E-03 0. -1.
        -11    1    3    3    0    0  0.36957534075E+01  0.90897375419E+01  0.59447631218E+01  0.11472668855E+02  0.51100000000E-03 0.  1.
        -12    1    3    3    0    0 -0.21144301736E+02  0.99795556022E+01  0.13706332880E+02  0.27102335451E+02  0.00000000000E+00 0.  1.
</event>
<event>
 7    1  0.5913457E-013  0.5052885E+02  0.7816164E-02  0.1300439E+00
        -11   -1    0    0    0    0  0.00000000000E+00  0.00000000000E+00  0.45593999997E+02  0.45594000000E+02  0.51100000000E-03 0.  1.
         11   -1    0    0    0    0 -0.00000000000E+00 -0.00000000000E+00 -0.45593999997E+02  0.45594000000E+02  0.51100000000E-03 0. -1.
    9900012    2    1    2    0    0  0.12279699353E+02  0.35500427560E+02 -0.15559393121E+02  0.50528854812E+02  0.29999984686E+02 0.  0.
        -12    1    1    2    0    0 -0.12279699353E+02 -0.35500427560E+02  0.15559393121E+02  0.40659145188E+02  0.00000000000E+00 0.  1.
         11    1    3    3    0    0  0.10066002332E+02  0.35935236243E+02 -0.90856491323E+01  0.38408522845E+02  0.51100000000E-03 0. -1.
        -11    1    3    3    0    0 -0.52125937839E+00  0.23103940470E+01  0.18061230580E+01  0.29785420517E+01  0.51100000000E-03 0.  1.
         12    1    3    3    0    0  0.27349563992E+01 -0.27452027295E+01 -0.82798670467E+01  0.91417899146E+01  0.00000000000E+00 0. -1.
</event>
<event>
 7    1  0.5913457E-013  0.5052885E+02  0.7816164E-02  0.1300439E+00
        -11   -1    0    0    0    0  0.00000000000E+00  0.00000000000E+00  0.45593999997E+02  0.45594000000E+02  0.51100000000E-03 0. -1.
         11   -1    0    0    0    0 -0.00000000000E+00 -0.00000000000E+00 -0.45593999997E+02  0.45594000000E+02  0.51100000000E-03 0.  1.
    9900012    2    1    2    0    0 -0.60555633424E+01  0.24363019858E+02  0.31983429023E+02  0.50528852000E+02  0.29999976140E+02 0.  0.
        -12    1    1    2    0    0  0.60555633424E+01 -0.24363019858E+02 -0.31983429023E+02  0.40659148000E+02  0.00000000000E+00 0.  1.
         11    1    3    3    0    0  0.63252700436E+01  0.79870262277E+01  0.19331254287E+02  0.21851750998E+02  0.51100000000E-03 0. -1.
        -11    1    3    3    0    0 -0.13541236749E+01 -0.29243863202E+01  0.27285604551E+00  0.32342134993E+01  0.51100000000E-03 0.  1.
        -12    1    3    3    0    0 -0.11026709711E+02  0.19300379950E+02  0.12379318690E+02  0.25442887503E+02  0.00000000000E+00 0.  1.
</event>
<event>
 7    1  0.5913457E-013  0.5052877E+02  0.7816164E-02  0.1300439E+00
        -11   -1    0    0    0    0  0.00000000000E+00  0.00000000000E+00  0.45593999997E+02  0.45594000000E+02  0.51100000000E-03 0.  1.
         11   -1    0    0    0    0 -0.00000000000E+00 -0.00000000000E+00 -0.45593999997E+02  0.45594000000E+02  0.51100000000E-03 0. -1.
    9900012    2    1    2    0    0 -0.31911227956E+02 -0.22541787123E+02  0.11256743945E+02  0.50528770782E+02  0.29999729268E+02 0.  0.
        -12    1    1    2    0    0  0.31911227956E+02  0.22541787123E+02 -0.11256743945E+02  0.40659229218E+02  0.00000000000E+00 0.  1.
         11    1    3    3    0    0 -0.17427880500E+02 -0.44181634662E+01  0.47696403687E+01  0.18601092889E+02  0.51100000000E-03 0. -1.
        -11    1    3    3    0    0 -0.10232585180E+02 -0.23403775288E+01 -0.53158290941E+01  0.11766104099E+02  0.51100000000E-03 0.  1.
        -12    1    3    3    0    0 -0.42507622756E+01 -0.15783246128E+02  0.11802932670E+02  0.20161573795E+02  0.00000000000E+00 0.  1.
</event>
<event>
 7    1  0.5913457E-013  0.5052886E+02  0.7816164E-02  0.1300439E+00
        -11   -1    0    0    0    0  0.00000000000E+00  0.00000000000E+00  0.45593999997E+02  0.45594000000E+02  0.51100000000E-03 0. -1.
         11   -1    0    0    0    0 -0.00000000000E+00 -0.00000000000E+00 -0.45593999997E+02  0.45594000000E+02  0.51100000000E-03 0.  1.
    9900012    2    1    2    0    0  0.28903313430E+02  0.22464432733E+02  0.17695020918E+02  0.50528855512E+02  0.29999986813E+02 0.  0.
        -12    1    1    2    0    0 -0.28903313430E+02 -0.22464432733E+02 -0.17695020918E+02  0.40659144488E+02  0.00000000000E+00 0.  1.
         11    1    3    3    0    0  0.11417562282E+01  0.83745142323E+01  0.40220159893E+01  0.93601660664E+01  0.51100000000E-03 0. -1.
        -11    1    3    3    0    0 -0.38721247380E+01  0.39564347030E+01  0.28918823586E+01  0.62457753228E+01  0.51100000000E-03 0.  1.
        -12    1    3    3    0    0  0.31633681940E+02  0.10133483797E+02  0.10781122570E+02  0.34922914122E+02  0.00000000000E+00 0.  1.
</event>
<event>
 7    1  0.5913457E-013  0.5052886E+02  0.7816164E-02  0.1300439E+00
        -11   -1    0    0    0    0  0.00000000000E+00  0.00000000000E+00  0.45593999997E+02  0.45594000000E+02  0.51100000000E-03 0.  1.
         11   -1    0    0    0    0 -0.00000000000E+00 -0.00000000000E+00 -0.45593999997E+02  0.45594000000E+02  0.51100000000E-03 0. -1.
    9900012    2    1    2    0    0 -0.23182912464E+02  0.33383168781E+02 -0.11322839145E+01  0.50528862588E+02  0.30000008323E+02 0.  0.
        -12    1    1    2    0    0  0.23182912464E+02 -0.33383168781E+02  0.11322839145E+01  0.40659137412E+02  0.00000000000E+00 0.  1.
         11    1    3    3    0    0 -0.30375066302E+01  0.18464301731E+02 -0.13151613530E+01  0.18758638933E+02  0.51100000000E-03 0. -1.
        -11    1    3    3    0    0 -0.11275981678E+02  0.17992539384E+02  0.40521877479E+01  0.21617110402E+02  0.51100000000E-03 0.  1.
        -12    1    3    3    0    0 -0.88694241557E+01 -0.30736723344E+01 -0.38693103094E+01  0.10153113254E+02  0.00000000000E+00 0.  1.
</event>
<event>
 7    1  0.5913457E-013  0.5052885E+02  0.7816164E-02  0.1300439E+00
        -11   -1    0    0    0    0  0.00000000000E+00  0.00000000000E+00  0.45593999997E+02  0.45594000000E+02  0.51100000000E-03 0.  1.
         11   -1    0    0    0    0 -0.00000000000E+00 -0.00000000000E+00 -0.45593999997E+02  0.45594000000E+02  0.51100000000E-03 0. -1.
    9900012    2    1    2    0    0 -0.16670944246E+02  0.52146575669E+01 -0.36715852784E+02  0.50528845050E+02  0.29999955013E+02 0.  0.
        -12    1    1    2    0    0  0.16670944246E+02 -0.52146575669E+01  0.36715852784E+02  0.40659154950E+02  0.00000000000E+00 0.  1.
         11    1    3    3    0    0  0.23703805462E+01  0.55114184442E+01 -0.77759355407E+01  0.98213853909E+01  0.51100000000E-03 0. -1.
        -11    1    3    3    0    0  0.27349873196E+01 -0.28368840089E+01  0.53088013512E+00  0.39761665580E+01  0.51100000000E-03 0.  1.
        -12    1    3    3    0    0 -0.21776312112E+02  0.25401231315E+01 -0.29470797379E+02  0.36731293101E+02  0.00000000000E+00 0.  1.
</event>
<event>
 7    1  0.5913457E-013  0.5052887E+02  0.7816164E-02  0.1300439E+00
        -11   -1    0    0    0    0  0.00000000000E+00  0.00000000000E+00  0.45593999997E+02  0.45594000000E+02  0.51100000000E-03 0. -1.
         11   -1    0    0    0    0 -0.00000000000E+00 -0.00000000000E+00 -0.45593999997E+02  0.45594000000E+02  0.51100000000E-03 0.  1.
    9900012    2    1    2    0    0 -0.29688694703E+02  0.22249221254E+02 -0.16634864517E+02  0.50528866252E+02  0.30000019461E+02 0.  0.
        -12    1    1    2    0    0  0.29688694703E+02 -0.22249221254E+02  0.16634864517E+02  0.40659133748E+02  0.00000000000E+00 0.  1.
         11    1    3    3    0    0  0.11258480987E+01  0.95892317617E+01 -0.80999806706E+01  0.12602800754E+02  0.51100000000E-03 0. -1.
        -11    1    3    3    0    0 -0.12736996857E-01  0.21613718635E+01 -0.46821232056E+01  0.51569340248E+01  0.51100000000E-03 0.  1.
         12    1    3    3    0    0 -0.30801805805E+02  0.10498617629E+02 -0.38527606412E+01  0.32769131473E+02  0.00000000000E+00 0. -1.
</event>
<event>
 7    1  0.6608744E-013  0.5052886E+02  0.7816164E-02  0.1300439E+00
        -11   -1    0    0    0    0  0.00000000000E+00  0.00000000000E+00  0.45593999997E+02  0.45594000000E+02  0.51100000000E-03 0. -1.
         11   -1    0    0    0    0 -0.00000000000E+00 -0.00000000000E+00 -0.45593999997E+02  0.45594000000E+02  0.51100000000E-03 0.  1.
    9900012    2    1    2    0    0  0.38362685513E+02  0.82071434426E+01 -0.10682356625E+02  0.50528860975E+02  0.30000003418E+02 0.  0.
        -12    1    1    2    0    0 -0.38362685513E+02 -0.82071434426E+01  0.10682356625E+02  0.40659139025E+02  0.00000000000E+00 0.  1.
         11    1    3    3    0    0  0.31380905382E+02  0.21428847077E+01 -0.28160090189E+01  0.31579789178E+02  0.51100000000E-03 0. -1.
        -11    1    3    3    0    0  0.98363177282E+01  0.73556251338E+01 -0.93943681534E+01  0.15463263589E+02  0.51100000000E-03 0.  1.
        -12    1    3    3    0    0 -0.28545375973E+01 -0.12913663989E+01  0.15280205470E+01  0.34858082080E+01  0.00000000000E+00 0.  1.
</event>
<event>
 7    1  0.5913457E-013  0.5052886E+02  0.7816164E-02  0.1300439E+00
        -11   -1    0    0    0    0  0.00000000000E+00  0.00000000000E+00  0.45593999997E+02  0.45594000000E+02  0.51100000000E-03 0. -1.
         11   -1    0    0    0    0 -0.00000000000E+00 -0.00000000000E+00 -0.45593999997E+02  0.45594000000E+02  0.51100000000E-03 0.  1.
    9900012    2    1    2    0    0 -0.61753169943E+01  0.25716304345E+02  0.30882078493E+02  0.50528860546E+02  0.30000002114E+02 0.  0.
        -12    1    1    2    0    0  0.61753169943E+01 -0.25716304345E+02 -0.30882078493E+02  0.40659139454E+02  0.00000000000E+00 0.  1.
         11    1    3    3    0    0 -0.25487423964E+01  0.92536900314E+01  0.44309092798E+01  0.10571651919E+02  0.51100000000E-03 0. -1.
        -11    1    3    3    0    0  0.80701323886E+01 -0.73150751841E-01  0.14064165803E+02  0.16215213468E+02  0.51100000000E-03 0.  1.
         12    1    3    3    0    0 -0.11696706987E+02  0.16535765065E+02  0.12387003410E+02  0.23741995158E+02  0.00000000000E+00 0. -1.
</event>
<event>
 7    1  0.5913457E-013  0.5052886E+02  0.7816164E-02  0.1300439E+00
        -11   -1    0    0    0    0  0.00000000000E+00  0.00000000000E+00  0.45593999997E+02  0.45594000000E+02  0.51100000000E-03 0.  1.
         11   -1    0    0    0    0 -0.00000000000E+00 -0.00000000000E+00 -0.45593999997E+02  0.45594000000E+02  0.51100000000E-03 0. -1.
    9900012    2    1    2    0    0  0.29392065027E+02 -0.12177156681E+02 -0.25317764821E+02  0.50528857770E+02  0.29999993677E+02 0.  0.
        -12    1    1    2    0    0 -0.29392065027E+02  0.12177156681E+02  0.25317764821E+02  0.40659142230E+02  0.00000000000E+00 0.  1.
         11    1    3    3    0    0  0.46462931124E+01 -0.60405089191E+01 -0.10071578408E+02  0.12629825002E+02  0.51100000000E-03 0. -1.
        -11    1    3    3    0    0  0.12774977302E+02 -0.11505688106E+02 -0.17562006519E+02  0.24576512712E+02  0.51100000000E-03 0.  1.
        -12    1    3    3    0    0  0.11970794613E+02  0.53690403443E+01  0.23158201060E+01  0.13322520056E+02  0.00000000000E+00 0.  1.
</event>
<event>
 7    1  0.5913457E-013  0.5052886E+02  0.7816164E-02  0.1300439E+00
        -11   -1    0    0    0    0  0.00000000000E+00  0.00000000000E+00  0.45593999997E+02  0.45594000000E+02  0.51100000000E-03 0. -1.
         11   -1    0    0    0    0 -0.00000000000E+00 -0.00000000000E+00 -0.45593999997E+02  0.45594000000E+02  0.51100000000E-03 0.  1.
    9900012    2    1    2    0    0  0.14868382468E+02 -0.14367956440E+02  0.35009408263E+02  0.50528860359E+02  0.30000001546E+02 0.  0.
        -12    1    1    2    0    0 -0.14868382468E+02  0.14367956440E+02 -0.35009408263E+02  0.40659139641E+02  0.00000000000E+00 0.  1.
         11    1    3    3    0    0  0.66856132437E+01 -0.17801877531E+02  0.28025920363E+02  0.33868222282E+02  0.51100000000E-03 0.  1.
        -11    1    3    3    0    0 -0.10940221452E+01  0.26897139273E+01  0.67534212862E+01  0.73512002282E+01  0.51100000000E-03 0. -1.
        -12    1    3    3    0    0  0.92767913692E+01  0.74420716420E+00  0.23006661412E+00  0.93094378487E+01  0.00000000000E+00 0.  1.
</event>
<event>
 7    1  0.5913457E-013  0.5052888E+02  0.7816164E-02  0.1300439E+00
        -11   -1    0    0    0    0  0.00000000000E+00  0.00000000000E+00  0.45593999997E+02  0.45594000000E+02  0.51100000000E-03 0.  1.
         11   -1    0    0    0    0 -0.00000000000E+00 -0.00000000000E+00 -0.45593999997E+02  0.45594000000E+02  0.51100000000E-03 0. -1.
    9900012    2    1    2    0    0  0.21319999352E+02 -0.28915062747E+00 -0.34619906715E+02  0.50528881448E+02  0.30000065650E+02 0.  0.
        -12    1    1    2    0    0 -0.21319999352E+02  0.28915062747E+00  0.34619906715E+02  0.40659118552E+02  0.00000000000E+00 0.  1.
         11    1    3    3    0    0 -0.34816291508E+01 -0.14229741392E+00  0.39346275746E+00  0.35066798115E+01  0.51100000000E-03 0. -1.
        -11    1    3    3    0    0  0.80048420514E+01  0.89369021972E+01 -0.10459221243E+02  0.15916690184E+02  0.51100000000E-03 0.  1.
         12    1    3    3    0    0  0.16796786452E+02 -0.90837554108E+01 -0.24554148229E+02  0.31105511452E+02  0.00000000000E+00 0. -1.
</event>
<event>
 7    1  0.5913457E-013  0.5052888E+02  0.7816164E-02  0.1300439E+00
        -11   -1    0    0    0    0  0.00000000000E+00  0.00000000000E+00  0.45593999997E+02  0.45594000000E+02  0.51100000000E-03 0.  1.
         11   -1    0    0    0    0 -0.00000000000E+00 -0.00000000000E+00 -0.45593999997E+02  0.45594000000E+02  0.51100000000E-03 0. -1.
    9900012    2    1    2    0    0 -0.74363166500E+01  0.26718606542E+02 -0.29731827233E+02  0.50528876897E+02  0.30000051817E+02 0.  0.
        -12    1    1    2    0    0  0.74363166500E+01 -0.26718606542E+02  0.29731827233E+02  0.40659123103E+02  0.00000000000E+00 0.  1.
         11    1    3    3    0    0 -0.68479264509E+01  0.11601370514E+02  0.10713481926E+01  0.13514202962E+02  0.51100000000E-03 0. -1.
        -11    1    3    3    0    0  0.22543598058E+01  0.27872868546E+01  0.13661577476E+00  0.35874462051E+01  0.51100000000E-03 0.  1.
         12    1    3    3    0    0 -0.28427500048E+01  0.12329949173E+02 -0.30939791201E+02  0.33427227730E+02  0.00000000000E+00 0. -1.
</event>
<event>
 7    1  0.5913457E-013  0.5052886E+02  0.7816164E-02  0.1300439E+00
        -11   -1    0    0    0    0  0.00000000000E+00  0.00000000000E+00  0.45593999997E+02  0.45594000000E+02  0.51100000000E-03 0.  1.
         11   -1    0    0    0    0 -0.00000000000E+00 -0.00000000000E+00 -0.45593999997E+02  0.45594000000E+02  0.51100000000E-03 0. -1.
    9900012    2    1    2    0    0  0.35605259863E+02 -0.20493460496E+01 -0.19525152975E+02  0.50528856528E+02  0.29999989903E+02 0.  0.
        -12    1    1    2    0    0 -0.35605259863E+02  0.20493460496E+01  0.19525152975E+02  0.40659143472E+02  0.00000000000E+00 0.  1.
         11    1    3    3    0    0  0.11222475566E+02  0.49936032198E+01 -0.70285339652E+01  0.14152042994E+02  0.51100000000E-03 0. -1.
        -11    1    3    3    0    0  0.28010055311E+02 -0.25743053261E+01 -0.85525542821E+01  0.29399599171E+02  0.51100000000E-03 0.  1.
        -12    1    3    3    0    0 -0.36272710132E+01 -0.44686439432E+01 -0.39440647275E+01  0.69772143631E+01  0.00000000000E+00 0.  1.
</event>
<event>
 7    1  0.5913457E-013  0.5052875E+02  0.7816164E-02  0.1300439E+00
        -11   -1    0    0    0    0  0.00000000000E+00  0.00000000000E+00  0.45593999997E+02  0.45594000000E+02  0.51100000000E-03 0.  1.
         11   -1    0    0    0    0 -0.00000000000E+00 -0.00000000000E+00 -0.45593999997E+02  0.45594000000E+02  0.51100000000E-03 0. -1.
    9900012    2    1    2    0    0  0.57456936172E+00 -0.27176363446E+02 -0.30237218639E+02  0.50528754420E+02  0.29999679535E+02 0.  0.
        -12    1    1    2    0    0 -0.57456936172E+00  0.27176363446E+02  0.30237218639E+02  0.40659245580E+02  0.00000000000E+00 0.  1.
         11    1    3    3    0    0  0.13535610230E+01  0.19322335050E+01 -0.19702818556E+01  0.30737053555E+01  0.51100000000E-03 0. -1.
        -11    1    3    3    0    0 -0.19692163995E+01 -0.23240721060E+02 -0.55675409547E+01  0.23979291923E+02  0.51100000000E-03 0.  1.
         12    1    3    3    0    0  0.11902247383E+01 -0.58678758914E+01 -0.22699395828E+02  0.23475757142E+02  0.00000000000E+00 0. -1.
</event>
<event>
 7    1  0.5913457E-013  0.5052885E+02  0.7816164E-02  0.1300439E+00
        -11   -1    0    0    0    0  0.00000000000E+00  0.00000000000E+00  0.45593999997E+02  0.45594000000E+02  0.51100000000E-03 0. -1.
         11   -1    0    0    0    0 -0.00000000000E+00 -0.00000000000E+00 -0.45593999997E+02  0.45594000000E+02  0.51100000000E-03 0.  1.
    9900012    2    1    2    0    0  0.10969246865E+02 -0.35581159318E+02  0.16334728849E+02  0.50528847995E+02  0.29999963967E+02 0.  0.
        -12    1    1    2    0    0 -0.10969246865E+02  0.35581159318E+02 -0.16334728849E+02  0.40659152005E+02  0.00000000000E+00 0.  1.
         11    1    3    3    0    0 -0.84350562665E+00 -0.25984313680E+01  0.14547052001E+02  0.14801353637E+02  0.51100000000E-03 0. -1.
        -11    1    3    3    0    0  0.95188714384E+00 -0.78411647435E+00 -0.10615945811E+01  0.16272403313E+01  0.51100000000E-03 0.  1.
        -12    1    3    3    0    0  0.10860865348E+02 -0.32198611475E+02  0.28492714292E+01  0.34100254027E+02  0.00000000000E+00 0.  1.
</event>
<event>
 7    1  0.5913457E-013  0.5052886E+02  0.7816164E-02  0.1300439E+00
        -11   -1    0    0    0    0  0.00000000000E+00  0.00000000000E+00  0.45593999997E+02  0.45594000000E+02  0.51100000000E-03 0.  1.
         11   -1    0    0    0    0 -0.00000000000E+00 -0.00000000000E+00 -0.45593999997E+02  0.45594000000E+02  0.51100000000E-03 0. -1.
    9900012    2    1    2    0    0 -0.18850611225E+02 -0.21427505651E+01 -0.35961493260E+02  0.50528856859E+02  0.29999990907E+02 0.  0.
        -12    1    1    2    0    0  0.18850611225E+02  0.21427505651E+01  0.35961493260E+02  0.40659143141E+02  0.00000000000E+00 0.  1.
         11    1    3    3    0    0 -0.14361474065E+02 -0.54463618891E+01 -0.15357959206E+02  0.21720536512E+02  0.51100000000E-03 0. -1.
        -11    1    3    3    0    0 -0.95368166727E+01  0.77593033294E+01 -0.84631104538E+01  0.14925880182E+02  0.51100000000E-03 0.  1.
        -12    1    3    3    0    0  0.50476795130E+01 -0.44556920055E+01 -0.12140423600E+02  0.13882440164E+02  0.00000000000E+00 0.  1.
</event>
<event>
 7    1  0.5913457E-013  0.5052886E+02  0.7816164E-02  0.1300439E+00
        -11   -1    0    0    0    0  0.00000000000E+00  0.00000000000E+00  0.45593999997E+02  0.45594000000E+02  0.51100000000E-03 0. -1.
         11   -1    0    0    0    0 -0.00000000000E+00 -0.00000000000E+00 -0.45593999997E+02  0.45594000000E+02  0.51100000000E-03 0.  1.
    9900012    2    1    2    0    0 -0.18112840528E+02  0.35597503815E+02  0.76097823302E+01  0.50528855187E+02  0.29999985827E+02 0.  0.
        -12    1    1    2    0    0  0.18112840528E+02 -0.35597503815E+02 -0.76097823302E+01  0.40659144813E+02  0.00000000000E+00 0.  1.
         11    1    3    3    0    0 -0.11685250400E+02  0.29824626949E+02 -0.48489540376E-02  0.32032069451E+02  0.51100000000E-03 0. -1.
        -11    1    3    3    0    0 -0.77571752794E+01  0.88893915201E+01  0.20399249860E+01  0.11973150969E+02  0.51100000000E-03 0.  1.
        -12    1    3    3    0    0  0.13295851521E+01 -0.31165146541E+01  0.55747062982E+01  0.65236347673E+01  0.00000000000E+00 0.  1.
</event>
<event>
 7    1  0.5913457E-013  0.5052886E+02  0.7816164E-02  0.1300439E+00
        -11   -1    0    0    0    0  0.00000000000E+00  0.00000000000E+00  0.45593999997E+02  0.45594000000E+02  0.51100000000E-03 0.  1.
         11   -1    0    0    0    0 -0.00000000000E+00 -0.00000000000E+00 -0.45593999997E+02  0.45594000000E+02  0.51100000000E-03 0. -1.
    9900012    2    1    2    0    0  0.88721732239E+01 -0.12411983916E+02 -0.37688103511E+02  0.50528856518E+02  0.29999989873E+02 0.  0.
        -12    1    1    2    0    0 -0.88721732239E+01  0.12411983916E+02  0.37688103511E+02  0.40659143482E+02  0.00000000000E+00 0.  1.
         11    1    3    3    0    0  0.93379962492E+01 -0.28947954177E+01 -0.15087907346E+00  0.97775650965E+01  0.51100000000E-03 0. -1.
        -11    1    3    3    0    0  0.46887278272E+01 -0.53649019330E+01 -0.91193548243E+01  0.11572768643E+02  0.51100000000E-03 0.  1.
        -12    1    3    3    0    0 -0.51545508525E+01 -0.41522865650E+01 -0.28417869613E+02  0.29178522779E+02  0.00000000000E+00 0.  1.
</event>
<event>
 7    1  0.5913457E-013  0.5052886E+02  0.7816164E-02  0.1300439E+00
        -11   -1    0    0    0    0  0.00000000000E+00  0.00000000000E+00  0.45593999997E+02  0.45594000000E+02  0.51100000000E-03 0. -1.
         11   -1    0    0    0    0 -0.00000000000E+00 -0.00000000000E+00 -0.45593999997E+02  0.45594000000E+02  0.51100000000E-03 0.  1.
    9900012    2    1    2    0    0 -0.27985995460E+02  0.18355135985E+02  0.23087631706E+02  0.50528859616E+02  0.29999999290E+02 0.  0.
        -12    1    1    2    0    0  0.27985995460E+02 -0.18355135985E+02 -0.23087631706E+02  0.40659140384E+02  0.00000000000E+00 0.  1.
         11    1    3    3    0    0 -0.16078701147E+01  0.13055457925E+02  0.14951830708E+02  0.19914504004E+02  0.51100000000E-03 0. -1.
        -11    1    3    3    0    0 -0.14087770704E+02 -0.38916275054E+00  0.95100567867E+01  0.17001703191E+02  0.51100000000E-03 0.  1.
        -12    1    3    3    0    0 -0.12290354642E+02  0.56888408106E+01 -0.13742557880E+01  0.13612652422E+02  0.00000000000E+00 0.  1.
</event>
<event>
 7    1  0.5913457E-013  0.5052886E+02  0.7816164E-02  0.1300439E+00
        -11   -1    0    0    0    0  0.00000000000E+00  0.00000000000E+00  0.45593999997E+02  0.45594000000E+02  0.51100000000E-03 0.  1.
         11   -1    0    0    0    0 -0.00000000000E+00 -0.00000000000E+00 -0.45593999997E+02  0.45594000000E+02  0.51100000000E-03 0. -1.
    9900012    2    1    2    0    0 -0.27584889455E+02  0.20104608196E+02 -0.22091726276E+02  0.50528858754E+02  0.29999996670E+02 0.  0.
        -12    1    1    2    0    0  0.27584889455E+02 -0.20104608196E+02  0.22091726276E+02  0.40659141246E+02  0.00000000000E+00 0.  1.
         11    1    3    3    0    0 -0.85104717712E+01  0.18967797972E+02 -0.14047809816E+02  0.25090764248E+02  0.51100000000E-03 0. -1.
        -11    1    3    3    0    0  0.21413423708E+01  0.18869739993E+01 -0.14945992336E+01  0.32217767075E+01  0.51100000000E-03 0.  1.
         12    1    3    3    0    0 -0.21215760055E+02 -0.75016377528E+00 -0.65493172262E+01  0.22216317798E+02  0.00000000000E+00 0. -1.
</event>
<event>
 7    1  0.5913457E-013  0.5052886E+02  0.7816164E-02  0.1300439E+00
        -11   -1    0    0    0    0  0.00000000000E+00  0.00000000000E+00  0.45593999997E+02  0.45594000000E+02  0.51100000000E-03 0.  1.
         11   -1    0    0    0    0 -0.00000000000E+00 -0.00000000000E+00 -0.45593999997E+02  0.45594000000E+02  0.51100000000E-03 0. -1.
    9900012    2    1    2    0    0 -0.11069241456E+02  0.31831042250E+02 -0.22746910146E+02  0.50528864761E+02  0.30000014929E+02 0.  0.
        -12    1    1    2    0    0  0.11069241456E+02 -0.31831042250E+02  0.22746910146E+02  0.40659135239E+02  0.00000000000E+00 0.  1.
         11    1    3    3    0    0 -0.36151257482E+00  0.96186451536E+01 -0.95132482343E+01  0.13533326205E+02  0.51100000000E-03 0. -1.
        -11    1    3    3    0    0 -0.59910291146E+01  0.21831523451E+02 -0.18986541163E+02  0.29546515728E+02  0.51100000000E-03 0.  1.
        -12    1    3    3    0    0 -0.47166997670E+01  0.38087364537E+00  0.57528792514E+01  0.74490228290E+01  0.00000000000E+00 0.  1.
</event>
<event>
 7    1  0.5913457E-013  0.5052887E+02  0.7816164E-02  0.1300439E+00
        -11   -1    0    0    0    0  0.00000000000E+00  0.00000000000E+00  0.45593999997E+02  0.45594000000E+02  0.51100000000E-03 0.  1.
         11   -1    0    0    0    0 -0.00000000000E+00 -0.00000000000E+00 -0.45593999997E+02  0.45594000000E+02  0.51100000000E-03 0. -1.
    9900012    2    1    2    0    0  0.20474371553E+02 -0.35093525224E+02 -0.15523161921E+01  0.50528867094E+02  0.30000022020E+02 0.  0.
        -12    1    1    2    0    0 -0.20474371553E+02  0.35093525224E+02  0.15523161921E+01  0.40659132906E+02  0.00000000000E+00 0.  1.
         11    1    3    3    0    0  0.19981317863E+02 -0.17951999679E+02 -0.27566704691E+01  0.27002344127E+02  0.51100000000E-03 0. -1.
        -11    1    3    3    0    0  0.70348304432E+01 -0.27639323972E+01  0.15994440350E+01  0.77256962885E+01  0.51100000000E-03 0.  1.
        -12    1    3    3    0    0 -0.65417767539E+01 -0.14377593147E+02 -0.39508975804E+00  0.15800826678E+02  0.00000000000E+00 0.  1.
</event>
<event>
 7    1  0.5913457E-013  0.5052886E+02  0.7816164E-02  0.1300439E+00
        -11   -1    0    0    0    0  0.00000000000E+00  0.00000000000E+00  0.45593999997E+02  0.45594000000E+02  0.51100000000E-03 0.  1.
         11   -1    0    0    0    0 -0.00000000000E+00 -0.00000000000E+00 -0.45593999997E+02  0.45594000000E+02  0.51100000000E-03 0. -1.
    9900012    2    1    2    0    0 -0.28477647577E+02 -0.28766709200E+02 -0.38295555888E+01  0.50528862457E+02  0.30000007924E+02 0.  0.
        -12    1    1    2    0    0  0.28477647577E+02  0.28766709200E+02  0.38295555888E+01  0.40659137543E+02  0.00000000000E+00 0.  1.
         11    1    3    3    0    0 -0.46941537594E+01 -0.15203930275E+01  0.91617904158E+00  0.50185713876E+01  0.51100000000E-03 0. -1.
        -11    1    3    3    0    0 -0.21424004304E+02 -0.47462360246E+01  0.16349020473E+01  0.22004263718E+02  0.51100000000E-03 0.  1.
        -12    1    3    3    0    0 -0.23594895140E+01 -0.22500080148E+02 -0.63806366776E+01  0.23506027351E+02  0.00000000000E+00 0.  1.
</event>
<event>
 7    1  0.5913457E-013  0.5052887E+02  0.7816164E-02  0.1300439E+00
        -11   -1    0    0    0    0  0.00000000000E+00  0.00000000000E+00  0.45593999997E+02  0.45594000000E+02  0.51100000000E-03 0.  1.
         11   -1    0    0    0    0 -0.00000000000E+00 -0.00000000000E+00 -0.45593999997E+02  0.45594000000E+02  0.51100000000E-03 0. -1.
    9900012    2    1    2    0    0 -0.19745727118E+02 -0.33718786980E+02 -0.11238969220E+02  0.50528871087E+02  0.30000034157E+02 0.  0.
        -12    1    1    2    0    0  0.19745727118E+02  0.33718786980E+02  0.11238969220E+02  0.40659128913E+02  0.00000000000E+00 0.  1.
         11    1    3    3    0    0  0.90129368376E+00  0.91383568479E+00  0.25933872490E+01  0.28936281115E+01  0.51100000000E-03 0. -1.
        -11    1    3    3    0    0 -0.17105248456E+01 -0.43550171770E+01  0.53421716114E+01  0.71014694005E+01  0.51100000000E-03 0.  1.
         12    1    3    3    0    0 -0.18936495956E+02 -0.30277605488E+02 -0.19174528080E+02  0.40533773575E+02  0.00000000000E+00 0. -1.
</event>
<event>
 7    1  0.5913457E-013  0.5052884E+02  0.7816164E-02  0.1300439E+00
        -11   -1    0    0    0    0  0.00000000000E+00  0.00000000000E+00  0.45593999997E+02  0.45594000000E+02  0.51100000000E-03 0. -1.
         11   -1    0    0    0    0 -0.00000000000E+00 -0.00000000000E+00 -0.45593999997E+02  0.45594000000E+02  0.51100000000E-03 0.  1.
    9900012    2    1    2    0    0 -0.20627886782E+02 -0.33650330022E+02  0.97628445335E+01  0.50528836739E+02  0.29999929752E+02 0.  0.
        -12    1    1    2    0    0  0.20627886782E+02  0.33650330022E+02 -0.97628445335E+01  0.40659163261E+02  0.00000000000E+00 0.  1.
         11    1    3    3    0    0 -0.42723461153E+01 -0.47365302398E+01  0.64129128274E+01  0.90450600459E+01  0.51100000000E-03 0. -1.
        -11    1    3    3    0    0 -0.34477369271E+01 -0.24042724996E+02  0.98785416499E+01  0.26220699849E+02  0.51100000000E-03 0.  1.
        -12    1    3    3    0    0 -0.12907803740E+02 -0.48710747857E+01 -0.65286099438E+01  0.15263076844E+02  0.00000000000E+00 0.  1.
</event>
<event>
 7    1  0.5913457E-013  0.5052886E+02  0.7816164E-02  0.1300439E+00
        -11   -1    0    0    0    0  0.00000000000E+00  0.00000000000E+00  0.45593999997E+02  0.45594000000E+02  0.51100000000E-03 0.  1.
         11   -1    0    0    0    0 -0.00000000000E+00 -0.00000000000E+00 -0.45593999997E+02  0.45594000000E+02  0.51100000000E-03 0. -1.
    9900012    2    1    2    0    0  0.11823235081E+02  0.15540976747E+02 -0.35663075542E+02  0.50528858308E+02  0.29999995313E+02 0.  0.
        -12    1    1    2    0    0 -0.11823235081E+02 -0.15540976747E+02  0.35663075542E+02  0.40659141692E+02  0.00000000000E+00 0.  1.
         11    1    3    3    0    0  0.66115632284E+01  0.13081661285E+02 -0.28956956540E+02  0.32455322562E+02  0.51100000000E-03 0. -1.
        -11    1    3    3    0    0 -0.36098430486E+01  0.38577883757E+01 -0.74251347172E+01  0.91129646009E+01  0.51100000000E-03 0.  1.
         12    1    3    3    0    0  0.88215149012E+01 -0.13984729131E+01  0.71901571558E+00  0.89605711447E+01  0.00000000000E+00 0. -1.
</event>
<event>
 7    1  0.5913457E-013  0.5052893E+02  0.7816164E-02  0.1300439E+00
        -11   -1    0    0    0    0  0.00000000000E+00  0.00000000000E+00  0.45593999997E+02  0.45594000000E+02  0.51100000000E-03 0. -1.
         11   -1    0    0    0    0 -0.00000000000E+00 -0.00000000000E+00 -0.45593999997E+02  0.45594000000E+02  0.51100000000E-03 0.  1.
    9900012    2    1    2    0    0  0.19751632955E+01  0.25176621934E+02  0.31865286937E+02  0.50528928765E+02  0.30000209474E+02 0.  0.
        -12    1    1    2    0    0 -0.19751632955E+01 -0.25176621934E+02 -0.31865286937E+02  0.40659071235E+02  0.00000000000E+00 0.  1.
         11    1    3    3    0    0  0.21944205646E+01  0.64210896260E+01  0.23570975032E+02  0.24528284445E+02  0.51100000000E-03 0. -1.
        -11    1    3    3    0    0  0.14982104171E+01  0.11893964548E+01  0.81278901334E+01  0.83499638719E+01  0.51100000000E-03 0.  1.
        -12    1    3    3    0    0 -0.17174676861E+01  0.17566135854E+02  0.16642177218E+00  0.17650680448E+02  0.00000000000E+00 0.  1.
</event>
<event>
 7    1  0.9462743E-013  0.5052885E+02  0.7816164E-02  0.1300439E+00
        -11   -1    0    0    0    0  0.00000000000E+00  0.00000000000E+00  0.45593999997E+02  0.45594000000E+02  0.51100000000E-03 0. -1.
         11   -1    0    0    0    0 -0.00000000000E+00 -0.00000000000E+00 -0.45593999997E+02  0.45594000000E+02  0.51100000000E-03 0.  1.
    9900012    2    1    2    0    0 -0.61149807630E+01  0.19573310746E+02  0.35109240557E+02  0.50528852742E+02  0.29999978394E+02 0.  0.
        -12    1    1    2    0    0  0.61149807630E+01 -0.19573310746E+02 -0.35109240557E+02  0.40659147258E+02  0.00000000000E+00 0.  1.
         11    1    3    3    0    0 -0.29077996418E+01  0.35418117944E+01  0.24496174219E+02  0.24921121186E+02  0.51100000000E-03 0. -1.
        -11    1    3    3    0    0  0.63916707708E+01  0.39847598560E+01  0.56803308545E+01  0.94338711688E+01  0.51100000000E-03 0.  1.
        -12    1    3    3    0    0 -0.95988518919E+01  0.12046739095E+02  0.49327354833E+01  0.16173860387E+02  0.00000000000E+00 0.  1.
</event>
<event>
 7    1  0.5913457E-013  0.5052886E+02  0.7816164E-02  0.1300439E+00
        -11   -1    0    0    0    0  0.00000000000E+00  0.00000000000E+00  0.45593999997E+02  0.45594000000E+02  0.51100000000E-03 0.  1.
         11   -1    0    0    0    0 -0.00000000000E+00 -0.00000000000E+00 -0.45593999997E+02  0.45594000000E+02  0.51100000000E-03 0. -1.
    9900012    2    1    2    0    0  0.10958810665E+00 -0.19236050961E+02 -0.35820777257E+02  0.50528858969E+02  0.29999997322E+02 0.  0.
        -12    1    1    2    0    0 -0.10958810665E+00  0.19236050961E+02  0.35820777257E+02  0.40659141031E+02  0.00000000000E+00 0.  1.
         11    1    3    3    0    0 -0.46175081543E+01 -0.15861517962E+01 -0.18455694604E+02  0.19090571564E+02  0.51100000000E-03 0. -1.
        -11    1    3    3    0    0  0.35563668203E+01 -0.39913039902E+01 -0.16896048480E+02  0.17721588727E+02  0.51100000000E-03 0.  1.
        -12    1    3    3    0    0  0.11707294406E+01 -0.13658595174E+02 -0.46903417232E+00  0.13716698678E+02  0.00000000000E+00 0.  1.
</event>
<event>
 7    1  0.5913457E-013  0.5052891E+02  0.7816164E-02  0.1300439E+00
        -11   -1    0    0    0    0  0.00000000000E+00  0.00000000000E+00  0.45593999997E+02  0.45594000000E+02  0.51100000000E-03 0.  1.
         11   -1    0    0    0    0 -0.00000000000E+00 -0.00000000000E+00 -0.45593999997E+02  0.45594000000E+02  0.51100000000E-03 0. -1.
    9900012    2    1    2    0    0 -0.10947853066E+02 -0.24217088555E+02 -0.30770738366E+02  0.50528914860E+02  0.30000167208E+02 0.  0.
        -12    1    1    2    0    0  0.10947853066E+02  0.24217088555E+02  0.30770738366E+02  0.40659085140E+02  0.00000000000E+00 0.  1.
         11    1    3    3    0    0  0.36789691565E+01 -0.42118116721E+01 -0.39297720410E+01  0.68350040360E+01  0.51100000000E-03 0. -1.
        -11    1    3    3    0    0 -0.69750038299E+01 -0.63187220552E+01 -0.26378063608E+02  0.28006770017E+02  0.51100000000E-03 0.  1.
         12    1    3    3    0    0 -0.76518183930E+01 -0.13686554828E+02 -0.46290271708E+00  0.15687140807E+02  0.00000000000E+00 0. -1.
</event>
<event>
 7    1  0.5913457E-013  0.5052891E+02  0.7816164E-02  0.1300439E+00
        -11   -1    0    0    0    0  0.00000000000E+00  0.00000000000E+00  0.45593999997E+02  0.45594000000E+02  0.51100000000E-03 0.  1.
         11   -1    0    0    0    0 -0.00000000000E+00 -0.00000000000E+00 -0.45593999997E+02  0.45594000000E+02  0.51100000000E-03 0. -1.
    9900012    2    1    2    0    0  0.15690997856E+02  0.21619601170E+02 -0.30652025031E+02  0.50528914829E+02  0.30000167113E+02 0.  0.
        -12    1    1    2    0    0 -0.15690997856E+02 -0.21619601170E+02  0.30652025031E+02  0.40659085171E+02  0.00000000000E+00 0.  1.
         11    1    3    3    0    0  0.64245921809E+01  0.52316071519E+01 -0.72143267857E+01  0.10985973298E+02  0.51100000000E-03 0. -1.
        -11    1    3    3    0    0  0.14155560279E+02  0.20183753339E+02 -0.14281154453E+02  0.28490615270E+02  0.51100000000E-03 0.  1.
        -12    1    3    3    0    0 -0.48891546037E+01 -0.37957593209E+01 -0.91565437918E+01  0.11052326261E+02  0.00000000000E+00 0.  1.
</event>
<event>
 7    1  0.5913457E-013  0.5052886E+02  0.7816164E-02  0.1300439E+00
        -11   -1    0    0    0    0  0.00000000000E+00  0.00000000000E+00  0.45593999997E+02  0.45594000000E+02  0.51100000000E-03 0.  1.
         11   -1    0    0    0    0 -0.00000000000E+00 -0.00000000000E+00 -0.45593999997E+02  0.45594000000E+02  0.51100000000E-03 0. -1.
    9900012    2    1    2    0    0  0.86989014315E+01 -0.23546995100E+02 -0.31984903001E+02  0.50528857309E+02  0.29999992278E+02 0.  0.
        -12    1    1    2    0    0 -0.86989014315E+01  0.23546995100E+02  0.31984903001E+02  0.40659142691E+02  0.00000000000E+00 0.  1.
         11    1    3    3    0    0 -0.43204708028E+01 -0.40536373394E+01 -0.92765629071E+01  0.11006955222E+02  0.51100000000E-03 0. -1.
        -11    1    3    3    0    0  0.45729733614E+01 -0.64152900700E+01 -0.22620491098E+02  0.23953176195E+02  0.51100000000E-03 0.  1.
        -12    1    3    3    0    0  0.84463988728E+01 -0.13078067691E+02 -0.87848995042E-01  0.15568725892E+02  0.00000000000E+00 0.  1.
</event>
<event>
 7    1  0.5913457E-013  0.5052886E+02  0.7816164E-02  0.1300439E+00
        -11   -1    0    0    0    0  0.00000000000E+00  0.00000000000E+00  0.45593999997E+02  0.45594000000E+02  0.51100000000E-03 0.  1.
         11   -1    0    0    0    0 -0.00000000000E+00 -0.00000000000E+00 -0.45593999997E+02  0.45594000000E+02  0.51100000000E-03 0. -1.
    9900012    2    1    2    0    0  0.26798224131E+02  0.15498273678E+02 -0.26359516511E+02  0.50528863090E+02  0.30000009848E+02 0.  0.
        -12    1    1    2    0    0 -0.26798224131E+02 -0.15498273678E+02  0.26359516511E+02  0.40659136910E+02  0.00000000000E+00 0.  1.
         11    1    3    3    0    0  0.73183993106E+01  0.95697167694E+01 -0.49139536642E+01  0.13010971847E+02  0.51100000000E-03 0. -1.
        -11    1    3    3    0    0  0.12833793583E+02  0.13666999227E+02 -0.73925840189E+01  0.20153000381E+02  0.51100000000E-03 0.  1.
         12    1    3    3    0    0  0.66460312372E+01 -0.77384423185E+01 -0.14052978828E+02  0.17364890863E+02  0.00000000000E+00 0. -1.
</event>
<event>
 7    1  0.5913457E-013  0.5052884E+02  0.7816164E-02  0.1300439E+00
        -11   -1    0    0    0    0  0.00000000000E+00  0.00000000000E+00  0.45593999997E+02  0.45594000000E+02  0.51100000000E-03 0. -1.
         11   -1    0    0    0    0 -0.00000000000E+00 -0.00000000000E+00 -0.45593999997E+02  0.45594000000E+02  0.51100000000E-03 0.  1.
    9900012    2    1    2    0    0 -0.72529895736E+01 -0.37601470326E+02  0.13663500857E+02  0.50528835177E+02  0.29999925004E+02 0.  0.
        -12    1    1    2    0    0  0.72529895736E+01  0.37601470326E+02 -0.13663500857E+02  0.40659164823E+02  0.00000000000E+00 0.  1.
         11    1    3    3    0    0  0.19732172193E+01 -0.24898978663E+02  0.14867089189E+02  0.29066872310E+02  0.51100000000E-03 0.  1.
        -11    1    3    3    0    0  0.14459270961E+01 -0.40160401700E+01  0.48222579503E+01  0.64399888055E+01  0.51100000000E-03 0. -1.
        -12    1    3    3    0    0 -0.10672133889E+02 -0.86864514928E+01 -0.60258462824E+01  0.15021974061E+02  0.00000000000E+00 0.  1.
</event>
<event>
 7    1  0.5913457E-013  0.5052886E+02  0.7816164E-02  0.1300439E+00
        -11   -1    0    0    0    0  0.00000000000E+00  0.00000000000E+00  0.45593999997E+02  0.45594000000E+02  0.51100000000E-03 0.  1.
         11   -1    0    0    0    0 -0.00000000000E+00 -0.00000000000E+00 -0.45593999997E+02  0.45594000000E+02  0.51100000000E-03 0. -1.
    9900012    2    1    2    0    0 -0.39281876043E+02  0.13897906196E+01 -0.10400394336E+02  0.50528861964E+02  0.30000006427E+02 0.  0.
        -12    1    1    2    0    0  0.39281876043E+02 -0.13897906196E+01  0.10400394336E+02  0.40659138036E+02  0.00000000000E+00 0.  1.
         11    1    3    3    0    0 -0.16442568605E+02 -0.44045358319E+00 -0.14632458300E+02  0.22015015282E+02  0.51100000000E-03 0. -1.
        -11    1    3    3    0    0 -0.75051684812E+00  0.28587316544E+01 -0.39522231174E+01  0.49351484317E+01  0.51100000000E-03 0.  1.
         12    1    3    3    0    0 -0.22088790590E+02 -0.10284874517E+01  0.81842870815E+01  0.23578698251E+02  0.00000000000E+00 0. -1.
</event>
<event>
 7    1  0.5913457E-013  0.5052887E+02  0.7816164E-02  0.1300439E+00
        -11   -1    0    0    0    0  0.00000000000E+00  0.00000000000E+00  0.45593999997E+02  0.45594000000E+02  0.51100000000E-03 0. -1.
         11   -1    0    0    0    0 -0.00000000000E+00 -0.00000000000E+00 -0.45593999997E+02  0.45594000000E+02  0.51100000000E-03 0.  1.
    9900012    2    1    2    0    0 -0.14619603004E+02  0.32657218920E+02  0.19311595282E+02  0.50528874925E+02  0.30000045821E+02 0.  0.
        -12    1    1    2    0    0  0.14619603004E+02 -0.32657218920E+02 -0.19311595282E+02  0.40659125075E+02  0.00000000000E+00 0.  1.
         11    1    3    3    0    0 -0.82968589629E+01  0.94169562779E+01  0.69338576439E+01  0.14338595338E+02  0.51100000000E-03 0. -1.
        -11    1    3    3    0    0 -0.99863059040E+01 -0.85504762011E-01  0.63039207888E+01  0.11809870204E+02  0.51100000000E-03 0.  1.
        -12    1    3    3    0    0  0.36635618631E+01  0.23325767404E+02  0.60738168492E+01  0.24380409382E+02  0.00000000000E+00 0.  1.
</event>
<event>
 7    1  0.5913457E-013  0.5052881E+02  0.7816164E-02  0.1300439E+00
        -11   -1    0    0    0    0  0.00000000000E+00  0.00000000000E+00  0.45593999997E+02  0.45594000000E+02  0.51100000000E-03 0.  1.
         11   -1    0    0    0    0 -0.00000000000E+00 -0.00000000000E+00 -0.45593999997E+02  0.45594000000E+02  0.51100000000E-03 0. -1.
    9900012    2    1    2    0    0  0.12421058769E+02  0.13359637263E+02 -0.36337401190E+02  0.50528814888E+02  0.29999863332E+02 0.  0.
        -12    1    1    2    0    0 -0.12421058769E+02 -0.13359637263E+02  0.36337401190E+02  0.40659185112E+02  0.00000000000E+00 0.  1.
         11    1    3    3    0    0  0.99568941007E+01  0.15309809657E+02 -0.12901152332E+02  0.22360003212E+02  0.51100000000E-03 0. -1.
        -11    1    3    3    0    0  0.70218542060E+01  0.21941936457E+01 -0.54460982193E+01  0.91531911550E+01  0.51100000000E-03 0.  1.
         12    1    3    3    0    0 -0.45576895378E+01 -0.41443660395E+01 -0.17990150639E+02  0.19015620521E+02  0.00000000000E+00 0. -1.
</event>
<event>
 7    1  0.5913457E-013  0.5052886E+02  0.7816164E-02  0.1300439E+00
        -11   -1    0    0    0    0  0.00000000000E+00  0.00000000000E+00  0.45593999997E+02  0.45594000000E+02  0.51100000000E-03 0.  1.
         11   -1    0    0    0    0 -0.00000000000E+00 -0.00000000000E+00 -0.45593999997E+02  0.45594000000E+02  0.51100000000E-03 0. -1.
    9900012    2    1    2    0    0  0.10722916517E+02 -0.18417205719E+02 -0.34626455366E+02  0.50528858145E+02  0.29999994819E+02 0.  0.
        -12    1    1    2    0    0 -0.10722916517E+02  0.18417205719E+02  0.34626455366E+02  0.40659141855E+02  0.00000000000E+00 0.  1.
         11    1    3    3    0    0  0.46082101666E+01 -0.17884787571E+02 -0.27895431632E+02  0.33455288574E+02  0.51100000000E-03 0. -1.
        -11    1    3    3    0    0 -0.31988893645E+01 -0.38884778009E+01  0.11617171600E+00  0.50365314357E+01  0.51100000000E-03 0.  1.
         12    1    3    3    0    0  0.93135957150E+01  0.33560596531E+01 -0.68471954503E+01  0.12037038135E+02  0.00000000000E+00 0. -1.
</event>
<event>
 7    1  0.5913457E-013  0.5052887E+02  0.7816164E-02  0.1300439E+00
        -11   -1    0    0    0    0  0.00000000000E+00  0.00000000000E+00  0.45593999997E+02  0.45594000000E+02  0.51100000000E-03 0.  1.
         11   -1    0    0    0    0 -0.00000000000E+00 -0.00000000000E+00 -0.45593999997E+02  0.45594000000E+02  0.51100000000E-03 0. -1.
    9900012    2    1    2    0    0 -0.30516034665E+02 -0.14359166295E+02  0.22710149345E+02  0.50528869271E+02  0.30000028636E+02 0.  0.
        -12    1    1    2    0    0  0.30516034665E+02  0.14359166295E+02 -0.22710149345E+02  0.40659130729E+02  0.00000000000E+00 0.  1.
         11    1    3    3    0    0 -0.13420622892E+02 -0.11856915086E+02 -0.31192588152E+00  0.17910802668E+02  0.51100000000E-03 0. -1.
        -11    1    3    3    0    0 -0.10093185287E+02  0.51400587306E+01  0.63460583503E+01  0.12983260370E+02  0.51100000000E-03 0.  1.
         12    1    3    3    0    0 -0.70022264860E+01 -0.76423099395E+01  0.16676016876E+02  0.19634806234E+02  0.00000000000E+00 0. -1.
</event>
<event>
 7    1  0.5913457E-013  0.5052886E+02  0.7816164E-02  0.1300439E+00
        -11   -1    0    0    0    0  0.00000000000E+00  0.00000000000E+00  0.45593999997E+02  0.45594000000E+02  0.51100000000E-03 0.  1.
         11   -1    0    0    0    0 -0.00000000000E+00 -0.00000000000E+00 -0.45593999997E+02  0.45594000000E+02  0.51100000000E-03 0. -1.
    9900012    2    1    2    0    0 -0.37466306355E+02  0.11249445898E+02 -0.11085647368E+02  0.50528859300E+02  0.29999998329E+02 0.  0.
        -12    1    1    2    0    0  0.37466306355E+02 -0.11249445898E+02  0.11085647368E+02  0.40659140700E+02  0.00000000000E+00 0.  1.
         11    1    3    3    0    0 -0.10472706054E+01 -0.96495467540E-01  0.15720759045E+01  0.18914306773E+01  0.51100000000E-03 0.  1.
        -11    1    3    3    0    0 -0.14177620067E+02 -0.85566366900E+01 -0.81371666119E+01  0.18450865100E+02  0.51100000000E-03 0. -1.
         12    1    3    3    0    0 -0.22241415682E+02  0.19902578056E+02 -0.45205566607E+01  0.30186563523E+02  0.00000000000E+00 0. -1.
</event>
<event>
 7    1  0.5913457E-013  0.5052886E+02  0.7816164E-02  0.1300439E+00
        -11   -1    0    0    0    0  0.00000000000E+00  0.00000000000E+00  0.45593999997E+02  0.45594000000E+02  0.51100000000E-03 0. -1.
         11   -1    0    0    0    0 -0.00000000000E+00 -0.00000000000E+00 -0.45593999997E+02  0.45594000000E+02  0.51100000000E-03 0.  1.
    9900012    2    1    2    0    0 -0.74328587643E+01 -0.28303379711E+02  0.28228297380E+02  0.50528862460E+02  0.30000007934E+02 0.  0.
        -12    1    1    2    0    0  0.74328587643E+01  0.28303379711E+02 -0.28228297380E+02  0.40659137540E+02  0.00000000000E+00 0.  1.
         11    1    3    3    0    0  0.88099635563E+01 -0.10121350698E+02  0.88128695197E+01  0.16053780466E+02  0.51100000000E-03 0. -1.
        -11    1    3    3    0    0  0.62174909830E+00  0.19347618111E+01  0.26018874186E+01  0.33014684017E+01  0.51100000000E-03 0.  1.
         12    1    3    3    0    0 -0.16864571419E+02 -0.20116790825E+02  0.16813540442E+02  0.31173613593E+02  0.00000000000E+00 0. -1.
</event>
<event>
 7    1  0.5913457E-013  0.5052886E+02  0.7816164E-02  0.1300439E+00
        -11   -1    0    0    0    0  0.00000000000E+00  0.00000000000E+00  0.45593999997E+02  0.45594000000E+02  0.51100000000E-03 0.  1.
         11   -1    0    0    0    0 -0.00000000000E+00 -0.00000000000E+00 -0.45593999997E+02  0.45594000000E+02  0.51100000000E-03 0. -1.
    9900012    2    1    2    0    0  0.19460764260E+02  0.24555071497E+02 -0.25913176698E+02  0.50528860703E+02  0.30000002592E+02 0.  0.
        -12    1    1    2    0    0 -0.19460764260E+02 -0.24555071497E+02  0.25913176698E+02  0.40659139297E+02  0.00000000000E+00 0.  1.
         11    1    3    3    0    0  0.71853644771E+01  0.78294085302E+01 -0.73220809444E+01  0.12905114111E+02  0.51100000000E-03 0. -1.
        -11    1    3    3    0    0  0.11454903632E+02  0.97091268888E+01 -0.24283606695E+02  0.28551278720E+02  0.51100000000E-03 0.  1.
        -12    1    3    3    0    0  0.82049615043E+00  0.70165360781E+01  0.56925109411E+01  0.90724678717E+01  0.00000000000E+00 0.  1.
</event>
<event>
 7    1  0.5913457E-013  0.5052886E+02  0.7816164E-02  0.1300439E+00
        -11   -1    0    0    0    0  0.00000000000E+00  0.00000000000E+00  0.45593999997E+02  0.45594000000E+02  0.51100000000E-03 0.  1.
         11   -1    0    0    0    0 -0.00000000000E+00 -0.00000000000E+00 -0.45593999997E+02  0.45594000000E+02  0.51100000000E-03 0. -1.
    9900012    2    1    2    0    0  0.32543132441E+01 -0.31296946798E+02 -0.25750261251E+02  0.50528863413E+02  0.30000010829E+02 0.  0.
        -12    1    1    2    0    0 -0.32543132441E+01  0.31296946798E+02  0.25750261251E+02  0.40659136587E+02  0.00000000000E+00 0.  1.
         11    1    3    3    0    0  0.10722490182E+02 -0.44939035453E+01 -0.35490935601E+01  0.12155781757E+02  0.51100000000E-03 0. -1.
        -11    1    3    3    0    0  0.25261932486E+01  0.15602363147E+00 -0.21357623800E+01  0.33117181202E+01  0.51100000000E-03 0.  1.
         12    1    3    3    0    0 -0.99943701862E+01 -0.26959066884E+02 -0.20065405310E+02  0.35061363535E+02  0.00000000000E+00 0. -1.
</event>
<event>
 7    1  0.5913457E-013  0.5052885E+02  0.7816164E-02  0.1300439E+00
        -11   -1    0    0    0    0  0.00000000000E+00  0.00000000000E+00  0.45593999997E+02  0.45594000000E+02  0.51100000000E-03 0.  1.
         11   -1    0    0    0    0 -0.00000000000E+00 -0.00000000000E+00 -0.45593999997E+02  0.45594000000E+02  0.51100000000E-03 0. -1.
    9900012    2    1    2    0    0 -0.33338186410E+02 -0.18880548797E+02 -0.13610893026E+02  0.50528853367E+02  0.29999980295E+02 0.  0.
        -12    1    1    2    0    0  0.33338186410E+02  0.18880548797E+02  0.13610893026E+02  0.40659146633E+02  0.00000000000E+00 0.  1.
         11    1    3    3    0    0 -0.18050973353E+01 -0.35490571362E-01  0.18818767653E+01  0.26078911771E+01  0.51100000000E-03 0. -1.
        -11    1    3    3    0    0  0.12528099295E+01 -0.18441351481E+01  0.51499194371E+01  0.56117766914E+01  0.51100000000E-03 0.  1.
         12    1    3    3    0    0 -0.32785899004E+02 -0.17000923077E+02 -0.20642689229E+02  0.42309185499E+02  0.00000000000E+00 0. -1.
</event>
<event>
 7    1  0.5913457E-013  0.5052886E+02  0.7816164E-02  0.1300439E+00
        -11   -1    0    0    0    0  0.00000000000E+00  0.00000000000E+00  0.45593999997E+02  0.45594000000E+02  0.51100000000E-03 0. -1.
         11   -1    0    0    0    0 -0.00000000000E+00 -0.00000000000E+00 -0.45593999997E+02  0.45594000000E+02  0.51100000000E-03 0.  1.
    9900012    2    1    2    0    0  0.19439376233E+02  0.17422475084E+02  0.31172643583E+02  0.50528859646E+02  0.29999999379E+02 0.  0.
        -12    1    1    2    0    0 -0.19439376233E+02 -0.17422475084E+02 -0.31172643583E+02  0.40659140354E+02  0.00000000000E+00 0.  1.
         11    1    3    3    0    0  0.53473746656E+01 -0.42476596659E+01  0.18915582707E+02  0.20110601628E+02  0.51100000000E-03 0. -1.
        -11    1    3    3    0    0 -0.70165991133E-02  0.65639882712E+01  0.58276334643E+01  0.87776593299E+01  0.51100000000E-03 0.  1.
        -12    1    3    3    0    0  0.14099018167E+02  0.15106146479E+02  0.64294274125E+01  0.21640598687E+02  0.00000000000E+00 0.  1.
</event>
<event>
 7    1  0.5913457E-013  0.5052886E+02  0.7816164E-02  0.1300439E+00
        -11   -1    0    0    0    0  0.00000000000E+00  0.00000000000E+00  0.45593999997E+02  0.45594000000E+02  0.51100000000E-03 0.  1.
         11   -1    0    0    0    0 -0.00000000000E+00 -0.00000000000E+00 -0.45593999997E+02  0.45594000000E+02  0.51100000000E-03 0. -1.
    9900012    2    1    2    0    0 -0.16296059740E+02  0.49183022860E+01 -0.36924445278E+02  0.50528856877E+02  0.29999990962E+02 0.  0.
        -12    1    1    2    0    0  0.16296059740E+02 -0.49183022860E+01  0.36924445278E+02  0.40659143123E+02  0.00000000000E+00 0.  1.
         11    1    3    3    0    0 -0.77926571337E+01  0.64642726317E+01 -0.27357024305E+02  0.29170517735E+02  0.51100000000E-03 0. -1.
        -11    1    3    3    0    0 -0.57893623206E+01  0.55141126842E+01 -0.11061502425E+02  0.13648406168E+02  0.51100000000E-03 0.  1.
        -12    1    3    3    0    0 -0.27140402860E+01 -0.70600830300E+01  0.14940814521E+01  0.77099329731E+01  0.00000000000E+00 0.  1.
</event>
<event>
 7    1  0.5913457E-013  0.5052886E+02  0.7816164E-02  0.1300439E+00
        -11   -1    0    0    0    0  0.00000000000E+00  0.00000000000E+00  0.45593999997E+02  0.45594000000E+02  0.51100000000E-03 0. -1.
         11   -1    0    0    0    0 -0.00000000000E+00 -0.00000000000E+00 -0.45593999997E+02  0.45594000000E+02  0.51100000000E-03 0.  1.
    9900012    2    1    2    0    0 -0.13536352165E+02  0.38296639785E+02 -0.18166043857E+01  0.50528862033E+02  0.30000006634E+02 0.  0.
        -12    1    1    2    0    0  0.13536352165E+02 -0.38296639785E+02  0.18166043857E+01  0.40659137967E+02  0.00000000000E+00 0.  1.
         11    1    3    3    0    0 -0.11600358412E+02  0.98842142185E+01 -0.19008316571E+01  0.15358358221E+02  0.51100000000E-03 0. -1.
        -11    1    3    3    0    0 -0.70743397575E+01  0.15678303593E+02 -0.82824058287E+01  0.19090671364E+02  0.51100000000E-03 0.  1.
        -12    1    3    3    0    0  0.51383460042E+01  0.12734121974E+02  0.83666331001E+01  0.16079832447E+02  0.00000000000E+00 0.  1.
</event>
<event>
 7    1  0.5913457E-013  0.5052885E+02  0.7816164E-02  0.1300439E+00
        -11   -1    0    0    0    0  0.00000000000E+00  0.00000000000E+00  0.45593999997E+02  0.45594000000E+02  0.51100000000E-03 0.  1.
         11   -1    0    0    0    0 -0.00000000000E+00 -0.00000000000E+00 -0.45593999997E+02  0.45594000000E+02  0.51100000000E-03 0. -1.
    9900012    2    1    2    0    0 -0.18687302177E+02 -0.10698837366E+02 -0.34488926264E+02  0.50528850741E+02  0.29999972312E+02 0.  0.
        -12    1    1    2    0    0  0.18687302177E+02  0.10698837366E+02  0.34488926264E+02  0.40659149259E+02  0.00000000000E+00 0.  1.
         11    1    3    3    0    0 -0.47906839673E+01 -0.30310941493E+00 -0.14752262991E+01  0.50218344344E+01  0.51100000000E-03 0. -1.
        -11    1    3    3    0    0 -0.20249773362E+02 -0.83606842606E+01 -0.31967964801E+02  0.38754420861E+02  0.51100000000E-03 0.  1.
        -12    1    3    3    0    0  0.63531551523E+01 -0.20350436907E+01 -0.10457351636E+01  0.67525954450E+01  0.00000000000E+00 0.  1.
</event>
<event>
 7    1  0.8262613E-013  0.5052886E+02  0.7816164E-02  0.1300439E+00
        -11   -1    0    0    0    0  0.00000000000E+00  0.00000000000E+00  0.45593999997E+02  0.45594000000E+02  0.51100000000E-03 0. -1.
         11   -1    0    0    0    0 -0.00000000000E+00 -0.00000000000E+00 -0.45593999997E+02  0.45594000000E+02  0.51100000000E-03 0.  1.
    9900012    2    1    2    0    0 -0.24480235560E+00 -0.65635739513E+01  0.40125121129E+02  0.50528858631E+02  0.29999996295E+02 0.  0.
        -12    1    1    2    0    0  0.24480235560E+00  0.65635739513E+01 -0.40125121129E+02  0.40659141369E+02  0.00000000000E+00 0.  1.
         11    1    3    3    0    0  0.65058694254E+01 -0.83721273558E+01  0.33045908846E+02  0.34705200550E+02  0.51100000000E-03 0. -1.
        -11    1    3    3    0    0 -0.20804649984E+01  0.66189262716E+01  0.56986450159E+01  0.89784784278E+01  0.51100000000E-03 0.  1.
        -12    1    3    3    0    0 -0.46702067825E+01 -0.48103728671E+01  0.13805672672E+01  0.68451796537E+01  0.00000000000E+00 0.  1.
</event>
<event>
 7    1  0.5913457E-013  0.5052887E+02  0.7816164E-02  0.1300439E+00
        -11   -1    0    0    0    0  0.00000000000E+00  0.00000000000E+00  0.45593999997E+02  0.45594000000E+02  0.51100000000E-03 0. -1.
         11   -1    0    0    0    0 -0.00000000000E+00 -0.00000000000E+00 -0.45593999997E+02  0.45594000000E+02  0.51100000000E-03 0.  1.
    9900012    2    1    2    0    0 -0.42844522084E+01  0.32613219183E+02  0.23899509407E+02  0.50528866387E+02  0.30000019870E+02 0.  0.
        -12    1    1    2    0    0  0.42844522084E+01 -0.32613219183E+02 -0.23899509407E+02  0.40659133613E+02  0.00000000000E+00 0.  1.
         11    1    3    3    0    0  0.93377753434E+01  0.10122483485E+02  0.12814424801E+01  0.13831153797E+02  0.51100000000E-03 0. -1.
        -11    1    3    3    0    0  0.13497426870E+01  0.61591182792E+01  0.25398360798E+01  0.67975959627E+01  0.51100000000E-03 0.  1.
         12    1    3    3    0    0 -0.14971970239E+02  0.16331617420E+02  0.20078230848E+02  0.29900116628E+02  0.00000000000E+00 0. -1.
</event>
<event>
 7    1  0.5913457E-013  0.5052886E+02  0.7816164E-02  0.1300439E+00
        -11   -1    0    0    0    0  0.00000000000E+00  0.00000000000E+00  0.45593999997E+02  0.45594000000E+02  0.51100000000E-03 0. -1.
         11   -1    0    0    0    0 -0.00000000000E+00 -0.00000000000E+00 -0.45593999997E+02  0.45594000000E+02  0.51100000000E-03 0.  1.
    9900012    2    1    2    0    0  0.24272540190E+02 -0.14474254955E+02  0.29231925115E+02  0.50528859457E+02  0.29999998805E+02 0.  0.
        -12    1    1    2    0    0 -0.24272540190E+02  0.14474254955E+02 -0.29231925115E+02  0.40659140543E+02  0.00000000000E+00 0.  1.
         11    1    3    3    0    0  0.17726478371E+02 -0.31526640709E+01  0.15202148943E+02  0.23564224132E+02  0.51100000000E-03 0. -1.
        -11    1    3    3    0    0  0.34512674323E+01 -0.26345562228E+00  0.15043853305E+02  0.15436909609E+02  0.51100000000E-03 0.  1.
         12    1    3    3    0    0  0.30947943862E+01 -0.11058135262E+02 -0.10140771320E+01  0.11527725716E+02  0.00000000000E+00 0. -1.
</event>
<event>
 7    1  0.5913457E-013  0.5052886E+02  0.7816164E-02  0.1300439E+00
        -11   -1    0    0    0    0  0.00000000000E+00  0.00000000000E+00  0.45593999997E+02  0.45594000000E+02  0.51100000000E-03 0.  1.
         11   -1    0    0    0    0 -0.00000000000E+00 -0.00000000000E+00 -0.45593999997E+02  0.45594000000E+02  0.51100000000E-03 0. -1.
    9900012    2    1    2    0    0  0.23854974375E+02 -0.29099559262E+02 -0.15405252622E+02  0.50528856379E+02  0.29999989449E+02 0.  0.
        -12    1    1    2    0    0 -0.23854974375E+02  0.29099559262E+02  0.15405252622E+02  0.40659143621E+02  0.00000000000E+00 0.  1.
         11    1    3    3    0    0  0.34958072412E+01 -0.57233435274E+01 -0.11164685625E+02  0.13024113589E+02  0.51100000000E-03 0. -1.
        -11    1    3    3    0    0  0.24184809204E+00  0.32723328974E+01  0.15298796923E+01  0.36203846791E+01  0.51100000000E-03 0.  1.
         12    1    3    3    0    0  0.20117319042E+02 -0.26648548632E+02 -0.57704466891E+01  0.33884358111E+02  0.00000000000E+00 0. -1.
</event>
<event>
 7    1  0.5913457E-013  0.5052887E+02  0.7816164E-02  0.1300439E+00
        -11   -1    0    0    0    0  0.00000000000E+00  0.00000000000E+00  0.45593999997E+02  0.45594000000E+02  0.51100000000E-03 0. -1.
         11   -1    0    0    0    0 -0.00000000000E+00 -0.00000000000E+00 -0.45593999997E+02  0.45594000000E+02  0.51100000000E-03 0.  1.
    9900012    2    1    2    0    0  0.37620149639E+01 -0.24031841292E+01  0.40413321619E+02  0.50528872921E+02  0.30000039730E+02 0.  0.
        -12    1    1    2    0    0 -0.37620149639E+01  0.24031841292E+01 -0.40413321619E+02  0.40659127079E+02  0.00000000000E+00 0.  1.
         11    1    3    3    0    0  0.80364309073E+01 -0.60003137943E+01  0.17252322294E+02  0.19955716277E+02  0.51100000000E-03 0. -1.
        -11    1    3    3    0    0  0.27219894233E+01  0.38201245190E+01 -0.15104530826E+01  0.49278845905E+01  0.51100000000E-03 0.  1.
         12    1    3    3    0    0 -0.69964053667E+01 -0.22299485386E+00  0.24671452408E+02  0.25645272053E+02  0.00000000000E+00 0. -1.
</event>
<event>
 7    1  0.5913457E-013  0.5052884E+02  0.7816164E-02  0.1300439E+00
        -11   -1    0    0    0    0  0.00000000000E+00  0.00000000000E+00  0.45593999997E+02  0.45594000000E+02  0.51100000000E-03 0.  1.
         11   -1    0    0    0    0 -0.00000000000E+00 -0.00000000000E+00 -0.45593999997E+02  0.45594000000E+02  0.51100000000E-03 0. -1.
    9900012    2    1    2    0    0 -0.14110558087E+02  0.21106018101E+02 -0.31758392873E+02  0.50528839071E+02  0.29999936840E+02 0.  0.
        -12    1    1    2    0    0  0.14110558087E+02 -0.21106018101E+02  0.31758392873E+02  0.40659160929E+02  0.00000000000E+00 0.  1.
         11    1    3    3    0    0 -0.26153503739E+01  0.12054412302E+02 -0.17220262382E+02  0.21182217786E+02  0.51100000000E-03 0. -1.
        -11    1    3    3    0    0 -0.72427425762E+01  0.10546322971E+02 -0.19063991387E+02  0.22959050854E+02  0.51100000000E-03 0.  1.
        -12    1    3    3    0    0 -0.42524651366E+01 -0.14947171725E+01  0.45258608968E+01  0.63875704317E+01  0.00000000000E+00 0.  1.
</event>
<event>
 7    1  0.5913457E-013  0.5052889E+02  0.7816164E-02  0.1300439E+00
        -11   -1    0    0    0    0  0.00000000000E+00  0.00000000000E+00  0.45593999997E+02  0.45594000000E+02  0.51100000000E-03 0. -1.
         11   -1    0    0    0    0 -0.00000000000E+00 -0.00000000000E+00 -0.45593999997E+02  0.45594000000E+02  0.51100000000E-03 0.  1.
    9900012    2    1    2    0    0 -0.32763326329E+01  0.36822431806E+02  0.16927423367E+02  0.50528886612E+02  0.30000081347E+02 0.  0.
        -12    1    1    2    0    0  0.32763326329E+01 -0.36822431806E+02 -0.16927423367E+02  0.40659113388E+02  0.00000000000E+00 0.  1.
         11    1    3    3    0    0 -0.48291354823E+01  0.97993849503E+01  0.49183239816E+01  0.11980751477E+02  0.51100000000E-03 0. -1.
        -11    1    3    3    0    0 -0.98057789462E+01  0.22184945183E+02  0.72386576263E+01  0.25312511886E+02  0.51100000000E-03 0.  1.
        -12    1    3    3    0    0  0.11358581796E+02  0.48381016729E+01  0.47704417588E+01  0.13235623249E+02  0.00000000000E+00 0.  1.
</event>
<event>
 7    1  0.5913457E-013  0.5052886E+02  0.7816164E-02  0.1300439E+00
        -11   -1    0    0    0    0  0.00000000000E+00  0.00000000000E+00  0.45593999997E+02  0.45594000000E+02  0.51100000000E-03 0. -1.
         11   -1    0    0    0    0 -0.00000000000E+00 -0.00000000000E+00 -0.45593999997E+02  0.45594000000E+02  0.51100000000E-03 0.  1.
    9900012    2    1    2    0    0 -0.17884272291E+01 -0.38524141315E+02  0.12878562557E+02  0.50528864378E+02  0.30000013763E+02 0.  0.
        -12    1    1    2    0    0  0.17884272291E+01  0.38524141315E+02 -0.12878562557E+02  0.40659135622E+02  0.00000000000E+00 0.  1.
         11    1    3    3    0    0  0.11523397834E+01 -0.20919053394E+02  0.38186203338E+01  0.21295927859E+02  0.51100000000E-03 0. -1.
        -11    1    3    3    0    0 -0.27183629819E+00 -0.20913978708E+02  0.11953456005E+02  0.24090527414E+02  0.51100000000E-03 0.  1.
        -12    1    3    3    0    0 -0.26689307143E+01  0.33088907867E+01 -0.28935137815E+01  0.51424091047E+01  0.00000000000E+00 0.  1.
</event>
<event>
 7    1  0.5913457E-013  0.5052885E+02  0.7816164E-02  0.1300439E+00
        -11   -1    0    0    0    0  0.00000000000E+00  0.00000000000E+00  0.45593999997E+02  0.45594000000E+02  0.51100000000E-03 0. -1.
         11   -1    0    0    0    0 -0.00000000000E+00 -0.00000000000E+00 -0.45593999997E+02  0.45594000000E+02  0.51100000000E-03 0.  1.
    9900012    2    1    2    0    0  0.37791240638E+00  0.40052617020E+02  0.69865513999E+01  0.50528845454E+02  0.29999956243E+02 0.  0.
        -12    1    1    2    0    0 -0.37791240638E+00 -0.40052617020E+02 -0.69865513999E+01  0.40659154546E+02  0.00000000000E+00 0.  1.
         11    1    3    3    0    0  0.16408252814E+00  0.28417835303E+02  0.15235173709E+02  0.32244546897E+02  0.51100000000E-03 0. -1.
        -11    1    3    3    0    0  0.35260785410E+01  0.91012415423E+01 -0.85761496278E+00  0.97980269021E+01  0.51100000000E-03 0.  1.
        -12    1    3    3    0    0 -0.33122486628E+01  0.25335401744E+01 -0.73910073461E+01  0.84862716554E+01  0.00000000000E+00 0.  1.
</event>
<event>
 7    1  0.5913457E-013  0.5052886E+02  0.7816164E-02  0.1300439E+00
        -11   -1    0    0    0    0  0.00000000000E+00  0.00000000000E+00  0.45593999997E+02  0.45594000000E+02  0.51100000000E-03 0.  1.
         11   -1    0    0    0    0 -0.00000000000E+00 -0.00000000000E+00 -0.45593999997E+02  0.45594000000E+02  0.51100000000E-03 0. -1.
    9900012    2    1    2    0    0  0.23806535611E+02 -0.25990497949E+02 -0.20270870557E+02  0.50528864316E+02  0.30000013576E+02 0.  0.
        -12    1    1    2    0    0 -0.23806535611E+02  0.25990497949E+02  0.20270870557E+02  0.40659135684E+02  0.00000000000E+00 0.  1.
         11    1    3    3    0    0  0.18237335600E+02 -0.12131129904E+02 -0.63104971741E+01  0.22794453215E+02  0.51100000000E-03 0. -1.
        -11    1    3    3    0    0 -0.45186056991E+01 -0.12474771572E+02 -0.50257344754E+01  0.14187872656E+02  0.51100000000E-03 0.  1.
         12    1    3    3    0    0  0.10087805709E+02 -0.13845964734E+01 -0.89346389074E+01  0.13546538445E+02  0.00000000000E+00 0. -1.
</event>
<event>
 7    1  0.5913457E-013  0.5052887E+02  0.7816164E-02  0.1300439E+00
        -11   -1    0    0    0    0  0.00000000000E+00  0.00000000000E+00  0.45593999997E+02  0.45594000000E+02  0.51100000000E-03 0.  1.
         11   -1    0    0    0    0 -0.00000000000E+00 -0.00000000000E+00 -0.45593999997E+02  0.45594000000E+02  0.51100000000E-03 0. -1.
    9900012    2    1    2    0    0 -0.20307175809E+02  0.30351868254E+02 -0.17875902579E+02  0.50528865862E+02  0.30000018274E+02 0.  0.
        -12    1    1    2    0    0  0.20307175809E+02 -0.30351868254E+02  0.17875902579E+02  0.40659134138E+02  0.00000000000E+00 0.  1.
         11    1    3    3    0    0 -0.99539459866E+01  0.13233424093E+02 -0.38611839553E+00  0.16563624048E+02  0.51100000000E-03 0. -1.
        -11    1    3    3    0    0 -0.16310362758E+02  0.98126177230E+01 -0.81849387767E+01  0.20719764065E+02  0.51100000000E-03 0.  1.
        -12    1    3    3    0    0  0.59571329355E+01  0.73058264381E+01 -0.93048454064E+01  0.13245477749E+02  0.00000000000E+00 0.  1.
</event>
<event>
 7    1  0.5913457E-013  0.5052886E+02  0.7816164E-02  0.1300439E+00
        -11   -1    0    0    0    0  0.00000000000E+00  0.00000000000E+00  0.45593999997E+02  0.45594000000E+02  0.51100000000E-03 0.  1.
         11   -1    0    0    0    0 -0.00000000000E+00 -0.00000000000E+00 -0.45593999997E+02  0.45594000000E+02  0.51100000000E-03 0. -1.
    9900012    2    1    2    0    0  0.82846347824E+01  0.94383473791E+01 -0.38671023245E+02  0.50528860639E+02  0.30000002399E+02 0.  0.
        -12    1    1    2    0    0 -0.82846347824E+01 -0.94383473791E+01  0.38671023245E+02  0.40659139361E+02  0.00000000000E+00 0.  1.
         11    1    3    3    0    0  0.11230558010E+02  0.89066328849E+01 -0.27199734085E+02  0.30745391153E+02  0.51100000000E-03 0. -1.
        -11    1    3    3    0    0  0.57445204814E+01 -0.13246703062E+01 -0.86346395872E+01  0.10455202917E+02  0.51100000000E-03 0.  1.
        -12    1    3    3    0    0 -0.86904437089E+01  0.18563848003E+01 -0.28366495730E+01  0.93282665691E+01  0.00000000000E+00 0.  1.
</event>
<event>
 7    1  0.5913457E-013  0.5052885E+02  0.7816164E-02  0.1300439E+00
        -11   -1    0    0    0    0  0.00000000000E+00  0.00000000000E+00  0.45593999997E+02  0.45594000000E+02  0.51100000000E-03 0.  1.
         11   -1    0    0    0    0 -0.00000000000E+00 -0.00000000000E+00 -0.45593999997E+02  0.45594000000E+02  0.51100000000E-03 0. -1.
    9900012    2    1    2    0    0 -0.10284253239E+02  0.43561916573E+01 -0.39095069343E+02  0.50528847066E+02  0.29999961140E+02 0.  0.
        -12    1    1    2    0    0  0.10284253239E+02 -0.43561916573E+01  0.39095069343E+02  0.40659152934E+02  0.00000000000E+00 0.  1.
         11    1    3    3    0    0  0.71236487138E+00  0.51078806644E+01 -0.16586514052E+02  0.17369811664E+02  0.51100000000E-03 0. -1.
        -11    1    3    3    0    0 -0.29421267725E+01  0.32730337914E+01  0.35082419472E+01  0.56281988207E+01  0.51100000000E-03 0.  1.
         12    1    3    3    0    0 -0.80544913379E+01 -0.40247227984E+01 -0.26016797238E+02  0.27530836581E+02  0.00000000000E+00 0. -1.
</event>
<event>
 7    1  0.5913457E-013  0.5052885E+02  0.7816164E-02  0.1300439E+00
        -11   -1    0    0    0    0  0.00000000000E+00  0.00000000000E+00  0.45593999997E+02  0.45594000000E+02  0.51100000000E-03 0.  1.
         11   -1    0    0    0    0 -0.00000000000E+00 -0.00000000000E+00 -0.45593999997E+02  0.45594000000E+02  0.51100000000E-03 0. -1.
    9900012    2    1    2    0    0  0.20439334526E+00  0.23053915887E+02 -0.33490913636E+02  0.50528854528E+02  0.29999983823E+02 0.  0.
        -12    1    1    2    0    0 -0.20439334526E+00 -0.23053915887E+02  0.33490913636E+02  0.40659145472E+02  0.00000000000E+00 0.  1.
         11    1    3    3    0    0 -0.36848942844E+01  0.11950484501E+02 -0.10767643566E+02  0.16502565677E+02  0.51100000000E-03 0. -1.
        -11    1    3    3    0    0 -0.78281331062E+01  0.57415056026E+01 -0.17716240281E+02  0.20201725780E+02  0.51100000000E-03 0.  1.
        -12    1    3    3    0    0  0.11717420736E+02  0.53619257831E+01 -0.50070297881E+01  0.13824563071E+02  0.00000000000E+00 0.  1.
</event>
<event>
 7    1  0.5913457E-013  0.5052886E+02  0.7816164E-02  0.1300439E+00
        -11   -1    0    0    0    0  0.00000000000E+00  0.00000000000E+00  0.45593999997E+02  0.45594000000E+02  0.51100000000E-03 0. -1.
         11   -1    0    0    0    0 -0.00000000000E+00 -0.00000000000E+00 -0.45593999997E+02  0.45594000000E+02  0.51100000000E-03 0.  1.
    9900012    2    1    2    0    0 -0.40121877242E+02  0.52967835551E+01  0.39172688603E+01  0.50528856566E+02  0.29999990018E+02 0.  0.
        -12    1    1    2    0    0  0.40121877242E+02 -0.52967835551E+01 -0.39172688603E+01  0.40659143434E+02  0.00000000000E+00 0.  1.
         11    1    3    3    0    0 -0.39148885410E+02  0.98559925278E+01 -0.14281548990E-01  0.40370484538E+02  0.51100000000E-03 0. -1.
        -11    1    3    3    0    0 -0.11811577852E+01  0.22569396602E+01  0.10852497607E+01  0.27688766038E+01  0.51100000000E-03 0.  1.
         12    1    3    3    0    0  0.20816595329E+00 -0.68161486329E+01  0.28463006486E+01  0.73894954247E+01  0.00000000000E+00 0. -1.
</event>
<event>
 7    1  0.5913457E-013  0.5052886E+02  0.7816164E-02  0.1300439E+00
        -11   -1    0    0    0    0  0.00000000000E+00  0.00000000000E+00  0.45593999997E+02  0.45594000000E+02  0.51100000000E-03 0.  1.
         11   -1    0    0    0    0 -0.00000000000E+00 -0.00000000000E+00 -0.45593999997E+02  0.45594000000E+02  0.51100000000E-03 0. -1.
    9900012    2    1    2    0    0 -0.30027067075E+02 -0.26952254071E+02 -0.50116934745E+01  0.50528858001E+02  0.29999994380E+02 0.  0.
        -12    1    1    2    0    0  0.30027067075E+02  0.26952254071E+02  0.50116934745E+01  0.40659141999E+02  0.00000000000E+00 0.  1.
         11    1    3    3    0    0 -0.15851639114E+02 -0.15248097960E+02 -0.97098814568E+01  0.24042894005E+02  0.51100000000E-03 0. -1.
        -11    1    3    3    0    0 -0.52935374452E-02  0.40210095443E+01 -0.17099660079E+01  0.43694999470E+01  0.51100000000E-03 0.  1.
        -12    1    3    3    0    0 -0.14170134423E+02 -0.15725165655E+02  0.64081539902E+01  0.22116464049E+02  0.00000000000E+00 0.  1.
</event>
<event>
 7    1  0.5913457E-013  0.5052885E+02  0.7816164E-02  0.1300439E+00
        -11   -1    0    0    0    0  0.00000000000E+00  0.00000000000E+00  0.45593999997E+02  0.45594000000E+02  0.51100000000E-03 0.  1.
         11   -1    0    0    0    0 -0.00000000000E+00 -0.00000000000E+00 -0.45593999997E+02  0.45594000000E+02  0.51100000000E-03 0. -1.
    9900012    2    1    2    0    0  0.11728674422E+02 -0.12344807242E+02 -0.36921675637E+02  0.50528853411E+02  0.29999980427E+02 0.  0.
        -12    1    1    2    0    0 -0.11728674422E+02  0.12344807242E+02  0.36921675637E+02  0.40659146589E+02  0.00000000000E+00 0.  1.
         11    1    3    3    0    0  0.15659504143E+02 -0.92214546621E+01 -0.27354998766E+02  0.32841304083E+02  0.51100000000E-03 0. -1.
        -11    1    3    3    0    0  0.29427050177E+01  0.47312979152E+00  0.21220669721E+01  0.36587611450E+01  0.51100000000E-03 0.  1.
         12    1    3    3    0    0 -0.68735347391E+01 -0.35964823715E+01 -0.11688743843E+02  0.14028788183E+02  0.00000000000E+00 0. -1.
</event>
<event>
 7    1  0.5913457E-013  0.5052888E+02  0.7816164E-02  0.1300439E+00
        -11   -1    0    0    0    0  0.00000000000E+00  0.00000000000E+00  0.45593999997E+02  0.45594000000E+02  0.51100000000E-03 0.  1.
         11   -1    0    0    0    0 -0.00000000000E+00 -0.00000000000E+00 -0.45593999997E+02  0.45594000000E+02  0.51100000000E-03 0. -1.
    9900012    2    1    2    0    0  0.35225865481E+02  0.38720170330E+01 -0.19932624509E+02  0.50528884975E+02  0.30000076370E+02 0.  0.
        -12    1    1    2    0    0 -0.35225865481E+02 -0.38720170330E+01  0.19932624509E+02  0.40659115025E+02  0.00000000000E+00 0.  1.
         11    1    3    3    0    0  0.14908844395E+02 -0.20785328883E+01 -0.14245076889E+02  0.20724771555E+02  0.51100000000E-03 0. -1.
        -11    1    3    3    0    0 -0.37390368973E+01  0.15715117063E+01  0.14902272163E+01  0.43209748183E+01  0.51100000000E-03 0.  1.
         12    1    3    3    0    0  0.24056057983E+02  0.43790382150E+01 -0.71777748359E+01  0.25483138601E+02  0.00000000000E+00 0. -1.
</event>
<event>
 7    1  0.5913457E-013  0.5052885E+02  0.7816164E-02  0.1300439E+00
        -11   -1    0    0    0    0  0.00000000000E+00  0.00000000000E+00  0.45593999997E+02  0.45594000000E+02  0.51100000000E-03 0.  1.
         11   -1    0    0    0    0 -0.00000000000E+00 -0.00000000000E+00 -0.45593999997E+02  0.45594000000E+02  0.51100000000E-03 0. -1.
    9900012    2    1    2    0    0 -0.33566581843E+02 -0.21688293691E+02 -0.74879036430E+01  0.50528853417E+02  0.29999980447E+02 0.  0.
        -12    1    1    2    0    0  0.33566581843E+02  0.21688293691E+02  0.74879036430E+01  0.40659146583E+02  0.00000000000E+00 0.  1.
         11    1    3    3    0    0 -0.14761530545E+01 -0.11545147245E+02 -0.39760363722E+01  0.12299525123E+02  0.51100000000E-03 0. -1.
        -11    1    3    3    0    0 -0.22800891758E+02 -0.10569617021E+02  0.49982252087E+01  0.25623811668E+02  0.51100000000E-03 0.  1.
         12    1    3    3    0    0 -0.92895370311E+01  0.42647057530E+00 -0.85100924794E+01  0.12605516626E+02  0.00000000000E+00 0. -1.
</event>
<event>
 7    1  0.5913457E-013  0.5052887E+02  0.7816164E-02  0.1300439E+00
        -11   -1    0    0    0    0  0.00000000000E+00  0.00000000000E+00  0.45593999997E+02  0.45594000000E+02  0.51100000000E-03 0. -1.
         11   -1    0    0    0    0 -0.00000000000E+00 -0.00000000000E+00 -0.45593999997E+02  0.45594000000E+02  0.51100000000E-03 0.  1.
    9900012    2    1    2    0    0 -0.33568523497E+02  0.21331129647E+02  0.84440415348E+01  0.50528871883E+02  0.30000036575E+02 0.  0.
        -12    1    1    2    0    0  0.33568523497E+02 -0.21331129647E+02 -0.84440415348E+01  0.40659128117E+02  0.00000000000E+00 0.  1.
         11    1    3    3    0    0 -0.51434366348E+00 -0.32316615881E+01  0.12508152545E+01  0.35032449366E+01  0.51100000000E-03 0. -1.
        -11    1    3    3    0    0 -0.14003595161E+02 -0.16102686228E+01  0.18906177561E+01  0.14222098236E+02  0.51100000000E-03 0.  1.
         12    1    3    3    0    0 -0.19050584673E+02  0.26173059858E+02  0.53026085241E+01  0.32803528711E+02  0.00000000000E+00 0. -1.
</event>
<event>
 7    1  0.5913457E-013  0.5052885E+02  0.7816164E-02  0.1300439E+00
        -11   -1    0    0    0    0  0.00000000000E+00  0.00000000000E+00  0.45593999997E+02  0.45594000000E+02  0.51100000000E-03 0.  1.
         11   -1    0    0    0    0 -0.00000000000E+00 -0.00000000000E+00 -0.45593999997E+02  0.45594000000E+02  0.51100000000E-03 0. -1.
    9900012    2    1    2    0    0  0.17092348418E+02 -0.17476000115E+02 -0.32490108250E+02  0.50528854798E+02  0.29999984644E+02 0.  0.
        -12    1    1    2    0    0 -0.17092348418E+02  0.17476000115E+02  0.32490108250E+02  0.40659145202E+02  0.00000000000E+00 0.  1.
         11    1    3    3    0    0  0.12042912254E+02 -0.16527283510E+02 -0.29866168547E+02  0.36196282402E+02  0.51100000000E-03 0. -1.
        -11    1    3    3    0    0  0.39062571161E+01  0.49841728472E+01 -0.47622018318E+01  0.79233446332E+01  0.51100000000E-03 0.  1.
        -12    1    3    3    0    0  0.11431790475E+01 -0.59328894522E+01  0.21382621284E+01  0.64092277629E+01  0.00000000000E+00 0.  1.
</event>
<event>
 7    1  0.5913457E-013  0.5052889E+02  0.7816164E-02  0.1300439E+00
        -11   -1    0    0    0    0  0.00000000000E+00  0.00000000000E+00  0.45593999997E+02  0.45594000000E+02  0.51100000000E-03 0.  1.
         11   -1    0    0    0    0 -0.00000000000E+00 -0.00000000000E+00 -0.45593999997E+02  0.45594000000E+02  0.51100000000E-03 0. -1.
    9900012    2    1    2    0    0  0.34265873257E+02  0.21591952386E+02  0.35778569316E+01  0.50528886162E+02  0.30000079977E+02 0.  0.
        -12    1    1    2    0    0 -0.34265873257E+02 -0.21591952386E+02 -0.35778569316E+01  0.40659113838E+02  0.00000000000E+00 0.  1.
         11    1    3    3    0    0  0.11642415674E+02  0.23230823303E+01 -0.20289113275E+01  0.12044045652E+02  0.51100000000E-03 0. -1.
        -11    1    3    3    0    0  0.22074389852E+02  0.20358439568E+02 -0.26431719442E+01  0.30145167228E+02  0.51100000000E-03 0.  1.
        -12    1    3    3    0    0  0.54906773069E+00 -0.10895695120E+01  0.82499402033E+01  0.83396732821E+01  0.00000000000E+00 0.  1.
</event>
<event>
 7    1  0.5913457E-013  0.5052888E+02  0.7816164E-02  0.1300439E+00
        -11   -1    0    0    0    0  0.00000000000E+00  0.00000000000E+00  0.45593999997E+02  0.45594000000E+02  0.51100000000E-03 0. -1.
         11   -1    0    0    0    0 -0.00000000000E+00 -0.00000000000E+00 -0.45593999997E+02  0.45594000000E+02  0.51100000000E-03 0.  1.
    9900012    2    1    2    0    0 -0.17120927411E+02 -0.31694780268E+02  0.18854151918E+02  0.50528876839E+02  0.30000051640E+02 0.  0.
        -12    1    1    2    0    0  0.17120927411E+02  0.31694780268E+02 -0.18854151918E+02  0.40659123161E+02  0.00000000000E+00 0.  1.
         11    1    3    3    0    0 -0.12126078801E+02 -0.64219704937E+01  0.25673829112E+01  0.13959761723E+02  0.51100000000E-03 0. -1.
        -11    1    3    3    0    0 -0.46455121967E+01 -0.32963547368E+01 -0.37563849923E+01  0.68232812189E+01  0.51100000000E-03 0.  1.
         12    1    3    3    0    0 -0.34933641341E+00 -0.21976455038E+02  0.20043153999E+02  0.29745833897E+02  0.00000000000E+00 0. -1.
</event>
<event>
 7    1  0.5913457E-013  0.5052887E+02  0.7816164E-02  0.1300439E+00
        -11   -1    0    0    0    0  0.00000000000E+00  0.00000000000E+00  0.45593999997E+02  0.45594000000E+02  0.51100000000E-03 0.  1.
         11   -1    0    0    0    0 -0.00000000000E+00 -0.00000000000E+00 -0.45593999997E+02  0.45594000000E+02  0.51100000000E-03 0. -1.
    9900012    2    1    2    0    0 -0.23190170183E+02 -0.32371713519E+01 -0.33240062961E+02  0.50528867482E+02  0.30000023198E+02 0.  0.
        -12    1    1    2    0    0  0.23190170183E+02  0.32371713519E+01  0.33240062961E+02  0.40659132518E+02  0.00000000000E+00 0.  1.
         11    1    3    3    0    0  0.21856187031E+01 -0.13244320959E+01 -0.29647416599E+01  0.39141720533E+01  0.51100000000E-03 0. -1.
        -11    1    3    3    0    0  0.31909845962E+01 -0.33019871539E+01  0.47904937291E+00  0.46168160480E+01  0.51100000000E-03 0.  1.
         12    1    3    3    0    0 -0.28566773482E+02  0.13892478979E+01 -0.30754370674E+02  0.41997879381E+02  0.00000000000E+00 0. -1.
</event>
<event>
 7    1  0.5913457E-013  0.5052885E+02  0.7816164E-02  0.1300439E+00
        -11   -1    0    0    0    0  0.00000000000E+00  0.00000000000E+00  0.45593999997E+02  0.45594000000E+02  0.51100000000E-03 0.  1.
         11   -1    0    0    0    0 -0.00000000000E+00 -0.00000000000E+00 -0.45593999997E+02  0.45594000000E+02  0.51100000000E-03 0. -1.
    9900012    2    1    2    0    0  0.33160784651E+01 -0.40046282743E+02 -0.62020154930E+01  0.50528854238E+02  0.29999982941E+02 0.  0.
        -12    1    1    2    0    0 -0.33160784651E+01  0.40046282743E+02  0.62020154930E+01  0.40659145762E+02  0.00000000000E+00 0.  1.
         11    1    3    3    0    0  0.49653977055E+01 -0.21400900798E+02  0.38334476788E+00  0.21972725885E+02  0.51100000000E-03 0. -1.
        -11    1    3    3    0    0  0.24740524909E+01 -0.11013395832E+02 -0.13402995414E+02  0.17523016573E+02  0.51100000000E-03 0.  1.
         12    1    3    3    0    0 -0.41233717313E+01 -0.76319861133E+01  0.68176351532E+01  0.11033111780E+02  0.00000000000E+00 0. -1.
</event>
<event>
 7    1  0.5913457E-013  0.5052887E+02  0.7816164E-02  0.1300439E+00
        -11   -1    0    0    0    0  0.00000000000E+00  0.00000000000E+00  0.45593999997E+02  0.45594000000E+02  0.51100000000E-03 0. -1.
         11   -1    0    0    0    0 -0.00000000000E+00 -0.00000000000E+00 -0.45593999997E+02  0.45594000000E+02  0.51100000000E-03 0.  1.
    9900012    2    1    2    0    0  0.28438619158E+00 -0.32642123837E+02 -0.24239955871E+02  0.50528873291E+02  0.30000040856E+02 0.  0.
        -12    1    1    2    0    0 -0.28438619158E+00  0.32642123837E+02  0.24239955871E+02  0.40659126709E+02  0.00000000000E+00 0.  1.
         11    1    3    3    0    0 -0.35576683392E+00  0.23462607208E+01 -0.25107308557E+01  0.34547473281E+01  0.51100000000E-03 0. -1.
        -11    1    3    3    0    0  0.51928226839E+01  0.10617152273E+01 -0.40178520671E+01  0.66509985826E+01  0.51100000000E-03 0.  1.
         12    1    3    3    0    0 -0.45526696584E+01 -0.36050099785E+02 -0.17711372948E+02  0.40423127381E+02  0.00000000000E+00 0. -1.
</event>
<event>
 7    1  0.5913457E-013  0.5052886E+02  0.7816164E-02  0.1300439E+00
        -11   -1    0    0    0    0  0.00000000000E+00  0.00000000000E+00  0.45593999997E+02  0.45594000000E+02  0.51100000000E-03 0. -1.
         11   -1    0    0    0    0 -0.00000000000E+00 -0.00000000000E+00 -0.45593999997E+02  0.45594000000E+02  0.51100000000E-03 0.  1.
    9900012    2    1    2    0    0 -0.97586096486E+01  0.39443366519E+02 -0.14684385020E+01  0.50528856671E+02  0.29999990337E+02 0.  0.
        -12    1    1    2    0    0  0.97586096486E+01 -0.39443366519E+02  0.14684385020E+01  0.40659143329E+02  0.00000000000E+00 0.  1.
         11    1    3    3    0    0 -0.34941999567E+01  0.16450015317E+02 -0.19512185181E+01  0.16929846167E+02  0.51100000000E-03 0. -1.
        -11    1    3    3    0    0 -0.86494663564E+01  0.27295365156E+02  0.10175514457E+01  0.28651101872E+02  0.51100000000E-03 0.  1.
        -12    1    3    3    0    0  0.23850566646E+01 -0.43020139540E+01 -0.53477142958E+00  0.49479086325E+01  0.00000000000E+00 0.  1.
</event>
<event>
 7    1  0.5913457E-013  0.5052886E+02  0.7816164E-02  0.1300439E+00
        -11   -1    0    0    0    0  0.00000000000E+00  0.00000000000E+00  0.45593999997E+02  0.45594000000E+02  0.51100000000E-03 0.  1.
         11   -1    0    0    0    0 -0.00000000000E+00 -0.00000000000E+00 -0.45593999997E+02  0.45594000000E+02  0.51100000000E-03 0. -1.
    9900012    2    1    2    0    0 -0.59055744303E+01 -0.94690262998E+01 -0.39097666347E+02  0.50528858565E+02  0.29999996095E+02 0.  0.
        -12    1    1    2    0    0  0.59055744303E+01  0.94690262998E+01  0.39097666347E+02  0.40659141435E+02  0.00000000000E+00 0.  1.
         11    1    3    3    0    0 -0.90714858832E+01 -0.73499418883E+01 -0.18155474949E+02  0.21585522295E+02  0.51100000000E-03 0. -1.
        -11    1    3    3    0    0 -0.13039284404E+01  0.70450870310E+01 -0.16168853848E+02  0.17685172198E+02  0.51100000000E-03 0.  1.
         12    1    3    3    0    0  0.44698398933E+01 -0.91641714425E+01 -0.47733375506E+01  0.11258164072E+02  0.00000000000E+00 0. -1.
</event>
<event>
 7    1  0.5913457E-013  0.5052886E+02  0.7816164E-02  0.1300439E+00
        -11   -1    0    0    0    0  0.00000000000E+00  0.00000000000E+00  0.45593999997E+02  0.45594000000E+02  0.51100000000E-03 0.  1.
         11   -1    0    0    0    0 -0.00000000000E+00 -0.00000000000E+00 -0.45593999997E+02  0.45594000000E+02  0.51100000000E-03 0. -1.
    9900012    2    1    2    0    0 -0.16902652687E+02 -0.13750206735E+02 -0.34327796110E+02  0.50528862787E+02  0.30000008927E+02 0.  0.
        -12    1    1    2    0    0  0.16902652687E+02  0.13750206735E+02  0.34327796110E+02  0.40659137213E+02  0.00000000000E+00 0.  1.
         11    1    3    3    0    0 -0.52122223262E+01 -0.14518961997E+02 -0.15811618984E+02  0.22090151973E+02  0.51100000000E-03 0. -1.
        -11    1    3    3    0    0 -0.20243685381E+01 -0.56286082581E+01  0.67404844772E+00  0.60194385513E+01  0.51100000000E-03 0.  1.
        -12    1    3    3    0    0 -0.96660618231E+01  0.63973635200E+01 -0.19190225574E+02  0.22419272262E+02  0.00000000000E+00 0.  1.
</event>
<event>
 7    1  0.5913457E-013  0.5052887E+02  0.7816164E-02  0.1300439E+00
        -11   -1    0    0    0    0  0.00000000000E+00  0.00000000000E+00  0.45593999997E+02  0.45594000000E+02  0.51100000000E-03 0. -1.
         11   -1    0    0    0    0 -0.00000000000E+00 -0.00000000000E+00 -0.45593999997E+02  0.45594000000E+02  0.51100000000E-03 0.  1.
    9900012    2    1    2    0    0  0.35922123091E+01  0.31473411818E+02  0.25488928588E+02  0.50528866693E+02  0.30000020799E+02 0.  0.
        -12    1    1    2    0    0 -0.35922123091E+01 -0.31473411818E+02 -0.25488928588E+02  0.40659133307E+02  0.00000000000E+00 0.  1.
         11    1    3    3    0    0  0.10130950179E+02  0.16127620998E+02  0.76413816536E+01  0.20521379691E+02  0.51100000000E-03 0. -1.
        -11    1    3    3    0    0 -0.59486727938E+01  0.56750472171E+01 -0.15115186201E+01  0.83592797371E+01  0.51100000000E-03 0.  1.
         12    1    3    3    0    0 -0.59006507639E+00  0.96707436030E+01  0.19359065554E+02  0.21648207264E+02  0.00000000000E+00 0. -1.
</event>
<event>
 7    1  0.5913457E-013  0.5052886E+02  0.7816164E-02  0.1300439E+00
        -11   -1    0    0    0    0  0.00000000000E+00  0.00000000000E+00  0.45593999997E+02  0.45594000000E+02  0.51100000000E-03 0. -1.
         11   -1    0    0    0    0 -0.00000000000E+00 -0.00000000000E+00 -0.45593999997E+02  0.45594000000E+02  0.51100000000E-03 0.  1.
    9900012    2    1    2    0    0 -0.96458466806E+01  0.17736769446E+02  0.35292071183E+02  0.50528860352E+02  0.30000001525E+02 0.  0.
        -12    1    1    2    0    0  0.96458466806E+01 -0.17736769446E+02 -0.35292071183E+02  0.40659139648E+02  0.00000000000E+00 0.  1.
         11    1    3    3    0    0  0.20155979197E+01  0.12556564055E+02  0.13766112035E+02  0.18741285352E+02  0.51100000000E-03 0. -1.
        -11    1    3    3    0    0  0.51498705570E+01  0.33831438121E+01  0.82170791868E+01  0.10270697125E+02  0.51100000000E-03 0.  1.
         12    1    3    3    0    0 -0.16811315157E+02  0.17970615787E+01  0.13308879962E+02  0.21516877874E+02  0.00000000000E+00 0. -1.
</event>
<event>
 7    1  0.5913457E-013  0.5052886E+02  0.7816164E-02  0.1300439E+00
        -11   -1    0    0    0    0  0.00000000000E+00  0.00000000000E+00  0.45593999997E+02  0.45594000000E+02  0.51100000000E-03 0.  1.
         11   -1    0    0    0    0 -0.00000000000E+00 -0.00000000000E+00 -0.45593999997E+02  0.45594000000E+02  0.51100000000E-03 0. -1.
    9900012    2    1    2    0    0 -0.19793939510E+02 -0.94642647390E+01 -0.34231469440E+02  0.50528857751E+02  0.29999993620E+02 0.  0.
        -12    1    1    2    0    0  0.19793939510E+02  0.94642647390E+01  0.34231469440E+02  0.40659142249E+02  0.00000000000E+00 0.  1.
         11    1    3    3    0    0 -0.22976780834E+02 -0.42402529619E+01 -0.18874751041E+02  0.30036118754E+02  0.51100000000E-03 0. -1.
        -11    1    3    3    0    0  0.18054363778E+01  0.27668985308E+01 -0.20807031217E+00  0.33103808708E+01  0.51100000000E-03 0.  1.
        -12    1    3    3    0    0  0.13774049455E+01 -0.79909103079E+01 -0.15148648087E+02  0.17182358126E+02  0.00000000000E+00 0.  1.
</event>
<event>
 7    1  0.5913457E-013  0.5052886E+02  0.7816164E-02  0.1300439E+00
        -11   -1    0    0    0    0  0.00000000000E+00  0.00000000000E+00  0.45593999997E+02  0.45594000000E+02  0.51100000000E-03 0. -1.
         11   -1    0    0    0    0 -0.00000000000E+00 -0.00000000000E+00 -0.45593999997E+02  0.45594000000E+02  0.51100000000E-03 0.  1.
    9900012    2    1    2    0    0 -0.66512176840E+01  0.40074462846E+01  0.39910742794E+02  0.50528859419E+02  0.29999998691E+02 0.  0.
        -12    1    1    2    0    0  0.66512176840E+01 -0.40074462846E+01 -0.39910742794E+02  0.40659140581E+02  0.00000000000E+00 0.  1.
         11    1    3    3    0    0  0.45745270029E+01 -0.19165758604E+01  0.62861308273E+01  0.80071843596E+01  0.51100000000E-03 0. -1.
        -11    1    3    3    0    0  0.10835372549E+01  0.10455658986E+01 -0.31199377587E+01  0.34642853390E+01  0.51100000000E-03 0.  1.
         12    1    3    3    0    0 -0.12309281942E+02  0.48784562464E+01  0.36744549725E+02  0.39057389721E+02  0.00000000000E+00 0. -1.
</event>
<event>
 7    1  0.5913457E-013  0.5052886E+02  0.7816164E-02  0.1300439E+00
        -11   -1    0    0    0    0  0.00000000000E+00  0.00000000000E+00  0.45593999997E+02  0.45594000000E+02  0.51100000000E-03 0. -1.
         11   -1    0    0    0    0 -0.00000000000E+00 -0.00000000000E+00 -0.45593999997E+02  0.45594000000E+02  0.51100000000E-03 0.  1.
    9900012    2    1    2    0    0 -0.20270340650E+01  0.11149597057E+02  0.39047958474E+02  0.50528862741E+02  0.30000008787E+02 0.  0.
        -12    1    1    2    0    0  0.20270340650E+01 -0.11149597057E+02 -0.39047958474E+02  0.40659137259E+02  0.00000000000E+00 0.  1.
         11    1    3    3    0    0 -0.45509815999E+01 -0.60710466679E+01  0.63454184263E+01  0.98910755953E+01  0.51100000000E-03 0. -1.
        -11    1    3    3    0    0 -0.37938418656E+00  0.21985020439E+01 -0.18183873575E+01  0.28781724134E+01  0.51100000000E-03 0.  1.
         12    1    3    3    0    0  0.29033317214E+01  0.15022141681E+02  0.34520927406E+02  0.37759614732E+02  0.00000000000E+00 0. -1.
</event>
<event>
 7    1  0.5913457E-013  0.5052886E+02  0.7816164E-02  0.1300439E+00
        -11   -1    0    0    0    0  0.00000000000E+00  0.00000000000E+00  0.45593999997E+02  0.45594000000E+02  0.51100000000E-03 0. -1.
         11   -1    0    0    0    0 -0.00000000000E+00 -0.00000000000E+00 -0.45593999997E+02  0.45594000000E+02  0.51100000000E-03 0.  1.
    9900012    2    1    2    0    0  0.70418129653E+00  0.35608591834E+02 -0.19613723289E+02  0.50528858040E+02  0.29999994498E+02 0.  0.
        -12    1    1    2    0    0 -0.70418129653E+00 -0.35608591834E+02  0.19613723289E+02  0.40659141960E+02  0.00000000000E+00 0.  1.
         11    1    3    3    0    0 -0.17892641577E+01  0.17457902767E+02 -0.79558715103E+01  0.19268516471E+02  0.51100000000E-03 0. -1.
        -11    1    3    3    0    0  0.41529524363E+01  0.18182383831E+02 -0.17263538072E+02  0.25414087486E+02  0.51100000000E-03 0.  1.
        -12    1    3    3    0    0 -0.16595069821E+01 -0.31694764848E-01  0.56056862932E+01  0.58462540827E+01  0.00000000000E+00 0.  1.
</event>
<event>
 7    1  0.5913457E-013  0.5052885E+02  0.7816164E-02  0.1300439E+00
        -11   -1    0    0    0    0  0.00000000000E+00  0.00000000000E+00  0.45593999997E+02  0.45594000000E+02  0.51100000000E-03 0.  1.
         11   -1    0    0    0    0 -0.00000000000E+00 -0.00000000000E+00 -0.45593999997E+02  0.45594000000E+02  0.51100000000E-03 0. -1.
    9900012    2    1    2    0    0  0.11803970712E+02 -0.20746058497E+00 -0.38907450147E+02  0.50528850458E+02  0.29999971453E+02 0.  0.
        -12    1    1    2    0    0 -0.11803970712E+02  0.20746058497E+00  0.38907450147E+02  0.40659149542E+02  0.00000000000E+00 0.  1.
         11    1    3    3    0    0  0.53340908868E+01  0.22335095372E+01  0.11858477286E+01  0.59031623337E+01  0.51100000000E-03 0. -1.
        -11    1    3    3    0    0 -0.28706060083E+01 -0.53476272671E+00  0.46970549402E+00  0.29575282823E+01  0.51100000000E-03 0.  1.
         12    1    3    3    0    0  0.93404858337E+01 -0.19062073954E+01 -0.40563003370E+02  0.41668159842E+02  0.00000000000E+00 0. -1.
</event>
<event>
 7    1  0.5913457E-013  0.5052886E+02  0.7816164E-02  0.1300439E+00
        -11   -1    0    0    0    0  0.00000000000E+00  0.00000000000E+00  0.45593999997E+02  0.45594000000E+02  0.51100000000E-03 0.  1.
         11   -1    0    0    0    0 -0.00000000000E+00 -0.00000000000E+00 -0.45593999997E+02  0.45594000000E+02  0.51100000000E-03 0. -1.
    9900012    2    1    2    0    0 -0.40330760077E+01 -0.39172324852E+02 -0.10120717465E+02  0.50528860088E+02  0.30000000723E+02 0.  0.
        -12    1    1    2    0    0  0.40330760077E+01  0.39172324852E+02  0.10120717465E+02  0.40659139912E+02  0.00000000000E+00 0.  1.
         11    1    3    3    0    0 -0.38766036448E+01 -0.11322882709E+02 -0.81887729048E+01  0.14501438915E+02  0.51100000000E-03 0. -1.
        -11    1    3    3    0    0  0.60686958745E+01  0.21421677529E+00 -0.38956066049E+01  0.72146177670E+01  0.51100000000E-03 0.  1.
        -12    1    3    3    0    0 -0.62251682374E+01 -0.28063658919E+02  0.19636620441E+01  0.28812803406E+02  0.00000000000E+00 0.  1.
</event>
<event>
 7    1  0.5913457E-013  0.5052886E+02  0.7816164E-02  0.1300439E+00
        -11   -1    0    0    0    0  0.00000000000E+00  0.00000000000E+00  0.45593999997E+02  0.45594000000E+02  0.51100000000E-03 0.  1.
         11   -1    0    0    0    0 -0.00000000000E+00 -0.00000000000E+00 -0.45593999997E+02  0.45594000000E+02  0.51100000000E-03 0. -1.
    9900012    2    1    2    0    0 -0.80100212951E+01 -0.37841404887E+02 -0.12531288700E+02  0.50528861280E+02  0.30000004346E+02 0.  0.
        -12    1    1    2    0    0  0.80100212951E+01  0.37841404887E+02  0.12531288700E+02  0.40659138720E+02  0.00000000000E+00 0.  1.
         11    1    3    3    0    0 -0.16511273018E+02 -0.23740517341E+02 -0.71859654801E+01  0.29797187794E+02  0.51100000000E-03 0. -1.
        -11    1    3    3    0    0 -0.18851470952E+01 -0.28466300204E+01 -0.41450558306E+01  0.53701555046E+01  0.51100000000E-03 0.  1.
        -12    1    3    3    0    0  0.10386398819E+02 -0.11254257526E+02 -0.12002673890E+01  0.15361517981E+02  0.00000000000E+00 0.  1.
</event>
<event>
 7    1  0.5913457E-013  0.5052887E+02  0.7816164E-02  0.1300439E+00
        -11   -1    0    0    0    0  0.00000000000E+00  0.00000000000E+00  0.45593999997E+02  0.45594000000E+02  0.51100000000E-03 0.  1.
         11   -1    0    0    0    0 -0.00000000000E+00 -0.00000000000E+00 -0.45593999997E+02  0.45594000000E+02  0.51100000000E-03 0. -1.
    9900012    2    1    2    0    0 -0.16547773121E+02  0.59302119604E+01 -0.36662910777E+02  0.50528865285E+02  0.30000016519E+02 0.  0.
        -12    1    1    2    0    0  0.16547773121E+02 -0.59302119604E+01  0.36662910777E+02  0.40659134715E+02  0.00000000000E+00 0.  1.
         11    1    3    3    0    0  0.22461528267E+01  0.19509482328E+01 -0.42128063085E+01  0.51574352911E+01  0.51100000000E-03 0. -1.
        -11    1    3    3    0    0  0.57433050624E+01  0.48255945253E+00 -0.19807390899E+01  0.60944026999E+01  0.51100000000E-03 0.  1.
         12    1    3    3    0    0 -0.24537231010E+02  0.34967042751E+01 -0.30469365379E+02  0.39277027294E+02  0.00000000000E+00 0. -1.
</event>
<event>
 7    1  0.5913457E-013  0.5052891E+02  0.7816164E-02  0.1300439E+00
        -11   -1    0    0    0    0  0.00000000000E+00  0.00000000000E+00  0.45593999997E+02  0.45594000000E+02  0.51100000000E-03 0.  1.
         11   -1    0    0    0    0 -0.00000000000E+00 -0.00000000000E+00 -0.45593999997E+02  0.45594000000E+02  0.51100000000E-03 0. -1.
    9900012    2    1    2    0    0  0.14009968619E+02 -0.38134599849E+02 -0.16230914476E+01  0.50528913043E+02  0.30000161685E+02 0.  0.
        -12    1    1    2    0    0 -0.14009968619E+02  0.38134599849E+02  0.16230914476E+01  0.40659086957E+02  0.00000000000E+00 0.  1.
         11    1    3    3    0    0  0.60090556635E+01  0.23035814650E+01 -0.12504809339E+00  0.64366819728E+01  0.51100000000E-03 0. -1.
        -11    1    3    3    0    0  0.32512269520E+01 -0.57429757733E+00 -0.21521282666E+01  0.39410595958E+01  0.51100000000E-03 0.  1.
        -12    1    3    3    0    0  0.47496860032E+01 -0.39863883737E+02  0.65408491233E+00  0.40151171474E+02  0.00000000000E+00 0.  1.
</event>
<event>
 7    1  0.5913457E-013  0.5052885E+02  0.7816164E-02  0.1300439E+00
        -11   -1    0    0    0    0  0.00000000000E+00  0.00000000000E+00  0.45593999997E+02  0.45594000000E+02  0.51100000000E-03 0.  1.
         11   -1    0    0    0    0 -0.00000000000E+00 -0.00000000000E+00 -0.45593999997E+02  0.45594000000E+02  0.51100000000E-03 0. -1.
    9900012    2    1    2    0    0  0.27643517061E+02 -0.15346569960E+02 -0.25563350112E+02  0.50528854485E+02  0.29999983693E+02 0.  0.
        -12    1    1    2    0    0 -0.27643517061E+02  0.15346569960E+02  0.25563350112E+02  0.40659145515E+02  0.00000000000E+00 0.  1.
         11    1    3    3    0    0  0.14177477266E+02 -0.13279651907E+02 -0.12623604754E+02  0.23166903411E+02  0.51100000000E-03 0. -1.
        -11    1    3    3    0    0  0.29947811233E+00 -0.91498275001E+01 -0.51375003216E+01  0.10497758820E+02  0.51100000000E-03 0.  1.
        -12    1    3    3    0    0  0.13166561683E+02  0.70829094474E+01 -0.78022450361E+01  0.16864192255E+02  0.00000000000E+00 0.  1.
</event>
<event>
 7    1  0.5913457E-013  0.5052885E+02  0.7816164E-02  0.1300439E+00
        -11   -1    0    0    0    0  0.00000000000E+00  0.00000000000E+00  0.45593999997E+02  0.45594000000E+02  0.51100000000E-03 0.  1.
         11   -1    0    0    0    0 -0.00000000000E+00 -0.00000000000E+00 -0.45593999997E+02  0.45594000000E+02  0.51100000000E-03 0. -1.
    9900012    2    1    2    0    0 -0.25097787039E+02  0.26859609089E+02 -0.17373217285E+02  0.50528853508E+02  0.29999980723E+02 0.  0.
        -12    1    1    2    0    0  0.25097787039E+02 -0.26859609089E+02  0.17373217285E+02  0.40659146492E+02  0.00000000000E+00 0.  1.
         11    1    3    3    0    0 -0.14643010512E+02  0.23172706118E+02 -0.11166224230E+02  0.29598591681E+02  0.51100000000E-03 0. -1.
        -11    1    3    3    0    0 -0.20786483228E+01  0.91303325747E+01 -0.56255162733E+01  0.10923835653E+02  0.51100000000E-03 0.  1.
        -12    1    3    3    0    0 -0.83761282038E+01 -0.54434296035E+01 -0.58147678113E+00  0.10006426174E+02  0.00000000000E+00 0.  1.
</event>
<event>
 7    1  0.5913457E-013  0.5052886E+02  0.7816164E-02  0.1300439E+00
        -11   -1    0    0    0    0  0.00000000000E+00  0.00000000000E+00  0.45593999997E+02  0.45594000000E+02  0.51100000000E-03 0. -1.
         11   -1    0    0    0    0 -0.00000000000E+00 -0.00000000000E+00 -0.45593999997E+02  0.45594000000E+02  0.51100000000E-03 0.  1.
    9900012    2    1    2    0    0  0.25521157503E+02 -0.21806188819E+02  0.22941805906E+02  0.50528858232E+02  0.29999995082E+02 0.  0.
        -12    1    1    2    0    0 -0.25521157503E+02  0.21806188819E+02 -0.22941805906E+02  0.40659141768E+02  0.00000000000E+00 0.  1.
         11    1    3    3    0    0  0.65626400056E+01 -0.15294004941E+02  0.20654586381E+01  0.16770240028E+02  0.51100000000E-03 0. -1.
        -11    1    3    3    0    0  0.19202360383E+02 -0.79636722982E+01  0.10520585063E+02  0.23298786044E+02  0.51100000000E-03 0.  1.
         12    1    3    3    0    0 -0.24384288556E+00  0.14514884200E+01  0.10355762204E+02  0.10459832160E+02  0.00000000000E+00 0. -1.
</event>
<event>
 7    1  0.5913457E-013  0.5052886E+02  0.7816164E-02  0.1300439E+00
        -11   -1    0    0    0    0  0.00000000000E+00  0.00000000000E+00  0.45593999997E+02  0.45594000000E+02  0.51100000000E-03 0.  1.
         11   -1    0    0    0    0 -0.00000000000E+00 -0.00000000000E+00 -0.45593999997E+02  0.45594000000E+02  0.51100000000E-03 0. -1.
    9900012    2    1    2    0    0 -0.26612759068E+02 -0.23287409653E+02 -0.20065482724E+02  0.50528856004E+02  0.29999988308E+02 0.  0.
        -12    1    1    2    0    0  0.26612759068E+02  0.23287409653E+02  0.20065482724E+02  0.40659143996E+02  0.00000000000E+00 0.  1.
         11    1    3    3    0    0 -0.19194842760E+01 -0.51178536318E+01 -0.47766197982E+01  0.72589904698E+01  0.51100000000E-03 0. -1.
        -11    1    3    3    0    0 -0.28262530215E+01 -0.12003499203E+02  0.45132402374E+01  0.13131680660E+02  0.51100000000E-03 0.  1.
        -12    1    3    3    0    0 -0.21867021771E+02 -0.61660568186E+01 -0.19802103163E+02  0.30138184874E+02  0.00000000000E+00 0.  1.
</event>
<event>
 7    1  0.5913457E-013  0.5052886E+02  0.7816164E-02  0.1300439E+00
        -11   -1    0    0    0    0  0.00000000000E+00  0.00000000000E+00  0.45593999997E+02  0.45594000000E+02  0.51100000000E-03 0.  1.
         11   -1    0    0    0    0 -0.00000000000E+00 -0.00000000000E+00 -0.45593999997E+02  0.45594000000E+02  0.51100000000E-03 0. -1.
    9900012    2    1    2    0    0 -0.10707525897E+02  0.93160254376E+00 -0.39212841027E+02  0.50528857171E+02  0.29999991857E+02 0.  0.
        -12    1    1    2    0    0  0.10707525897E+02 -0.93160254376E+00  0.39212841027E+02  0.40659142829E+02  0.00000000000E+00 0.  1.
         11    1    3    3    0    0 -0.71514252168E+01  0.38341532455E+01 -0.14976281853E+02  0.17033280135E+02  0.51100000000E-03 0. -1.
        -11    1    3    3    0    0 -0.10591332488E+02  0.43456886351E+01 -0.67186676039E+01  0.13274103669E+02  0.51100000000E-03 0.  1.
        -12    1    3    3    0    0  0.70352318077E+01 -0.72482393368E+01 -0.17517891570E+02  0.20221473367E+02  0.00000000000E+00 0.  1.
</event>
<event>
 7    1  0.5913457E-013  0.5052883E+02  0.7816164E-02  0.1300439E+00
        -11   -1    0    0    0    0  0.00000000000E+00  0.00000000000E+00  0.45593999997E+02  0.45594000000E+02  0.51100000000E-03 0. -1.
         11   -1    0    0    0    0 -0.00000000000E+00 -0.00000000000E+00 -0.45593999997E+02  0.45594000000E+02  0.51100000000E-03 0.  1.
    9900012    2    1    2    0    0  0.69448160643E+00  0.88011675915E+01  0.39689109093E+02  0.50528828386E+02  0.29999904363E+02 0.  0.
        -12    1    1    2    0    0 -0.69448160643E+00 -0.88011675915E+01 -0.39689109093E+02  0.40659171614E+02  0.00000000000E+00 0.  1.
         11    1    3    3    0    0 -0.82927489886E+00  0.44246784859E+01  0.26146973323E+01  0.52059695506E+01  0.51100000000E-03 0. -1.
        -11    1    3    3    0    0 -0.96727694785E+01  0.86317305319E+01  0.25797450171E+02  0.28871745305E+02  0.51100000000E-03 0.  1.
        -12    1    3    3    0    0  0.11196525984E+02 -0.42552414263E+01  0.11276961590E+02  0.16451113531E+02  0.00000000000E+00 0.  1.
</event>
<event>
 7    1  0.5913457E-013  0.5052886E+02  0.7816164E-02  0.1300439E+00
        -11   -1    0    0    0    0  0.00000000000E+00  0.00000000000E+00  0.45593999997E+02  0.45594000000E+02  0.51100000000E-03 0.  1.
         11   -1    0    0    0    0 -0.00000000000E+00 -0.00000000000E+00 -0.45593999997E+02  0.45594000000E+02  0.51100000000E-03 0. -1.
    9900012    2    1    2    0    0  0.26311267492E+02  0.30215885634E+02  0.69197536657E+01  0.50528861636E+02  0.30000005430E+02 0.  0.
        -12    1    1    2    0    0 -0.26311267492E+02 -0.30215885634E+02 -0.69197536657E+01  0.40659138364E+02  0.00000000000E+00 0.  1.
         11    1    3    3    0    0  0.18230623850E+02  0.13088821021E+02 -0.14823489554E+00  0.22443147184E+02  0.51100000000E-03 0. -1.
        -11    1    3    3    0    0  0.14412740051E+02  0.11821746906E+02  0.30111757745E+01  0.18882477473E+02  0.51100000000E-03 0.  1.
        -12    1    3    3    0    0 -0.63320964098E+01  0.53053177068E+01  0.40568127867E+01  0.92032369794E+01  0.00000000000E+00 0.  1.
</event>
<event>
 7    1  0.5913457E-013  0.5052886E+02  0.7816164E-02  0.1300439E+00
        -11   -1    0    0    0    0  0.00000000000E+00  0.00000000000E+00  0.45593999997E+02  0.45594000000E+02  0.51100000000E-03 0.  1.
         11   -1    0    0    0    0 -0.00000000000E+00 -0.00000000000E+00 -0.45593999997E+02  0.45594000000E+02  0.51100000000E-03 0. -1.
    9900012    2    1    2    0    0 -0.11987739112E+00 -0.28481149682E+02 -0.29016811653E+02  0.50528860606E+02  0.30000002298E+02 0.  0.
        -12    1    1    2    0    0  0.11987739112E+00  0.28481149682E+02  0.29016811653E+02  0.40659139394E+02  0.00000000000E+00 0.  1.
         11    1    3    3    0    0  0.18224473409E+01 -0.33274929796E+02 -0.21288219678E+02  0.39544033236E+02  0.51100000000E-03 0. -1.
        -11    1    3    3    0    0  0.15753953261E+01 -0.31161927172E+00 -0.16243010947E+01  0.22841478304E+01  0.51100000000E-03 0.  1.
        -12    1    3    3    0    0 -0.35177200581E+01  0.51053993864E+01 -0.61042908801E+01  0.87006795396E+01  0.00000000000E+00 0.  1.
</event>
<event>
 7    1  0.5913457E-013  0.5052887E+02  0.7816164E-02  0.1300439E+00
        -11   -1    0    0    0    0  0.00000000000E+00  0.00000000000E+00  0.45593999997E+02  0.45594000000E+02  0.51100000000E-03 0.  1.
         11   -1    0    0    0    0 -0.00000000000E+00 -0.00000000000E+00 -0.45593999997E+02  0.45594000000E+02  0.51100000000E-03 0. -1.
    9900012    2    1    2    0    0  0.26792046323E+02 -0.19342117510E+02 -0.23690376683E+02  0.50528865684E+02  0.30000017733E+02 0.  0.
        -12    1    1    2    0    0 -0.26792046323E+02  0.19342117510E+02  0.23690376683E+02  0.40659134316E+02  0.00000000000E+00 0.  1.
         11    1    3    3    0    0  0.20622141127E+02 -0.18235570591E+01 -0.21228971782E+02  0.29652441859E+02  0.51100000000E-03 0. -1.
        -11    1    3    3    0    0  0.63198910210E+01 -0.11235835040E+02 -0.53531139632E+01  0.13958540071E+02  0.51100000000E-03 0.  1.
        -12    1    3    3    0    0 -0.14998582467E+00 -0.62827254111E+01  0.28917090618E+01  0.69178837543E+01  0.00000000000E+00 0.  1.
</event>
<event>
 7    1  0.5913457E-013  0.5052887E+02  0.7816164E-02  0.1300439E+00
        -11   -1    0    0    0    0  0.00000000000E+00  0.00000000000E+00  0.45593999997E+02  0.45594000000E+02  0.51100000000E-03 0. -1.
         11   -1    0    0    0    0 -0.00000000000E+00 -0.00000000000E+00 -0.45593999997E+02  0.45594000000E+02  0.51100000000E-03 0.  1.
    9900012    2    1    2    0    0 -0.79911635567E+01 -0.37461550990E+02  0.13635923521E+02  0.50528869317E+02  0.30000028777E+02 0.  0.
        -12    1    1    2    0    0  0.79911635567E+01  0.37461550990E+02 -0.13635923521E+02  0.40659130683E+02  0.00000000000E+00 0.  1.
         11    1    3    3    0    0 -0.52474492595E+01 -0.27976778226E+01  0.56225860706E-01  0.59469224426E+01  0.51100000000E-03 0. -1.
        -11    1    3    3    0    0 -0.11833889080E+02 -0.22776212836E+02  0.14694228215E+02  0.29575617407E+02  0.51100000000E-03 0.  1.
        -12    1    3    3    0    0  0.90901747829E+01 -0.11887660331E+02 -0.11145305541E+01  0.15006329468E+02  0.00000000000E+00 0.  1.
</event>
<event>
 7    1  0.5913457E-013  0.5052886E+02  0.7816164E-02  0.1300439E+00
        -11   -1    0    0    0    0  0.00000000000E+00  0.00000000000E+00  0.45593999997E+02  0.45594000000E+02  0.51100000000E-03 0.  1.
         11   -1    0    0    0    0 -0.00000000000E+00 -0.00000000000E+00 -0.45593999997E+02  0.45594000000E+02  0.51100000000E-03 0. -1.
    9900012    2    1    2    0    0  0.72936392811E+01 -0.22172678623E+02 -0.33291748156E+02  0.50528863922E+02  0.30000012379E+02 0.  0.
        -12    1    1    2    0    0 -0.72936392811E+01  0.22172678623E+02  0.33291748156E+02  0.40659136078E+02  0.00000000000E+00 0.  1.
         11    1    3    3    0    0  0.42002031072E+01 -0.53094273152E+01 -0.54007774994E+01  0.86602611056E+01  0.51100000000E-03 0. -1.
        -11    1    3    3    0    0  0.99776794540E+01 -0.18234617822E+01 -0.22146965124E+02  0.24359128979E+02  0.51100000000E-03 0.  1.
        -12    1    3    3    0    0 -0.68842432802E+01 -0.15039789525E+02 -0.57440055328E+01  0.17509473838E+02  0.00000000000E+00 0.  1.
</event>
<event>
 7    1  0.5913457E-013  0.5052886E+02  0.7816164E-02  0.1300439E+00
        -11   -1    0    0    0    0  0.00000000000E+00  0.00000000000E+00  0.45593999997E+02  0.45594000000E+02  0.51100000000E-03 0.  1.
         11   -1    0    0    0    0 -0.00000000000E+00 -0.00000000000E+00 -0.45593999997E+02  0.45594000000E+02  0.51100000000E-03 0. -1.
    9900012    2    1    2    0    0 -0.11133907386E+02  0.13002346123E+02 -0.36880089814E+02  0.50528856833E+02  0.29999990830E+02 0.  0.
        -12    1    1    2    0    0  0.11133907386E+02 -0.13002346123E+02  0.36880089814E+02  0.40659143167E+02  0.00000000000E+00 0.  1.
         11    1    3    3    0    0  0.25260039271E+01 -0.37061482998E-01 -0.56859820529E+01  0.62219339084E+01  0.51100000000E-03 0. -1.
        -11    1    3    3    0    0  0.69143975403E+01  0.71221619865E+01 -0.80559490258E+01  0.12784068197E+02  0.51100000000E-03 0.  1.
         12    1    3    3    0    0 -0.20574308853E+02  0.59172456198E+01 -0.23138158735E+02  0.31522854727E+02  0.00000000000E+00 0. -1.
</event>
<event>
 7    1  0.5913457E-013  0.5052885E+02  0.7816164E-02  0.1300439E+00
        -11   -1    0    0    0    0  0.00000000000E+00  0.00000000000E+00  0.45593999997E+02  0.45594000000E+02  0.51100000000E-03 0.  1.
         11   -1    0    0    0    0 -0.00000000000E+00 -0.00000000000E+00 -0.45593999997E+02  0.45594000000E+02  0.51100000000E-03 0. -1.
    9900012    2    1    2    0    0  0.15989440897E+02 -0.64165263960E+01 -0.36828417676E+02  0.50528851218E+02  0.29999973762E+02 0.  0.
        -12    1    1    2    0    0 -0.15989440897E+02  0.64165263960E+01  0.36828417676E+02  0.40659148782E+02  0.00000000000E+00 0.  1.
         11    1    3    3    0    0  0.10670020906E+02 -0.59834130590E+01 -0.96698955634E+01  0.15593506932E+02  0.51100000000E-03 0. -1.
        -11    1    3    3    0    0  0.13451347330E+02 -0.17836429397E+01 -0.14789290120E+02  0.20070954876E+02  0.51100000000E-03 0.  1.
        -12    1    3    3    0    0 -0.81319273389E+01  0.13505296027E+01 -0.12369231992E+02  0.14864389410E+02  0.00000000000E+00 0.  1.
</event>
<event>
 7    1  0.5913457E-013  0.5052890E+02  0.7816164E-02  0.1300439E+00
        -11   -1    0    0    0    0  0.00000000000E+00  0.00000000000E+00  0.45593999997E+02  0.45594000000E+02  0.51100000000E-03 0.  1.
         11   -1    0    0    0    0 -0.00000000000E+00 -0.00000000000E+00 -0.45593999997E+02  0.45594000000E+02  0.51100000000E-03 0. -1.
    9900012    2    1    2    0    0  0.79508764316E+01 -0.87922753258E+01 -0.38892699186E+02  0.50528897804E+02  0.30000115365E+02 0.  0.
        -12    1    1    2    0    0 -0.79508764316E+01  0.87922753258E+01  0.38892699186E+02  0.40659102196E+02  0.00000000000E+00 0.  1.
         11    1    3    3    0    0 -0.15646073093E+01 -0.17089789449E+01 -0.17728906433E+02  0.17879673616E+02  0.51100000000E-03 0. -1.
        -11    1    3    3    0    0  0.81255929023E+00 -0.42893103502E+00 -0.21662950527E+02  0.21682427452E+02  0.51100000000E-03 0.  1.
        -12    1    3    3    0    0  0.87029244507E+01 -0.66543653458E+01  0.49915777413E+00  0.10966796735E+02  0.00000000000E+00 0.  1.
</event>
<event>
 7    1  0.5913457E-013  0.5052886E+02  0.7816164E-02  0.1300439E+00
        -11   -1    0    0    0    0  0.00000000000E+00  0.00000000000E+00  0.45593999997E+02  0.45594000000E+02  0.51100000000E-03 0. -1.
         11   -1    0    0    0    0 -0.00000000000E+00 -0.00000000000E+00 -0.45593999997E+02  0.45594000000E+02  0.51100000000E-03 0.  1.
    9900012    2    1    2    0    0 -0.20190206100E+02 -0.23934608523E+02  0.25935606108E+02  0.50528861154E+02  0.30000003965E+02 0.  0.
        -12    1    1    2    0    0  0.20190206100E+02  0.23934608523E+02 -0.25935606108E+02  0.40659138846E+02  0.00000000000E+00 0.  1.
         11    1    3    3    0    0 -0.11197229656E+00 -0.29825824718E+01  0.42391927305E+01  0.51845049198E+01  0.51100000000E-03 0. -1.
        -11    1    3    3    0    0  0.61969803440E+01 -0.66682218901E+01  0.91670422225E+01  0.12919071636E+02  0.51100000000E-03 0.  1.
         12    1    3    3    0    0 -0.26275214147E+02 -0.14283804161E+02  0.12529371155E+02  0.32425284599E+02  0.00000000000E+00 0. -1.
</event>
<event>
 7    1  0.5913457E-013  0.5052886E+02  0.7816164E-02  0.1300439E+00
        -11   -1    0    0    0    0  0.00000000000E+00  0.00000000000E+00  0.45593999997E+02  0.45594000000E+02  0.51100000000E-03 0.  1.
         11   -1    0    0    0    0 -0.00000000000E+00 -0.00000000000E+00 -0.45593999997E+02  0.45594000000E+02  0.51100000000E-03 0. -1.
    9900012    2    1    2    0    0  0.22389227981E+02 -0.50371892304E+01 -0.33563597854E+02  0.50528857045E+02  0.29999991474E+02 0.  0.
        -12    1    1    2    0    0 -0.22389227981E+02  0.50371892304E+01  0.33563597854E+02  0.40659142955E+02  0.00000000000E+00 0.  1.
         11    1    3    3    0    0 -0.30410642592E+01  0.36152246021E+01 -0.40901972111E+01  0.62488106259E+01  0.51100000000E-03 0.  1.
        -11    1    3    3    0    0  0.23754353279E+02  0.16347716938E+00 -0.24002660530E+02  0.33770160456E+02  0.51100000000E-03 0. -1.
         12    1    3    3    0    0  0.16759389616E+01 -0.88158910019E+01 -0.54707401131E+01  0.10509885963E+02  0.00000000000E+00 0. -1.
</event>
<event>
 7    1  0.5913457E-013  0.5052884E+02  0.7816164E-02  0.1300439E+00
        -11   -1    0    0    0    0  0.00000000000E+00  0.00000000000E+00  0.45593999997E+02  0.45594000000E+02  0.51100000000E-03 0. -1.
         11   -1    0    0    0    0 -0.00000000000E+00 -0.00000000000E+00 -0.45593999997E+02  0.45594000000E+02  0.51100000000E-03 0.  1.
    9900012    2    1    2    0    0  0.34992109543E+02 -0.11403526824E+02  0.17282324340E+02  0.50528844956E+02  0.29999954729E+02 0.  0.
        -12    1    1    2    0    0 -0.34992109543E+02  0.11403526824E+02 -0.17282324340E+02  0.40659155044E+02  0.00000000000E+00 0.  1.
         11    1    3    3    0    0  0.24244630835E+02 -0.15972275607E+02  0.10515585957E+02  0.30878686187E+02  0.51100000000E-03 0. -1.
        -11    1    3    3    0    0  0.13412116129E+02  0.19917188735E+01  0.21487431907E+01  0.13728397601E+02  0.51100000000E-03 0.  1.
         12    1    3    3    0    0 -0.26646374203E+01  0.25770299095E+01  0.46179951925E+01  0.59217611683E+01  0.00000000000E+00 0. -1.
</event>
<event>
 7    1  0.5913457E-013  0.5052883E+02  0.7816164E-02  0.1300439E+00
        -11   -1    0    0    0    0  0.00000000000E+00  0.00000000000E+00  0.45593999997E+02  0.45594000000E+02  0.51100000000E-03 0.  1.
         11   -1    0    0    0    0 -0.00000000000E+00 -0.00000000000E+00 -0.45593999997E+02  0.45594000000E+02  0.51100000000E-03 0. -1.
    9900012    2    1    2    0    0  0.30905410936E+02 -0.19838925358E+01 -0.26345544697E+02  0.50528831537E+02  0.29999913939E+02 0.  0.
        -12    1    1    2    0    0 -0.30905410936E+02  0.19838925358E+01  0.26345544697E+02  0.40659168463E+02  0.00000000000E+00 0.  1.
         11    1    3    3    0    0 -0.16004390284E+00 -0.10274159530E+02 -0.95006572896E+01  0.13994515258E+02  0.51100000000E-03 0.  1.
        -11    1    3    3    0    0  0.11340146990E+02  0.10291915193E+01 -0.54238463321E+01  0.12612544479E+02  0.51100000000E-03 0. -1.
        -12    1    3    3    0    0  0.19725307850E+02  0.72610754752E+01 -0.11421041075E+02  0.23921771800E+02  0.00000000000E+00 0.  1.
</event>
<event>
 7    1  0.5913457E-013  0.5052885E+02  0.7816164E-02  0.1300439E+00
        -11   -1    0    0    0    0  0.00000000000E+00  0.00000000000E+00  0.45593999997E+02  0.45594000000E+02  0.51100000000E-03 0.  1.
         11   -1    0    0    0    0 -0.00000000000E+00 -0.00000000000E+00 -0.45593999997E+02  0.45594000000E+02  0.51100000000E-03 0. -1.
    9900012    2    1    2    0    0 -0.16780072035E+01  0.30266998902E+02 -0.27097218352E+02  0.50528853758E+02  0.29999981484E+02 0.  0.
        -12    1    1    2    0    0  0.16780072035E+01 -0.30266998902E+02  0.27097218352E+02  0.40659146242E+02  0.00000000000E+00 0.  1.
         11    1    3    3    0    0 -0.51663615284E+01  0.14983375624E+02 -0.75288132098E+01  0.17546391798E+02  0.51100000000E-03 0. -1.
        -11    1    3    3    0    0  0.48397270780E+01  0.17717911779E+02 -0.22429548774E+02  0.28990205492E+02  0.51100000000E-03 0.  1.
        -12    1    3    3    0    0 -0.13513727530E+01 -0.24342885011E+01  0.28611436322E+01  0.39922564683E+01  0.00000000000E+00 0.  1.
</event>
<event>
 7    1  0.5913457E-013  0.5052887E+02  0.7816164E-02  0.1300439E+00
        -11   -1    0    0    0    0  0.00000000000E+00  0.00000000000E+00  0.45593999997E+02  0.45594000000E+02  0.51100000000E-03 0.  1.
         11   -1    0    0    0    0 -0.00000000000E+00 -0.00000000000E+00 -0.45593999997E+02  0.45594000000E+02  0.51100000000E-03 0. -1.
    9900012    2    1    2    0    0  0.20462865500E+02 -0.21424928329E+02 -0.27846162703E+02  0.50528865778E+02  0.30000018020E+02 0.  0.
        -12    1    1    2    0    0 -0.20462865500E+02  0.21424928329E+02  0.27846162703E+02  0.40659134222E+02  0.00000000000E+00 0.  1.
         11    1    3    3    0    0  0.39153776580E+01 -0.18357074748E+02 -0.18564664423E+02  0.26399983729E+02  0.51100000000E-03 0. -1.
        -11    1    3    3    0    0  0.53598802687E+01  0.25741568704E+00 -0.11088342586E+02  0.12318519428E+02  0.51100000000E-03 0.  1.
        -12    1    3    3    0    0  0.11187607573E+02 -0.33252692674E+01  0.18068443051E+01  0.11810362621E+02  0.00000000000E+00 0.  1.
</event>
<event>
 7    1  0.5913457E-013  0.5052885E+02  0.7816164E-02  0.1300439E+00
        -11   -1    0    0    0    0  0.00000000000E+00  0.00000000000E+00  0.45593999997E+02  0.45594000000E+02  0.51100000000E-03 0. -1.
         11   -1    0    0    0    0 -0.00000000000E+00 -0.00000000000E+00 -0.45593999997E+02  0.45594000000E+02  0.51100000000E-03 0.  1.
    9900012    2    1    2    0    0  0.36673440280E+02 -0.15473437348E+02  0.82944511110E+01  0.50528850912E+02  0.29999972832E+02 0.  0.
        -12    1    1    2    0    0 -0.36673440280E+02  0.15473437348E+02 -0.82944511110E+01  0.40659149088E+02  0.00000000000E+00 0.  1.
         11    1    3    3    0    0  0.10316179648E+02  0.11704658897E+00  0.13779270101E+02  0.17213528029E+02  0.51100000000E-03 0. -1.
        -11    1    3    3    0    0  0.11714731485E+02 -0.48994794752E+00 -0.71179576911E+00  0.11746558484E+02  0.51100000000E-03 0.  1.
         12    1    3    3    0    0  0.14642529147E+02 -0.15100535989E+02 -0.47730232212E+01  0.21568764398E+02  0.00000000000E+00 0. -1.
</event>
<event>
 7    1  0.5913457E-013  0.5052887E+02  0.7816164E-02  0.1300439E+00
        -11   -1    0    0    0    0  0.00000000000E+00  0.00000000000E+00  0.45593999997E+02  0.45594000000E+02  0.51100000000E-03 0.  1.
         11   -1    0    0    0    0 -0.00000000000E+00 -0.00000000000E+00 -0.45593999997E+02  0.45594000000E+02  0.51100000000E-03 0. -1.
    9900012    2    1    2    0    0  0.11206193582E+01  0.56777312367E+01 -0.40245157361E+02  0.50528866822E+02  0.30000021193E+02 0.  0.
        -12    1    1    2    0    0 -0.11206193582E+01 -0.56777312367E+01  0.40245157361E+02  0.40659133178E+02  0.00000000000E+00 0.  1.
         11    1    3    3    0    0 -0.42839628074E+01 -0.68339282433E+01 -0.10370719869E+02  0.13137988561E+02  0.51100000000E-03 0.  1.
        -11    1    3    3    0    0  0.75625215201E+01  0.14867826175E+02 -0.29851403606E+02  0.34195764130E+02  0.51100000000E-03 0. -1.
         12    1    3    3    0    0 -0.21579393545E+01 -0.23561666949E+01 -0.23033886379E-01  0.31951141313E+01  0.00000000000E+00 0. -1.
</event>
<event>
 7    1  0.5913457E-013  0.5052886E+02  0.7816164E-02  0.1300439E+00
        -11   -1    0    0    0    0  0.00000000000E+00  0.00000000000E+00  0.45593999997E+02  0.45594000000E+02  0.51100000000E-03 0.  1.
         11   -1    0    0    0    0 -0.00000000000E+00 -0.00000000000E+00 -0.45593999997E+02  0.45594000000E+02  0.51100000000E-03 0. -1.
    9900012    2    1    2    0    0  0.39680425565E+02  0.22765529665E+01 -0.85701339620E+01  0.50528855118E+02  0.29999985617E+02 0.  0.
        -12    1    1    2    0    0 -0.39680425565E+02 -0.22765529665E+01  0.85701339620E+01  0.40659144882E+02  0.00000000000E+00 0.  1.
         11    1    3    3    0    0  0.10325411685E+02 -0.68661531460E+01 -0.88551654088E+00  0.12431505351E+02  0.51100000000E-03 0. -1.
        -11    1    3    3    0    0  0.11394558835E+02 -0.67601816980E+01 -0.39031866293E+01  0.13811983701E+02  0.51100000000E-03 0.  1.
         12    1    3    3    0    0  0.17960455045E+02  0.15902887810E+02 -0.37814307918E+01  0.24285366066E+02  0.00000000000E+00 0. -1.
</event>
<event>
 7    1  0.5913457E-013  0.5052885E+02  0.7816164E-02  0.1300439E+00
        -11   -1    0    0    0    0  0.00000000000E+00  0.00000000000E+00  0.45593999997E+02  0.45594000000E+02  0.51100000000E-03 0.  1.
         11   -1    0    0    0    0 -0.00000000000E+00 -0.00000000000E+00 -0.45593999997E+02  0.45594000000E+02  0.51100000000E-03 0. -1.
    9900012    2    1    2    0    0  0.18678570805E+02 -0.36109583241E+02 -0.61263746428E+00  0.50528851782E+02  0.29999975477E+02 0.  0.
        -12    1    1    2    0    0 -0.18678570805E+02  0.36109583241E+02  0.61263746428E+00  0.40659148218E+02  0.00000000000E+00 0.  1.
         11    1    3    3    0    0  0.10447842058E+02 -0.12910752315E+02 -0.26599170785E+01  0.16820228540E+02  0.51100000000E-03 0. -1.
        -11    1    3    3    0    0  0.10165957881E+02 -0.26868085615E+02  0.42042802910E+01  0.29033027697E+02  0.51100000000E-03 0.  1.
        -12    1    3    3    0    0 -0.19352291343E+01  0.36692546892E+01 -0.21570006768E+01  0.46755955445E+01  0.00000000000E+00 0.  1.
</event>
<event>
 7    1  0.5913457E-013  0.5052886E+02  0.7816164E-02  0.1300439E+00
        -11   -1    0    0    0    0  0.00000000000E+00  0.00000000000E+00  0.45593999997E+02  0.45594000000E+02  0.51100000000E-03 0.  1.
         11   -1    0    0    0    0 -0.00000000000E+00 -0.00000000000E+00 -0.45593999997E+02  0.45594000000E+02  0.51100000000E-03 0. -1.
    9900012    2    1    2    0    0  0.10332919920E+02  0.13328193872E+02 -0.36996693247E+02  0.50528864530E+02  0.30000014224E+02 0.  0.
        -12    1    1    2    0    0 -0.10332919920E+02 -0.13328193872E+02  0.36996693247E+02  0.40659135470E+02  0.00000000000E+00 0.  1.
         11    1    3    3    0    0 -0.12653254985E+01 -0.32889295742E+01 -0.76810307992E+01  0.84508189402E+01  0.51100000000E-03 0. -1.
        -11    1    3    3    0    0 -0.41967283458E+01  0.11707155030E+02 -0.18582764733E+02  0.22360437229E+02  0.51100000000E-03 0.  1.
         12    1    3    3    0    0  0.15794973765E+02  0.49099684163E+01 -0.10732897715E+02  0.19717608360E+02  0.00000000000E+00 0. -1.
</event>
<event>
 7    1  0.5913457E-013  0.5052886E+02  0.7816164E-02  0.1300439E+00
        -11   -1    0    0    0    0  0.00000000000E+00  0.00000000000E+00  0.45593999997E+02  0.45594000000E+02  0.51100000000E-03 0.  1.
         11   -1    0    0    0    0 -0.00000000000E+00 -0.00000000000E+00 -0.45593999997E+02  0.45594000000E+02  0.51100000000E-03 0. -1.
    9900012    2    1    2    0    0  0.62240251832E+01  0.15808766566E+02 -0.36939275851E+02  0.50528859697E+02  0.29999999535E+02 0.  0.
        -12    1    1    2    0    0 -0.62240251832E+01 -0.15808766566E+02  0.36939275851E+02  0.40659140303E+02  0.00000000000E+00 0.  1.
         11    1    3    3    0    0  0.40855281388E+01 -0.22814338830E+01 -0.12482894592E+02  0.13331134175E+02  0.51100000000E-03 0. -1.
        -11    1    3    3    0    0  0.11063572596E+02  0.71069579830E+01 -0.75993647414E+01  0.15187555270E+02  0.51100000000E-03 0.  1.
        -12    1    3    3    0    0 -0.89250755512E+01  0.10983242466E+02 -0.16857016517E+02  0.22010170252E+02  0.00000000000E+00 0.  1.
</event>
<event>
 7    1  0.5913457E-013  0.5052887E+02  0.7816164E-02  0.1300439E+00
        -11   -1    0    0    0    0  0.00000000000E+00  0.00000000000E+00  0.45593999997E+02  0.45594000000E+02  0.51100000000E-03 0. -1.
         11   -1    0    0    0    0 -0.00000000000E+00 -0.00000000000E+00 -0.45593999997E+02  0.45594000000E+02  0.51100000000E-03 0.  1.
    9900012    2    1    2    0    0  0.39040640342E+01 -0.24086355024E+02  0.32523386996E+02  0.50528869217E+02  0.30000028473E+02 0.  0.
        -12    1    1    2    0    0 -0.39040640342E+01  0.24086355024E+02 -0.32523386996E+02  0.40659130783E+02  0.00000000000E+00 0.  1.
         11    1    3    3    0    0  0.47255862531E+01 -0.58712441622E+01  0.17188625144E+02  0.18768364555E+02  0.51100000000E-03 0. -1.
        -11    1    3    3    0    0  0.81450564172E+01 -0.90697291841E+01  0.14474580768E+02  0.18923937755E+02  0.51100000000E-03 0.  1.
        -12    1    3    3    0    0 -0.89665786361E+01 -0.91453816779E+01  0.86018108376E+00  0.12836566907E+02  0.00000000000E+00 0.  1.
</event>
<event>
 7    1  0.5913457E-013  0.5052886E+02  0.7816164E-02  0.1300439E+00
        -11   -1    0    0    0    0  0.00000000000E+00  0.00000000000E+00  0.45593999997E+02  0.45594000000E+02  0.51100000000E-03 0.  1.
         11   -1    0    0    0    0 -0.00000000000E+00 -0.00000000000E+00 -0.45593999997E+02  0.45594000000E+02  0.51100000000E-03 0. -1.
    9900012    2    1    2    0    0 -0.24022572727E+02 -0.20374865109E+02 -0.25708874216E+02  0.50528863978E+02  0.30000012546E+02 0.  0.
        -12    1    1    2    0    0  0.24022572727E+02  0.20374865109E+02  0.25708874216E+02  0.40659136022E+02  0.00000000000E+00 0.  1.
         11    1    3    3    0    0  0.32700544139E+01  0.38345596377E+01 -0.29285892007E+01  0.58286995508E+01  0.51100000000E-03 0. -1.
        -11    1    3    3    0    0  0.56193266820E+00 -0.40071542637E+01 -0.25994002657E+01  0.48093591693E+01  0.51100000000E-03 0.  1.
         12    1    3    3    0    0 -0.27854559809E+02 -0.20202270483E+02 -0.20180884750E+02  0.39890805258E+02  0.00000000000E+00 0. -1.
</event>
<event>
 7    1  0.5913457E-013  0.5052888E+02  0.7816164E-02  0.1300439E+00
        -11   -1    0    0    0    0  0.00000000000E+00  0.00000000000E+00  0.45593999997E+02  0.45594000000E+02  0.51100000000E-03 0. -1.
         11   -1    0    0    0    0 -0.00000000000E+00 -0.00000000000E+00 -0.45593999997E+02  0.45594000000E+02  0.51100000000E-03 0.  1.
    9900012    2    1    2    0    0 -0.11360616047E+02  0.21079728261E+02  0.32859480807E+02  0.50528880243E+02  0.30000061986E+02 0.  0.
        -12    1    1    2    0    0  0.11360616047E+02 -0.21079728261E+02 -0.32859480807E+02  0.40659119757E+02  0.00000000000E+00 0.  1.
         11    1    3    3    0    0 -0.19469761760E+01  0.17789456896E+02  0.22276892553E+02  0.28574734206E+02  0.51100000000E-03 0. -1.
        -11    1    3    3    0    0 -0.26378044662E+01  0.96020142608E+01  0.50174156990E+01  0.11150387923E+02  0.51100000000E-03 0.  1.
         12    1    3    3    0    0 -0.67758354046E+01 -0.63117428961E+01  0.55651725557E+01  0.10803758114E+02  0.00000000000E+00 0. -1.
</event>
<event>
 7    1  0.5913457E-013  0.5052888E+02  0.7816164E-02  0.1300439E+00
        -11   -1    0    0    0    0  0.00000000000E+00  0.00000000000E+00  0.45593999997E+02  0.45594000000E+02  0.51100000000E-03 0.  1.
         11   -1    0    0    0    0 -0.00000000000E+00 -0.00000000000E+00 -0.45593999997E+02  0.45594000000E+02  0.51100000000E-03 0. -1.
    9900012    2    1    2    0    0  0.21524072492E+02  0.24423595390E+02 -0.24359120041E+02  0.50528875101E+02  0.30000046356E+02 0.  0.
        -12    1    1    2    0    0 -0.21524072492E+02 -0.24423595390E+02  0.24359120041E+02  0.40659124899E+02  0.00000000000E+00 0.  1.
         11    1    3    3    0    0  0.11394404399E+02  0.42808295253E+01 -0.14346323665E+02  0.18814222173E+02  0.51100000000E-03 0. -1.
        -11    1    3    3    0    0  0.12838361440E+02  0.68242009557E+01 -0.10783112695E+02  0.18101623209E+02  0.51100000000E-03 0.  1.
        -12    1    3    3    0    0 -0.27086933469E+01  0.13318564909E+02  0.77031631874E+00  0.13613029718E+02  0.00000000000E+00 0.  1.
</event>
<event>
 7    1  0.5913457E-013  0.5052887E+02  0.7816164E-02  0.1300439E+00
        -11   -1    0    0    0    0  0.00000000000E+00  0.00000000000E+00  0.45593999997E+02  0.45594000000E+02  0.51100000000E-03 0.  1.
         11   -1    0    0    0    0 -0.00000000000E+00 -0.00000000000E+00 -0.45593999997E+02  0.45594000000E+02  0.51100000000E-03 0. -1.
    9900012    2    1    2    0    0  0.25089167380E+02  0.16546710551E+02 -0.27384394875E+02  0.50528867784E+02  0.30000024116E+02 0.  0.
        -12    1    1    2    0    0 -0.25089167380E+02 -0.16546710551E+02  0.27384394875E+02  0.40659132216E+02  0.00000000000E+00 0.  1.
         11    1    3    3    0    0  0.89362053260E+01  0.32864508708E+01 -0.17765429304E+02  0.20156066173E+02  0.51100000000E-03 0. -1.
        -11    1    3    3    0    0  0.15668996016E+02  0.11878824397E+02 -0.15041470439E+02  0.24756206059E+02  0.51100000000E-03 0.  1.
        -12    1    3    3    0    0  0.48396603740E+00  0.13814352838E+01  0.54225048669E+01  0.56165955525E+01  0.00000000000E+00 0.  1.
</event>
<event>
 7    1  0.5913457E-013  0.5052887E+02  0.7816164E-02  0.1300439E+00
        -11   -1    0    0    0    0  0.00000000000E+00  0.00000000000E+00  0.45593999997E+02  0.45594000000E+02  0.51100000000E-03 0.  1.
         11   -1    0    0    0    0 -0.00000000000E+00 -0.00000000000E+00 -0.45593999997E+02  0.45594000000E+02  0.51100000000E-03 0. -1.
    9900012    2    1    2    0    0  0.28377685689E+02  0.22108195224E+02 -0.18949924650E+02  0.50528868365E+02  0.30000025881E+02 0.  0.
        -12    1    1    2    0    0 -0.28377685689E+02 -0.22108195224E+02  0.18949924650E+02  0.40659131635E+02  0.00000000000E+00 0.  1.
         11    1    3    3    0    0  0.11445179982E+02  0.10253125696E+02 -0.11993088851E+02  0.19492380865E+02  0.51100000000E-03 0. -1.
        -11    1    3    3    0    0  0.75919987499E+00  0.13539096757E+02 -0.57561053134E+01  0.14731472230E+02  0.51100000000E-03 0.  1.
        -12    1    3    3    0    0  0.16173305831E+02 -0.16840272285E+01 -0.12007304857E+01  0.16305015269E+02  0.00000000000E+00 0.  1.
</event>
<event>
 7    1  0.5913457E-013  0.5052886E+02  0.7816164E-02  0.1300439E+00
        -11   -1    0    0    0    0  0.00000000000E+00  0.00000000000E+00  0.45593999997E+02  0.45594000000E+02  0.51100000000E-03 0.  1.
         11   -1    0    0    0    0 -0.00000000000E+00 -0.00000000000E+00 -0.45593999997E+02  0.45594000000E+02  0.51100000000E-03 0. -1.
    9900012    2    1    2    0    0 -0.20888246486E+02  0.30463143861E+02 -0.16995410266E+02  0.50528856560E+02  0.29999990000E+02 0.  0.
        -12    1    1    2    0    0  0.20888246486E+02 -0.30463143861E+02  0.16995410266E+02  0.40659143440E+02  0.00000000000E+00 0.  1.
         11    1    3    3    0    0 -0.76841784000E+01  0.57784547648E+01  0.50250403350E+01  0.10848417755E+02  0.51100000000E-03 0. -1.
        -11    1    3    3    0    0 -0.97093299138E+01  0.13182650835E+02 -0.22278552972E+01  0.16523217298E+02  0.51100000000E-03 0.  1.
         12    1    3    3    0    0 -0.34947381725E+01  0.11502038262E+02 -0.19792595304E+02  0.23157221507E+02  0.00000000000E+00 0. -1.
</event>
<event>
 7    1  0.5913457E-013  0.5052886E+02  0.7816164E-02  0.1300439E+00
        -11   -1    0    0    0    0  0.00000000000E+00  0.00000000000E+00  0.45593999997E+02  0.45594000000E+02  0.51100000000E-03 0.  1.
         11   -1    0    0    0    0 -0.00000000000E+00 -0.00000000000E+00 -0.45593999997E+02  0.45594000000E+02  0.51100000000E-03 0. -1.
    9900012    2    1    2    0    0  0.11395215896E+02 -0.17873814757E+02 -0.34696420802E+02  0.50528858153E+02  0.29999994842E+02 0.  0.
        -12    1    1    2    0    0 -0.11395215896E+02  0.17873814757E+02  0.34696420802E+02  0.40659141847E+02  0.00000000000E+00 0.  1.
         11    1    3    3    0    0  0.11003351581E+01 -0.17324618151E+01 -0.70602141113E+01  0.73524679503E+01  0.51100000000E-03 0. -1.
        -11    1    3    3    0    0 -0.58775657331E+01  0.34649797758E+01 -0.10504805593E+02  0.12526084967E+02  0.51100000000E-03 0.  1.
        -12    1    3    3    0    0  0.16172446471E+02 -0.19606332718E+02 -0.17131401098E+02  0.30650305236E+02  0.00000000000E+00 0.  1.
</event>
<event>
 7    1  0.5913457E-013  0.5052886E+02  0.7816164E-02  0.1300439E+00
        -11   -1    0    0    0    0  0.00000000000E+00  0.00000000000E+00  0.45593999997E+02  0.45594000000E+02  0.51100000000E-03 0.  1.
         11   -1    0    0    0    0 -0.00000000000E+00 -0.00000000000E+00 -0.45593999997E+02  0.45594000000E+02  0.51100000000E-03 0. -1.
    9900012    2    1    2    0    0  0.21538457843E+02 -0.15863170461E+02 -0.30620587879E+02  0.50528859018E+02  0.29999997470E+02 0.  0.
        -12    1    1    2    0    0 -0.21538457843E+02  0.15863170461E+02  0.30620587879E+02  0.40659140982E+02  0.00000000000E+00 0.  1.
         11    1    3    3    0    0  0.85027167917E+01 -0.10603082690E+01 -0.19215571934E+02  0.21039454638E+02  0.51100000000E-03 0. -1.
        -11    1    3    3    0    0 -0.17741899926E+01 -0.14263630503E+00 -0.82176929509E+01  0.84082443436E+01  0.51100000000E-03 0.  1.
        -12    1    3    3    0    0  0.14809931044E+02 -0.14660225887E+02 -0.31873229944E+01  0.21081160036E+02  0.00000000000E+00 0.  1.
</event>
<event>
 7    1  0.5913457E-013  0.5052886E+02  0.7816164E-02  0.1300439E+00
        -11   -1    0    0    0    0  0.00000000000E+00  0.00000000000E+00  0.45593999997E+02  0.45594000000E+02  0.51100000000E-03 0.  1.
         11   -1    0    0    0    0 -0.00000000000E+00 -0.00000000000E+00 -0.45593999997E+02  0.45594000000E+02  0.51100000000E-03 0. -1.
    9900012    2    1    2    0    0  0.31897522465E+02  0.23306344659E+02 -0.96191607396E+01  0.50528857189E+02  0.29999991912E+02 0.  0.
        -12    1    1    2    0    0 -0.31897522465E+02 -0.23306344659E+02  0.96191607396E+01  0.40659142811E+02  0.00000000000E+00 0.  1.
         11    1    3    3    0    0  0.24572336608E+02  0.23282081049E+02 -0.68393855832E+01  0.34534507666E+02  0.51100000000E-03 0. -1.
        -11    1    3    3    0    0  0.73881993868E+01  0.14598691049E+01  0.43662873298E+01  0.87052382673E+01  0.51100000000E-03 0.  1.
        -12    1    3    3    0    0 -0.63013529567E-01 -0.14356054946E+01 -0.71460624862E+01  0.72891112556E+01  0.00000000000E+00 0.  1.
</event>
<event>
 7    1  0.5913457E-013  0.5052888E+02  0.7816164E-02  0.1300439E+00
        -11   -1    0    0    0    0  0.00000000000E+00  0.00000000000E+00  0.45593999997E+02  0.45594000000E+02  0.51100000000E-03 0.  1.
         11   -1    0    0    0    0 -0.00000000000E+00 -0.00000000000E+00 -0.45593999997E+02  0.45594000000E+02  0.51100000000E-03 0. -1.
    9900012    2    1    2    0    0  0.21011738375E+02  0.10280632196E+02 -0.33256270904E+02  0.50528879223E+02  0.30000058886E+02 0.  0.
        -12    1    1    2    0    0 -0.21011738375E+02 -0.10280632196E+02  0.33256270904E+02  0.40659120777E+02  0.00000000000E+00 0.  1.
         11    1    3    3    0    0  0.10573942560E+02  0.10991353373E+02 -0.25586681953E+02  0.29787520942E+02  0.51100000000E-03 0. -1.
        -11    1    3    3    0    0 -0.93431202978E+00  0.69488268010E+00 -0.91175405184E+01  0.91915910632E+01  0.51100000000E-03 0.  1.
        -12    1    3    3    0    0  0.11372107845E+02 -0.14056038562E+01  0.14479515675E+01  0.11549767218E+02  0.00000000000E+00 0.  1.
</event>
<event>
 7    1  0.5913457E-013  0.5052888E+02  0.7816164E-02  0.1300439E+00
        -11   -1    0    0    0    0  0.00000000000E+00  0.00000000000E+00  0.45593999997E+02  0.45594000000E+02  0.51100000000E-03 0.  1.
         11   -1    0    0    0    0 -0.00000000000E+00 -0.00000000000E+00 -0.45593999997E+02  0.45594000000E+02  0.51100000000E-03 0. -1.
    9900012    2    1    2    0    0  0.19522290431E+02  0.12699909043E+02 -0.33328014441E+02  0.50528879744E+02  0.30000060470E+02 0.  0.
        -12    1    1    2    0    0 -0.19522290431E+02 -0.12699909043E+02  0.33328014441E+02  0.40659120256E+02  0.00000000000E+00 0.  1.
         11    1    3    3    0    0  0.15910617714E+02  0.53227046821E+01 -0.20665967113E+02  0.26618811735E+02  0.51100000000E-03 0. -1.
        -11    1    3    3    0    0  0.10265569189E+02  0.86415118602E+01 -0.94626170911E+01  0.16419462856E+02  0.51100000000E-03 0.  1.
        -12    1    3    3    0    0 -0.66538964724E+01 -0.12643074995E+01 -0.31994302371E+01  0.74906051532E+01  0.00000000000E+00 0.  1.
</event>
<event>
 7    1  0.5913457E-013  0.5052886E+02  0.7816164E-02  0.1300439E+00
        -11   -1    0    0    0    0  0.00000000000E+00  0.00000000000E+00  0.45593999997E+02  0.45594000000E+02  0.51100000000E-03 0.  1.
         11   -1    0    0    0    0 -0.00000000000E+00 -0.00000000000E+00 -0.45593999997E+02  0.45594000000E+02  0.51100000000E-03 0. -1.
    9900012    2    1    2    0    0  0.35209931375E+02 -0.18187071972E+02  0.90916011702E+01  0.50528855073E+02  0.29999985481E+02 0.  0.
        -12    1    1    2    0    0 -0.35209931375E+02  0.18187071972E+02 -0.90916011702E+01  0.40659144927E+02  0.00000000000E+00 0.  1.
         11    1    3    3    0    0  0.10895398321E+02 -0.12310738046E+01 -0.33760704578E+01  0.11472711069E+02  0.51100000000E-03 0. -1.
        -11    1    3    3    0    0  0.16887569608E+02  0.16465481466E+01  0.62667360801E+01  0.18087927174E+02  0.51100000000E-03 0.  1.
         12    1    3    3    0    0  0.74269634454E+01 -0.18602546314E+02  0.62009355478E+01  0.20968216830E+02  0.00000000000E+00 0. -1.
</event>
<event>
 7    1  0.5913457E-013  0.5052889E+02  0.7816164E-02  0.1300439E+00
        -11   -1    0    0    0    0  0.00000000000E+00  0.00000000000E+00  0.45593999997E+02  0.45594000000E+02  0.51100000000E-03 0.  1.
         11   -1    0    0    0    0 -0.00000000000E+00 -0.00000000000E+00 -0.45593999997E+02  0.45594000000E+02  0.51100000000E-03 0. -1.
    9900012    2    1    2    0    0 -0.10571442748E+02  0.28378354754E+02 -0.27130742235E+02  0.50528885468E+02  0.30000077867E+02 0.  0.
        -12    1    1    2    0    0  0.10571442748E+02 -0.28378354754E+02  0.27130742235E+02  0.40659114532E+02  0.00000000000E+00 0.  1.
         11    1    3    3    0    0 -0.46924691894E+01  0.23450786290E+02 -0.28398430999E+02  0.37127207385E+02  0.51100000000E-03 0.  1.
        -11    1    3    3    0    0 -0.34724254078E+01  0.71684773814E+01 -0.25496116216E+01  0.83633322224E+01  0.51100000000E-03 0. -1.
        -12    1    3    3    0    0 -0.24065481512E+01 -0.22409089179E+01  0.38173003848E+01  0.50383458605E+01  0.00000000000E+00 0.  1.
</event>
<event>
 7    1  0.5913457E-013  0.5052885E+02  0.7816164E-02  0.1300439E+00
        -11   -1    0    0    0    0  0.00000000000E+00  0.00000000000E+00  0.45593999997E+02  0.45594000000E+02  0.51100000000E-03 0. -1.
         11   -1    0    0    0    0 -0.00000000000E+00 -0.00000000000E+00 -0.45593999997E+02  0.45594000000E+02  0.51100000000E-03 0.  1.
    9900012    2    1    2    0    0 -0.38926181382E+02 -0.75012746603E+01 -0.90360085364E+01  0.50528853812E+02  0.29999981646E+02 0.  0.
        -12    1    1    2    0    0  0.38926181382E+02  0.75012746603E+01  0.90360085364E+01  0.40659146188E+02  0.00000000000E+00 0.  1.
         11    1    3    3    0    0 -0.98998553035E+01  0.26238488203E+01  0.76283776631E-01  0.10241949870E+02  0.51100000000E-03 0. -1.
        -11    1    3    3    0    0 -0.22393105974E+02  0.29553552828E+01 -0.11630919739E+02  0.25405975956E+02  0.51100000000E-03 0.  1.
        -12    1    3    3    0    0 -0.66332201037E+01 -0.13080478763E+02  0.25186274257E+01  0.14880927986E+02  0.00000000000E+00 0.  1.
</event>
<event>
 7    1  0.5913457E-013  0.5052886E+02  0.7816164E-02  0.1300439E+00
        -11   -1    0    0    0    0  0.00000000000E+00  0.00000000000E+00  0.45593999997E+02  0.45594000000E+02  0.51100000000E-03 0. -1.
         11   -1    0    0    0    0 -0.00000000000E+00 -0.00000000000E+00 -0.45593999997E+02  0.45594000000E+02  0.51100000000E-03 0.  1.
    9900012    2    1    2    0    0 -0.21840661974E+02  0.17960638069E+02  0.29215862141E+02  0.50528860364E+02  0.30000001561E+02 0.  0.
        -12    1    1    2    0    0  0.21840661974E+02 -0.17960638069E+02 -0.29215862141E+02  0.40659139636E+02  0.00000000000E+00 0.  1.
         11    1    3    3    0    0 -0.35521140244E+01  0.60855188131E+01  0.29154948522E+01  0.76256910350E+01  0.51100000000E-03 0. -1.
        -11    1    3    3    0    0 -0.45941781059E+01  0.14031827273E+02  0.19634871835E+01  0.14894761874E+02  0.51100000000E-03 0.  1.
         12    1    3    3    0    0 -0.13694369844E+02 -0.21567080175E+01  0.24336880105E+02  0.28008407455E+02  0.00000000000E+00 0. -1.
</event>
<event>
 7    1  0.5913457E-013  0.5052888E+02  0.7816164E-02  0.1300439E+00
        -11   -1    0    0    0    0  0.00000000000E+00  0.00000000000E+00  0.45593999997E+02  0.45594000000E+02  0.51100000000E-03 0. -1.
         11   -1    0    0    0    0 -0.00000000000E+00 -0.00000000000E+00 -0.45593999997E+02  0.45594000000E+02  0.51100000000E-03 0.  1.
    9900012    2    1    2    0    0 -0.19975568899E+02 -0.35354977648E+02  0.20411247702E+01  0.50528880633E+02  0.30000063173E+02 0.  0.
        -12    1    1    2    0    0  0.19975568899E+02  0.35354977648E+02 -0.20411247702E+01  0.40659119367E+02  0.00000000000E+00 0.  1.
         11    1    3    3    0    0 -0.63331199805E+01 -0.18529727268E+02 -0.82167600284E+01  0.21236156595E+02  0.51100000000E-03 0. -1.
        -11    1    3    3    0    0 -0.15407008114E+01  0.71241992007E-01 -0.38674684056E+01  0.41636698405E+01  0.51100000000E-03 0.  1.
         12    1    3    3    0    0 -0.12101748107E+02 -0.16896492372E+02  0.14125353204E+02  0.25129054198E+02  0.00000000000E+00 0. -1.
</event>
<event>
 7    1  0.5913457E-013  0.5052884E+02  0.7816164E-02  0.1300439E+00
        -11   -1    0    0    0    0  0.00000000000E+00  0.00000000000E+00  0.45593999997E+02  0.45594000000E+02  0.51100000000E-03 0. -1.
         11   -1    0    0    0    0 -0.00000000000E+00 -0.00000000000E+00 -0.45593999997E+02  0.45594000000E+02  0.51100000000E-03 0.  1.
    9900012    2    1    2    0    0  0.54924634007E+01  0.32404348535E+02 -0.23936554431E+02  0.50528836258E+02  0.29999928289E+02 0.  0.
        -12    1    1    2    0    0 -0.54924634007E+01 -0.32404348535E+02  0.23936554431E+02  0.40659163742E+02  0.00000000000E+00 0.  1.
         11    1    3    3    0    0  0.66621333923E+01  0.20931471560E+02 -0.21318239554E+02  0.30610094102E+02  0.51100000000E-03 0. -1.
        -11    1    3    3    0    0  0.48760469213E+01  0.92850895402E+00 -0.55190523753E+01  0.74227960931E+01  0.51100000000E-03 0.  1.
         12    1    3    3    0    0 -0.60457169129E+01  0.10544368021E+02  0.29007374985E+01  0.12495946062E+02  0.00000000000E+00 0. -1.
</event>
<event>
 7    1  0.5913457E-013  0.5052886E+02  0.7816164E-02  0.1300439E+00
        -11   -1    0    0    0    0  0.00000000000E+00  0.00000000000E+00  0.45593999997E+02  0.45594000000E+02  0.51100000000E-03 0. -1.
         11   -1    0    0    0    0 -0.00000000000E+00 -0.00000000000E+00 -0.45593999997E+02  0.45594000000E+02  0.51100000000E-03 0.  1.
    9900012    2    1    2    0    0 -0.12614503173E+02 -0.35936353817E+02  0.14234400300E+02  0.50528863661E+02  0.30000011582E+02 0.  0.
        -12    1    1    2    0    0  0.12614503173E+02  0.35936353817E+02 -0.14234400300E+02  0.40659136339E+02  0.00000000000E+00 0.  1.
         11    1    3    3    0    0 -0.12900267981E+02 -0.12417232941E+02  0.17220168503E+02  0.24842278306E+02  0.51100000000E-03 0. -1.
        -11    1    3    3    0    0 -0.30212832101E+01 -0.78294953909E+01  0.24721687828E+01  0.87487581441E+01  0.51100000000E-03 0.  1.
        -12    1    3    3    0    0  0.33070480186E+01 -0.15689625485E+02 -0.54579369859E+01  0.16937827210E+02  0.00000000000E+00 0.  1.
</event>
<event>
 7    1  0.5913457E-013  0.5052885E+02  0.7816164E-02  0.1300439E+00
        -11   -1    0    0    0    0  0.00000000000E+00  0.00000000000E+00  0.45593999997E+02  0.45594000000E+02  0.51100000000E-03 0. -1.
         11   -1    0    0    0    0 -0.00000000000E+00 -0.00000000000E+00 -0.45593999997E+02  0.45594000000E+02  0.51100000000E-03 0.  1.
    9900012    2    1    2    0    0 -0.15704419083E+02  0.33859832723E+02 -0.16126037272E+02  0.50528854302E+02  0.29999983137E+02 0.  0.
        -12    1    1    2    0    0  0.15704419083E+02 -0.33859832723E+02  0.16126037272E+02  0.40659145698E+02  0.00000000000E+00 0.  1.
         11    1    3    3    0    0  0.11191283461E+01  0.12152471870E+02  0.60284848234E+01  0.13611673312E+02  0.51100000000E-03 0. -1.
        -11    1    3    3    0    0 -0.51242496712E+00  0.81110176689E+01 -0.79539445508E+01  0.11371737825E+02  0.51100000000E-03 0.  1.
        -12    1    3    3    0    0 -0.16311122462E+02  0.13596343184E+02 -0.14200577544E+02  0.25545443166E+02  0.00000000000E+00 0.  1.
</event>
<event>
 7    1  0.5913457E-013  0.5052885E+02  0.7816164E-02  0.1300439E+00
        -11   -1    0    0    0    0  0.00000000000E+00  0.00000000000E+00  0.45593999997E+02  0.45594000000E+02  0.51100000000E-03 0. -1.
         11   -1    0    0    0    0 -0.00000000000E+00 -0.00000000000E+00 -0.45593999997E+02  0.45594000000E+02  0.51100000000E-03 0.  1.
    9900012    2    1    2    0    0  0.36207177085E+02  0.16014486292E+02  0.92597591802E+01  0.50528848708E+02  0.29999966134E+02 0.  0.
        -12    1    1    2    0    0 -0.36207177085E+02 -0.16014486292E+02 -0.92597591802E+01  0.40659151292E+02  0.00000000000E+00 0.  1.
         11    1    3    3    0    0  0.26424204579E+02  0.41085044323E+01  0.12068929274E+02  0.29339009022E+02  0.51100000000E-03 0. -1.
        -11    1    3    3    0    0 -0.45827069217E+00 -0.13420182870E+01  0.31192118134E+01  0.34264424274E+01  0.51100000000E-03 0.  1.
        -12    1    3    3    0    0  0.10241243199E+02  0.13248000147E+02 -0.59283819072E+01  0.17763397259E+02  0.00000000000E+00 0.  1.
</event>
<event>
 7    1  0.5913457E-013  0.5052886E+02  0.7816164E-02  0.1300439E+00
        -11   -1    0    0    0    0  0.00000000000E+00  0.00000000000E+00  0.45593999997E+02  0.45594000000E+02  0.51100000000E-03 0. -1.
         11   -1    0    0    0    0 -0.00000000000E+00 -0.00000000000E+00 -0.45593999997E+02  0.45594000000E+02  0.51100000000E-03 0.  1.
    9900012    2    1    2    0    0  0.82377904462E+01 -0.31943149177E+02  0.23768453903E+02  0.50528863613E+02  0.30000011439E+02 0.  0.
        -12    1    1    2    0    0 -0.82377904462E+01  0.31943149177E+02 -0.23768453903E+02  0.40659136387E+02  0.00000000000E+00 0.  1.
         11    1    3    3    0    0  0.29916516523E+01 -0.13721425709E+02  0.24931848319E+02  0.28615110763E+02  0.51100000000E-03 0.  1.
        -11    1    3    3    0    0  0.70483079242E+01 -0.11858187477E+02  0.29750093413E+01  0.14111907585E+02  0.51100000000E-03 0. -1.
        -12    1    3    3    0    0 -0.18021691303E+01 -0.63635359915E+01 -0.41384037579E+01  0.78018452659E+01  0.00000000000E+00 0.  1.
</event>
<event>
 7    1  0.5913457E-013  0.5052886E+02  0.7816164E-02  0.1300439E+00
        -11   -1    0    0    0    0  0.00000000000E+00  0.00000000000E+00  0.45593999997E+02  0.45594000000E+02  0.51100000000E-03 0. -1.
         11   -1    0    0    0    0 -0.00000000000E+00 -0.00000000000E+00 -0.45593999997E+02  0.45594000000E+02  0.51100000000E-03 0.  1.
    9900012    2    1    2    0    0 -0.34093827280E+02 -0.22092993566E+02  0.16359094728E+01  0.50528860521E+02  0.30000002041E+02 0.  0.
        -12    1    1    2    0    0  0.34093827280E+02  0.22092993566E+02 -0.16359094728E+01  0.40659139479E+02  0.00000000000E+00 0.  1.
         11    1    3    3    0    0 -0.31258481946E+02 -0.89748980358E+01  0.12737086126E+01  0.32546333468E+02  0.51100000000E-03 0. -1.
        -11    1    3    3    0    0 -0.30413655504E+01  0.12452158648E+01 -0.12743144093E+01  0.35248183550E+01  0.51100000000E-03 0.  1.
         12    1    3    3    0    0  0.20602021650E+00 -0.14363311395E+02  0.16365152694E+01  0.14457708698E+02  0.00000000000E+00 0. -1.
</event>
<event>
 7    1  0.5913457E-013  0.5052884E+02  0.7816164E-02  0.1300439E+00
        -11   -1    0    0    0    0  0.00000000000E+00  0.00000000000E+00  0.45593999997E+02  0.45594000000E+02  0.51100000000E-03 0.  1.
         11   -1    0    0    0    0 -0.00000000000E+00 -0.00000000000E+00 -0.45593999997E+02  0.45594000000E+02  0.51100000000E-03 0. -1.
    9900012    2    1    2    0    0  0.82482169487E+01 -0.39801964764E+02  0.96853194299E+00  0.50528836998E+02  0.29999930538E+02 0.  0.
        -12    1    1    2    0    0 -0.82482169487E+01  0.39801964764E+02 -0.96853194299E+00  0.40659163002E+02  0.00000000000E+00 0.  1.
         11    1    3    3    0    0  0.99039756494E+01 -0.65196033513E+01  0.21228103827E+01  0.12045757996E+02  0.51100000000E-03 0. -1.
        -11    1    3    3    0    0 -0.26085491145E+01  0.39851982261E+00  0.35909115979E+01  0.44562307948E+01  0.51100000000E-03 0.  1.
        -12    1    3    3    0    0  0.95279041384E+00 -0.33680881236E+02 -0.47451900376E+01  0.34026848207E+02  0.00000000000E+00 0.  1.
</event>
<event>
 7    1  0.5913457E-013  0.5052886E+02  0.7816164E-02  0.1300439E+00
        -11   -1    0    0    0    0  0.00000000000E+00  0.00000000000E+00  0.45593999997E+02  0.45594000000E+02  0.51100000000E-03 0.  1.
         11   -1    0    0    0    0 -0.00000000000E+00 -0.00000000000E+00 -0.45593999997E+02  0.45594000000E+02  0.51100000000E-03 0. -1.
    9900012    2    1    2    0    0 -0.12195570819E+02 -0.18052724050E+02 -0.34329768197E+02  0.50528858621E+02  0.29999996266E+02 0.  0.
        -12    1    1    2    0    0  0.12195570819E+02  0.18052724050E+02  0.34329768197E+02  0.40659141379E+02  0.00000000000E+00 0.  1.
         11    1    3    3    0    0  0.50663164029E+00 -0.16053744851E+02 -0.16323230938E+02  0.22900377025E+02  0.51100000000E-03 0.  1.
        -11    1    3    3    0    0 -0.13162654693E+02 -0.75714196882E+01 -0.11491348297E+02  0.19042924161E+02  0.51100000000E-03 0. -1.
        -12    1    3    3    0    0  0.46045223409E+00  0.55724404897E+01 -0.65151889612E+01  0.85855574352E+01  0.00000000000E+00 0.  1.
</event>
<event>
 7    1  0.5913457E-013  0.5052885E+02  0.7816164E-02  0.1300439E+00
        -11   -1    0    0    0    0  0.00000000000E+00  0.00000000000E+00  0.45593999997E+02  0.45594000000E+02  0.51100000000E-03 0.  1.
         11   -1    0    0    0    0 -0.00000000000E+00 -0.00000000000E+00 -0.45593999997E+02  0.45594000000E+02  0.51100000000E-03 0. -1.
    9900012    2    1    2    0    0  0.34864200086E+02 -0.19465125086E+02 -0.76656852455E+01  0.50528852535E+02  0.29999977767E+02 0.  0.
        -12    1    1    2    0    0 -0.34864200086E+02  0.19465125086E+02  0.76656852455E+01  0.40659147465E+02  0.00000000000E+00 0.  1.
         11    1    3    3    0    0  0.51854327457E+01 -0.14270069111E+02 -0.49833359945E+01  0.15979900597E+02  0.51100000000E-03 0. -1.
        -11    1    3    3    0    0  0.18506042283E+01 -0.61561674602E+01  0.83739367402E+00  0.64826200131E+01  0.51100000000E-03 0.  1.
         12    1    3    3    0    0  0.27828163112E+02  0.96111148533E+00 -0.35197429251E+01  0.28066331926E+02  0.00000000000E+00 0. -1.
</event>
<event>
 7    1  0.5913457E-013  0.5052886E+02  0.7816164E-02  0.1300439E+00
        -11   -1    0    0    0    0  0.00000000000E+00  0.00000000000E+00  0.45593999997E+02  0.45594000000E+02  0.51100000000E-03 0.  1.
         11   -1    0    0    0    0 -0.00000000000E+00 -0.00000000000E+00 -0.45593999997E+02  0.45594000000E+02  0.51100000000E-03 0. -1.
    9900012    2    1    2    0    0  0.22936479911E+02  0.33287673180E+02 -0.43605306303E+01  0.50528861743E+02  0.30000005754E+02 0.  0.
        -12    1    1    2    0    0 -0.22936479911E+02 -0.33287673180E+02  0.43605306303E+01  0.40659138257E+02  0.00000000000E+00 0.  1.
         11    1    3    3    0    0  0.29667849284E+00  0.64959693646E+01  0.72706201724E+01  0.97543607718E+01  0.51100000000E-03 0. -1.
        -11    1    3    3    0    0  0.59659181045E+01  0.38832499936E+00 -0.69997801736E+01  0.92054276313E+01  0.51100000000E-03 0.  1.
         12    1    3    3    0    0  0.16673883314E+02  0.26403378816E+02 -0.46313706291E+01  0.31569073340E+02  0.00000000000E+00 0. -1.
</event>
<event>
 7    1  0.5913457E-013  0.5052876E+02  0.7816164E-02  0.1300439E+00
        -11   -1    0    0    0    0  0.00000000000E+00  0.00000000000E+00  0.45593999997E+02  0.45594000000E+02  0.51100000000E-03 0. -1.
         11   -1    0    0    0    0 -0.00000000000E+00 -0.00000000000E+00 -0.45593999997E+02  0.45594000000E+02  0.51100000000E-03 0.  1.
    9900012    2    1    2    0    0  0.16661187649E+02  0.81300973022E+01  0.36186742867E+02  0.50528757319E+02  0.29999688346E+02 0.  0.
        -12    1    1    2    0    0 -0.16661187649E+02 -0.81300973022E+01 -0.36186742867E+02  0.40659242681E+02  0.00000000000E+00 0.  1.
         11    1    3    3    0    0  0.12531070950E+02  0.33400746504E+01  0.15714002519E+02  0.20374339579E+02  0.51100000000E-03 0. -1.
        -11    1    3    3    0    0 -0.17997956934E+01  0.44169404419E+01  0.23150886581E+02  0.23637093247E+02  0.51100000000E-03 0.  1.
        -12    1    3    3    0    0  0.59299123925E+01  0.37308220997E+00 -0.26781462330E+01  0.65173244942E+01  0.00000000000E+00 0.  1.
</event>
<event>
 7    1  0.5913457E-013  0.5052885E+02  0.7816164E-02  0.1300439E+00
        -11   -1    0    0    0    0  0.00000000000E+00  0.00000000000E+00  0.45593999997E+02  0.45594000000E+02  0.51100000000E-03 0. -1.
         11   -1    0    0    0    0 -0.00000000000E+00 -0.00000000000E+00 -0.45593999997E+02  0.45594000000E+02  0.51100000000E-03 0.  1.
    9900012    2    1    2    0    0  0.32391625828E+02  0.64133960074E+01  0.23723770164E+02  0.50528851669E+02  0.29999975134E+02 0.  0.
        -12    1    1    2    0    0 -0.32391625828E+02 -0.64133960074E+01 -0.23723770164E+02  0.40659148331E+02  0.00000000000E+00 0.  1.
         11    1    3    3    0    0  0.21111929677E+02  0.94707693589E+01  0.36117610975E+01  0.23419091900E+02  0.51100000000E-03 0. -1.
        -11    1    3    3    0    0  0.11054757363E+02  0.79502302079E+00  0.62572960786E+01  0.12727665789E+02  0.51100000000E-03 0.  1.
        -12    1    3    3    0    0  0.22493878821E+00 -0.38523963723E+01  0.13854712988E+02  0.14382093980E+02  0.00000000000E+00 0.  1.
</event>
<event>
 7    1  0.5913457E-013  0.5052885E+02  0.7816164E-02  0.1300439E+00
        -11   -1    0    0    0    0  0.00000000000E+00  0.00000000000E+00  0.45593999997E+02  0.45594000000E+02  0.51100000000E-03 0.  1.
         11   -1    0    0    0    0 -0.00000000000E+00 -0.00000000000E+00 -0.45593999997E+02  0.45594000000E+02  0.51100000000E-03 0. -1.
    9900012    2    1    2    0    0  0.40039724331E+01  0.31252282596E+02 -0.25698820324E+02  0.50528851844E+02  0.29999975665E+02 0.  0.
        -12    1    1    2    0    0 -0.40039724331E+01 -0.31252282596E+02  0.25698820324E+02  0.40659148156E+02  0.00000000000E+00 0.  1.
         11    1    3    3    0    0  0.13835393589E+01 -0.22775521121E+01 -0.35849533299E+01  0.44669134108E+01  0.51100000000E-03 0. -1.
        -11    1    3    3    0    0  0.53254278556E+01  0.43234752735E+01 -0.14061423174E+02  0.15645326530E+02  0.51100000000E-03 0.  1.
        -12    1    3    3    0    0 -0.27049947815E+01  0.29206359435E+02 -0.80524438197E+01  0.30416611903E+02  0.00000000000E+00 0.  1.
</event>
<event>
 7    1  0.5913457E-013  0.5052888E+02  0.7816164E-02  0.1300439E+00
        -11   -1    0    0    0    0  0.00000000000E+00  0.00000000000E+00  0.45593999997E+02  0.45594000000E+02  0.51100000000E-03 0. -1.
         11   -1    0    0    0    0 -0.00000000000E+00 -0.00000000000E+00 -0.45593999997E+02  0.45594000000E+02  0.51100000000E-03 0.  1.
    9900012    2    1    2    0    0 -0.39762464952E+02  0.30670351152E+01  0.79185765400E+01  0.50528878294E+02  0.30000056062E+02 0.  0.
        -12    1    1    2    0    0  0.39762464952E+02 -0.30670351152E+01 -0.79185765400E+01  0.40659121706E+02  0.00000000000E+00 0.  1.
         11    1    3    3    0    0 -0.30134664145E+02 -0.42745231548E+01  0.72471510505E+01  0.31287229503E+02  0.51100000000E-03 0. -1.
        -11    1    3    3    0    0 -0.11609550220E+02  0.39537828473E+01 -0.42201752786E+01  0.12970116991E+02  0.51100000000E-03 0.  1.
        -12    1    3    3    0    0  0.19817494125E+01  0.33877754227E+01  0.48916007682E+01  0.62715318004E+01  0.00000000000E+00 0.  1.
</event>
<event>
 7    1  0.5913457E-013  0.5052885E+02  0.7816164E-02  0.1300439E+00
        -11   -1    0    0    0    0  0.00000000000E+00  0.00000000000E+00  0.45593999997E+02  0.45594000000E+02  0.51100000000E-03 0. -1.
         11   -1    0    0    0    0 -0.00000000000E+00 -0.00000000000E+00 -0.45593999997E+02  0.45594000000E+02  0.51100000000E-03 0.  1.
    9900012    2    1    2    0    0 -0.14630414981E+02 -0.36327710417E+02 -0.10927703054E+02  0.50528852435E+02  0.29999977462E+02 0.  0.
        -12    1    1    2    0    0  0.14630414981E+02  0.36327710417E+02  0.10927703054E+02  0.40659147565E+02  0.00000000000E+00 0.  1.
         11    1    3    3    0    0 -0.11270928615E+02 -0.79086153000E+01  0.37027886643E+01  0.14258003786E+02  0.51100000000E-03 0. -1.
        -11    1    3    3    0    0  0.10552364993E+01 -0.57967815977E+01 -0.11616811890E+02  0.13025610147E+02  0.51100000000E-03 0.  1.
        -12    1    3    3    0    0 -0.44147228662E+01 -0.22622313519E+02 -0.30136798285E+01  0.23245238503E+02  0.00000000000E+00 0.  1.
</event>
<event>
 7    1  0.5913457E-013  0.5052886E+02  0.7816164E-02  0.1300439E+00
        -11   -1    0    0    0    0  0.00000000000E+00  0.00000000000E+00  0.45593999997E+02  0.45594000000E+02  0.51100000000E-03 0.  1.
         11   -1    0    0    0    0 -0.00000000000E+00 -0.00000000000E+00 -0.45593999997E+02  0.45594000000E+02  0.51100000000E-03 0. -1.
    9900012    2    1    2    0    0 -0.32781138715E+01 -0.33279955510E+01 -0.40389897772E+02  0.50528862934E+02  0.30000009374E+02 0.  0.
        -12    1    1    2    0    0  0.32781138715E+01  0.33279955510E+01  0.40389897772E+02  0.40659137066E+02  0.00000000000E+00 0.  1.
         11    1    3    3    0    0 -0.21868069640E+01  0.18172357788E+01  0.80967446773E+00  0.29563564701E+01  0.51100000000E-03 0. -1.
        -11    1    3    3    0    0 -0.72589347090E+01 -0.95813544539E+01 -0.10544462993E+02  0.15990002701E+02  0.51100000000E-03 0.  1.
         12    1    3    3    0    0  0.61676278016E+01  0.44361231240E+01 -0.30655109246E+02  0.31582503763E+02  0.00000000000E+00 0. -1.
</event>
<event>
 7    1  0.5913457E-013  0.5052886E+02  0.7816164E-02  0.1300439E+00
        -11   -1    0    0    0    0  0.00000000000E+00  0.00000000000E+00  0.45593999997E+02  0.45594000000E+02  0.51100000000E-03 0. -1.
         11   -1    0    0    0    0 -0.00000000000E+00 -0.00000000000E+00 -0.45593999997E+02  0.45594000000E+02  0.51100000000E-03 0.  1.
    9900012    2    1    2    0    0 -0.40327282143E+02  0.39947005734E+01  0.33042487796E+01  0.50528863540E+02  0.30000011216E+02 0.  0.
        -12    1    1    2    0    0  0.40327282143E+02 -0.39947005734E+01 -0.33042487796E+01  0.40659136460E+02  0.00000000000E+00 0.  1.
         11    1    3    3    0    0 -0.29731017444E+01  0.15787826844E+01  0.84995187738E+01  0.91418656955E+01  0.51100000000E-03 0. -1.
        -11    1    3    3    0    0  0.93264025410E+00  0.25486208318E+01 -0.90255402547E+00  0.28600507020E+01  0.51100000000E-03 0.  1.
         12    1    3    3    0    0 -0.38286820652E+02 -0.13270294288E+00 -0.42927159688E+01  0.38526947142E+02  0.00000000000E+00 0. -1.
</event>
<event>
 7    1  0.5913457E-013  0.5052886E+02  0.7816164E-02  0.1300439E+00
        -11   -1    0    0    0    0  0.00000000000E+00  0.00000000000E+00  0.45593999997E+02  0.45594000000E+02  0.51100000000E-03 0. -1.
         11   -1    0    0    0    0 -0.00000000000E+00 -0.00000000000E+00 -0.45593999997E+02  0.45594000000E+02  0.51100000000E-03 0.  1.
    9900012    2    1    2    0    0  0.21486178319E+02  0.23624749532E+02  0.25167056977E+02  0.50528863190E+02  0.30000010152E+02 0.  0.
        -12    1    1    2    0    0 -0.21486178319E+02 -0.23624749532E+02 -0.25167056977E+02  0.40659136810E+02  0.00000000000E+00 0.  1.
         11    1    3    3    0    0 -0.19914245600E+01  0.11576803938E+02  0.62031019902E+01  0.13284074516E+02  0.51100000000E-03 0.  1.
        -11    1    3    3    0    0  0.20936399241E+02  0.30025025920E+01  0.18048616200E+02  0.27804682735E+02  0.51100000000E-03 0. -1.
         12    1    3    3    0    0  0.25412036385E+01  0.90454430029E+01  0.91533878713E+00  0.94401059394E+01  0.00000000000E+00 0. -1.
</event>
<event>
 7    1  0.5913457E-013  0.5052886E+02  0.7816164E-02  0.1300439E+00
        -11   -1    0    0    0    0  0.00000000000E+00  0.00000000000E+00  0.45593999997E+02  0.45594000000E+02  0.51100000000E-03 0.  1.
         11   -1    0    0    0    0 -0.00000000000E+00 -0.00000000000E+00 -0.45593999997E+02  0.45594000000E+02  0.51100000000E-03 0. -1.
    9900012    2    1    2    0    0 -0.27261750747E+02  0.17697091954E+00 -0.30165073528E+02  0.50528855476E+02  0.29999986705E+02 0.  0.
        -12    1    1    2    0    0  0.27261750747E+02 -0.17697091954E+00  0.30165073528E+02  0.40659144524E+02  0.00000000000E+00 0.  1.
         11    1    3    3    0    0 -0.66911884095E+01  0.16898504514E+01  0.24242738290E+01  0.73146907480E+01  0.51100000000E-03 0. -1.
        -11    1    3    3    0    0  0.38391559385E+01 -0.68690628560E+00 -0.54685823705E+01  0.67168706977E+01  0.51100000000E-03 0.  1.
        -12    1    3    3    0    0 -0.24409718276E+02 -0.82597324621E+00 -0.27120764986E+02  0.36497294030E+02  0.00000000000E+00 0.  1.
</event>
<event>
 7    1  0.5913457E-013  0.5052886E+02  0.7816164E-02  0.1300439E+00
        -11   -1    0    0    0    0  0.00000000000E+00  0.00000000000E+00  0.45593999997E+02  0.45594000000E+02  0.51100000000E-03 0. -1.
         11   -1    0    0    0    0 -0.00000000000E+00 -0.00000000000E+00 -0.45593999997E+02  0.45594000000E+02  0.51100000000E-03 0.  1.
    9900012    2    1    2    0    0 -0.40320033788E+02  0.51477135819E+01 -0.98064651824E+00  0.50528858993E+02  0.29999997396E+02 0.  0.
        -12    1    1    2    0    0  0.40320033788E+02 -0.51477135819E+01  0.98064651824E+00  0.40659141007E+02  0.00000000000E+00 0.  1.
         11    1    3    3    0    0 -0.18615416363E+02  0.42793761871E+01  0.98221355257E+01  0.21478387590E+02  0.51100000000E-03 0. -1.
        -11    1    3    3    0    0 -0.15750313174E+02 -0.12497514434E+01  0.81949768872E+00  0.15821056238E+02  0.51100000000E-03 0.  1.
        -12    1    3    3    0    0 -0.59543042508E+01  0.21180888383E+01 -0.11622279733E+02  0.13229415166E+02  0.00000000000E+00 0.  1.
</event>
<event>
 7    1  0.5913457E-013  0.5052885E+02  0.7816164E-02  0.1300439E+00
        -11   -1    0    0    0    0  0.00000000000E+00  0.00000000000E+00  0.45593999997E+02  0.45594000000E+02  0.51100000000E-03 0.  1.
         11   -1    0    0    0    0 -0.00000000000E+00 -0.00000000000E+00 -0.45593999997E+02  0.45594000000E+02  0.51100000000E-03 0. -1.
    9900012    2    1    2    0    0 -0.22413058075E+01  0.28693595379E+02 -0.28719687648E+02  0.50528851877E+02  0.29999975766E+02 0.  0.
        -12    1    1    2    0    0  0.22413058075E+01 -0.28693595379E+02  0.28719687648E+02  0.40659148123E+02  0.00000000000E+00 0.  1.
         11    1    3    3    0    0  0.78048537111E+00  0.21558815182E+01 -0.46421154840E+01  0.51774722562E+01  0.51100000000E-03 0. -1.
        -11    1    3    3    0    0  0.13021048942E+01  0.23463143461E+01 -0.20313535057E+02  0.20490006710E+02  0.51100000000E-03 0.  1.
         12    1    3    3    0    0 -0.43238960728E+01  0.24191399514E+02 -0.37640371063E+01  0.24861372912E+02  0.00000000000E+00 0. -1.
</event>
<event>
 7    1  0.5913457E-013  0.5052886E+02  0.7816164E-02  0.1300439E+00
        -11   -1    0    0    0    0  0.00000000000E+00  0.00000000000E+00  0.45593999997E+02  0.45594000000E+02  0.51100000000E-03 0. -1.
         11   -1    0    0    0    0 -0.00000000000E+00 -0.00000000000E+00 -0.45593999997E+02  0.45594000000E+02  0.51100000000E-03 0.  1.
    9900012    2    1    2    0    0 -0.32591940886E+02 -0.15619342957E+02  0.18627045233E+02  0.50528864505E+02  0.30000014148E+02 0.  0.
        -12    1    1    2    0    0  0.32591940886E+02  0.15619342957E+02 -0.18627045233E+02  0.40659135495E+02  0.00000000000E+00 0.  1.
         11    1    3    3    0    0 -0.13399063886E+02 -0.57385069509E+01  0.27286996882E+01  0.14829402459E+02  0.51100000000E-03 0. -1.
        -11    1    3    3    0    0 -0.18843319695E+02 -0.15823008301E+02  0.16635590630E+02  0.29701534720E+02  0.51100000000E-03 0.  1.
        -12    1    3    3    0    0 -0.34955730506E+00  0.59421722951E+01 -0.73724508536E+00  0.59979273262E+01  0.00000000000E+00 0.  1.
</event>
<event>
 7    1  0.5913457E-013  0.5052890E+02  0.7816164E-02  0.1300439E+00
        -11   -1    0    0    0    0  0.00000000000E+00  0.00000000000E+00  0.45593999997E+02  0.45594000000E+02  0.51100000000E-03 0. -1.
         11   -1    0    0    0    0 -0.00000000000E+00 -0.00000000000E+00 -0.45593999997E+02  0.45594000000E+02  0.51100000000E-03 0.  1.
    9900012    2    1    2    0    0 -0.54019962465E+01 -0.15675257973E+02  0.37125019640E+02  0.50528900659E+02  0.30000124042E+02 0.  0.
        -12    1    1    2    0    0  0.54019962465E+01  0.15675257973E+02 -0.37125019640E+02  0.40659099341E+02  0.00000000000E+00 0.  1.
         11    1    3    3    0    0 -0.32009851941E+01  0.55181931291E+01  0.19603113552E+02  0.20615014499E+02  0.51100000000E-03 0. -1.
        -11    1    3    3    0    0 -0.23447363071E+01 -0.42039495900E+01  0.10460252766E+02  0.11514680573E+02  0.51100000000E-03 0.  1.
        -12    1    3    3    0    0  0.14372525469E+00 -0.16989501512E+02  0.70616533227E+01  0.18399205587E+02  0.00000000000E+00 0.  1.
</event>
<event>
 7    1  0.5913457E-013  0.5052887E+02  0.7816164E-02  0.1300439E+00
        -11   -1    0    0    0    0  0.00000000000E+00  0.00000000000E+00  0.45593999997E+02  0.45594000000E+02  0.51100000000E-03 0.  1.
         11   -1    0    0    0    0 -0.00000000000E+00 -0.00000000000E+00 -0.45593999997E+02  0.45594000000E+02  0.51100000000E-03 0. -1.
    9900012    2    1    2    0    0  0.28267334660E+00 -0.18267660261E+02 -0.36323234165E+02  0.50528872417E+02  0.30000038198E+02 0.  0.
        -12    1    1    2    0    0 -0.28267334660E+00  0.18267660261E+02  0.36323234165E+02  0.40659127583E+02  0.00000000000E+00 0.  1.
         11    1    3    3    0    0  0.32936109483E+01 -0.42228213694E+01 -0.25933549520E+01  0.59502591175E+01  0.51100000000E-03 0. -1.
        -11    1    3    3    0    0 -0.80201979740E+01 -0.12667990415E+02 -0.56506313133E+01  0.16022833432E+02  0.51100000000E-03 0.  1.
         12    1    3    3    0    0  0.50092603722E+01 -0.13768484763E+01 -0.28079247900E+02  0.28555779867E+02  0.00000000000E+00 0. -1.
</event>
<event>
 7    1  0.5913457E-013  0.5052886E+02  0.7816164E-02  0.1300439E+00
        -11   -1    0    0    0    0  0.00000000000E+00  0.00000000000E+00  0.45593999997E+02  0.45594000000E+02  0.51100000000E-03 0.  1.
         11   -1    0    0    0    0 -0.00000000000E+00 -0.00000000000E+00 -0.45593999997E+02  0.45594000000E+02  0.51100000000E-03 0. -1.
    9900012    2    1    2    0    0 -0.23175715278E+02  0.30269306271E+02 -0.14135817206E+02  0.50528855778E+02  0.29999987622E+02 0.  0.
        -12    1    1    2    0    0  0.23175715278E+02 -0.30269306271E+02  0.14135817206E+02  0.40659144222E+02  0.00000000000E+00 0.  1.
         11    1    3    3    0    0 -0.31707194627E+01  0.10574543506E+02  0.56863585457E+01  0.12418095910E+02  0.51100000000E-03 0. -1.
        -11    1    3    3    0    0 -0.68549021432E+01  0.39804732533E+01  0.20011440323E+01  0.81754772590E+01  0.51100000000E-03 0.  1.
         12    1    3    3    0    0 -0.13150093672E+02  0.15714289512E+02 -0.21823319784E+02  0.29935282609E+02  0.00000000000E+00 0. -1.
</event>
<event>
 7    1  0.7456810E-013  0.5052886E+02  0.7816164E-02  0.1300439E+00
        -11   -1    0    0    0    0  0.00000000000E+00  0.00000000000E+00  0.45593999997E+02  0.45594000000E+02  0.51100000000E-03 0. -1.
         11   -1    0    0    0    0 -0.00000000000E+00 -0.00000000000E+00 -0.45593999997E+02  0.45594000000E+02  0.51100000000E-03 0.  1.
    9900012    2    1    2    0    0  0.33496747508E+02 -0.82634144364E+01  0.21513940284E+02  0.50528859105E+02  0.29999997736E+02 0.  0.
        -12    1    1    2    0    0 -0.33496747508E+02  0.82634144364E+01 -0.21513940284E+02  0.40659140895E+02  0.00000000000E+00 0.  1.
         11    1    3    3    0    0  0.31552823598E+01  0.73620775642E+00  0.71701562097E+01  0.78682240031E+01  0.51100000000E-03 0. -1.
        -11    1    3    3    0    0  0.26464500222E+02  0.29928455699E+01  0.13916332677E+02  0.30049812180E+02  0.51100000000E-03 0.  1.
        -12    1    3    3    0    0  0.38769649267E+01 -0.11992467763E+02  0.42745139739E+00  0.12610822922E+02  0.00000000000E+00 0.  1.
</event>
<event>
 7    1  0.5913457E-013  0.5052886E+02  0.7816164E-02  0.1300439E+00
        -11   -1    0    0    0    0  0.00000000000E+00  0.00000000000E+00  0.45593999997E+02  0.45594000000E+02  0.51100000000E-03 0.  1.
         11   -1    0    0    0    0 -0.00000000000E+00 -0.00000000000E+00 -0.45593999997E+02  0.45594000000E+02  0.51100000000E-03 0. -1.
    9900012    2    1    2    0    0 -0.31769947876E+02  0.23896493361E+02 -0.85319435533E+01  0.50528855348E+02  0.29999986317E+02 0.  0.
        -12    1    1    2    0    0  0.31769947876E+02 -0.23896493361E+02  0.85319435533E+01  0.40659144652E+02  0.00000000000E+00 0.  1.
         11    1    3    3    0    0 -0.11311846795E+02  0.55347133299E+01  0.41847875821E+01  0.13270394754E+02  0.51100000000E-03 0. -1.
        -11    1    3    3    0    0 -0.12942134353E+02  0.84761592786E+01  0.44250287103E+01  0.16091146543E+02  0.51100000000E-03 0.  1.
         12    1    3    3    0    0 -0.75159667282E+01  0.98856207526E+01 -0.17141759846E+02  0.21167314051E+02  0.00000000000E+00 0. -1.
</event>
<event>
 7    1  0.5913457E-013  0.5052884E+02  0.7816164E-02  0.1300439E+00
        -11   -1    0    0    0    0  0.00000000000E+00  0.00000000000E+00  0.45593999997E+02  0.45594000000E+02  0.51100000000E-03 0. -1.
         11   -1    0    0    0    0 -0.00000000000E+00 -0.00000000000E+00 -0.45593999997E+02  0.45594000000E+02  0.51100000000E-03 0.  1.
    9900012    2    1    2    0    0 -0.58011845310E+01 -0.12245594154E+01  0.40224539968E+02  0.50528844779E+02  0.29999954189E+02 0.  0.
        -12    1    1    2    0    0  0.58011845310E+01  0.12245594154E+01 -0.40224539968E+02  0.40659155221E+02  0.00000000000E+00 0.  1.
         11    1    3    3    0    0 -0.93783065411E+01  0.69417232339E+00  0.95299502721E+01  0.13388594446E+02  0.51100000000E-03 0. -1.
        -11    1    3    3    0    0  0.14467388215E+01 -0.57575724179E+01  0.32010967968E+02  0.32556792899E+02  0.51100000000E-03 0.  1.
        -12    1    3    3    0    0  0.21303831886E+01  0.38388406791E+01 -0.13163782723E+01  0.45834574336E+01  0.00000000000E+00 0.  1.
</event>
<event>
 7    1  0.5913457E-013  0.5052886E+02  0.7816164E-02  0.1300439E+00
        -11   -1    0    0    0    0  0.00000000000E+00  0.00000000000E+00  0.45593999997E+02  0.45594000000E+02  0.51100000000E-03 0.  1.
         11   -1    0    0    0    0 -0.00000000000E+00 -0.00000000000E+00 -0.45593999997E+02  0.45594000000E+02  0.51100000000E-03 0. -1.
    9900012    2    1    2    0    0 -0.55772744722E+01  0.17293345825E+02 -0.36373065295E+02  0.50528859831E+02  0.29999999941E+02 0.  0.
        -12    1    1    2    0    0  0.55772744722E+01 -0.17293345825E+02  0.36373065295E+02  0.40659140169E+02  0.00000000000E+00 0.  1.
         11    1    3    3    0    0 -0.61196902132E+01 -0.16142799332E-01 -0.17901939661E+02  0.18919046297E+02  0.51100000000E-03 0. -1.
        -11    1    3    3    0    0  0.23080158612E+00 -0.11021178802E+01  0.30704273995E+01  0.32703910883E+01  0.51100000000E-03 0.  1.
        -12    1    3    3    0    0  0.31161415486E+00  0.18411606504E+02 -0.21541553033E+02  0.28339422445E+02  0.00000000000E+00 0.  1.
</event>
<event>
 7    1  0.5913457E-013  0.5052887E+02  0.7816164E-02  0.1300439E+00
        -11   -1    0    0    0    0  0.00000000000E+00  0.00000000000E+00  0.45593999997E+02  0.45594000000E+02  0.51100000000E-03 0. -1.
         11   -1    0    0    0    0 -0.00000000000E+00 -0.00000000000E+00 -0.45593999997E+02  0.45594000000E+02  0.51100000000E-03 0.  1.
    9900012    2    1    2    0    0 -0.20018243441E+02 -0.15860437513E+02  0.31636710215E+02  0.50528868408E+02  0.30000026012E+02 0.  0.
        -12    1    1    2    0    0  0.20018243441E+02  0.15860437513E+02 -0.31636710215E+02  0.40659131592E+02  0.00000000000E+00 0.  1.
         11    1    3    3    0    0 -0.13264113421E+02 -0.14967437741E+01  0.43926295160E+01  0.14052478113E+02  0.51100000000E-03 0. -1.
        -11    1    3    3    0    0 -0.56722073691E+01 -0.65559011946E+00 -0.27125816146E+00  0.57164076214E+01  0.51100000000E-03 0.  1.
         12    1    3    3    0    0 -0.10819226508E+01 -0.13708103620E+02  0.27515338861E+02  0.30759982674E+02  0.00000000000E+00 0. -1.
</event>
<event>
 7    1  0.5913457E-013  0.5052887E+02  0.7816164E-02  0.1300439E+00
        -11   -1    0    0    0    0  0.00000000000E+00  0.00000000000E+00  0.45593999997E+02  0.45594000000E+02  0.51100000000E-03 0.  1.
         11   -1    0    0    0    0 -0.00000000000E+00 -0.00000000000E+00 -0.45593999997E+02  0.45594000000E+02  0.51100000000E-03 0. -1.
    9900012    2    1    2    0    0 -0.17460828428E+01 -0.21684229059E+01 -0.40563705997E+02  0.50528866864E+02  0.30000021320E+02 0.  0.
        -12    1    1    2    0    0  0.17460828428E+01  0.21684229059E+01  0.40563705997E+02  0.40659133136E+02  0.00000000000E+00 0.  1.
         11    1    3    3    0    0 -0.80994435418E+01  0.62471632690E+00 -0.33999832256E+02  0.34956828373E+02  0.51100000000E-03 0. -1.
        -11    1    3    3    0    0 -0.20117290741E+01 -0.31706285091E+01  0.14082533895E+01  0.40103761520E+01  0.51100000000E-03 0.  1.
        -12    1    3    3    0    0  0.83650897732E+01  0.37748927627E+00 -0.79721271301E+01  0.11561662339E+02  0.00000000000E+00 0.  1.
</event>
<event>
 7    1  0.5913457E-013  0.5052886E+02  0.7816164E-02  0.1300439E+00
        -11   -1    0    0    0    0  0.00000000000E+00  0.00000000000E+00  0.45593999997E+02  0.45594000000E+02  0.51100000000E-03 0.  1.
         11   -1    0    0    0    0 -0.00000000000E+00 -0.00000000000E+00 -0.45593999997E+02  0.45594000000E+02  0.51100000000E-03 0. -1.
    9900012    2    1    2    0    0 -0.55971238517E+01  0.57484591139E+00 -0.40267944333E+02  0.50528861003E+02  0.30000003504E+02 0.  0.
        -12    1    1    2    0    0  0.55971238517E+01 -0.57484591139E+00  0.40267944333E+02  0.40659138997E+02  0.00000000000E+00 0.  1.
         11    1    3    3    0    0 -0.36693558088E+01  0.46095237079E+01 -0.19833163821E+02  0.20689762403E+02  0.51100000000E-03 0. -1.
        -11    1    3    3    0    0 -0.87451260651E+01 -0.22629300687E+01 -0.20911527871E+02  0.22779158908E+02  0.51100000000E-03 0.  1.
        -12    1    3    3    0    0  0.68173580222E+01 -0.17717477278E+01  0.47674735926E+00  0.70599396923E+01  0.00000000000E+00 0.  1.
</event>
<event>
 7    1  0.5913457E-013  0.5052887E+02  0.7816164E-02  0.1300439E+00
        -11   -1    0    0    0    0  0.00000000000E+00  0.00000000000E+00  0.45593999997E+02  0.45594000000E+02  0.51100000000E-03 0.  1.
         11   -1    0    0    0    0 -0.00000000000E+00 -0.00000000000E+00 -0.45593999997E+02  0.45594000000E+02  0.51100000000E-03 0. -1.
    9900012    2    1    2    0    0  0.91988760995E+01  0.38246905589E+02 -0.10282028339E+02  0.50528865536E+02  0.30000017283E+02 0.  0.
        -12    1    1    2    0    0 -0.91988760995E+01 -0.38246905589E+02  0.10282028339E+02  0.40659134464E+02  0.00000000000E+00 0.  1.
         11    1    3    3    0    0  0.13809932571E+01  0.18084464317E+02  0.50235033018E+01  0.18819951586E+02  0.51100000000E-03 0. -1.
        -11    1    3    3    0    0 -0.15473694440E+01  0.10195194357E+02  0.10767732034E+01  0.10368017215E+02  0.51100000000E-03 0.  1.
        -12    1    3    3    0    0  0.93652522864E+01  0.99672469143E+01 -0.16382304845E+02  0.21340896735E+02  0.00000000000E+00 0.  1.
</event>
<event>
 7    1  0.5913457E-013  0.5052887E+02  0.7816164E-02  0.1300439E+00
        -11   -1    0    0    0    0  0.00000000000E+00  0.00000000000E+00  0.45593999997E+02  0.45594000000E+02  0.51100000000E-03 0.  1.
         11   -1    0    0    0    0 -0.00000000000E+00 -0.00000000000E+00 -0.45593999997E+02  0.45594000000E+02  0.51100000000E-03 0. -1.
    9900012    2    1    2    0    0  0.59717263449E+00 -0.14942826855E+01 -0.40627268864E+02  0.50528874687E+02  0.30000045099E+02 0.  0.
        -12    1    1    2    0    0 -0.59717263449E+00  0.14942826855E+01  0.40627268864E+02  0.40659125313E+02  0.00000000000E+00 0.  1.
         11    1    3    3    0    0  0.41839338900E+01  0.41722035194E+01 -0.34152987879E-01  0.59087859744E+01  0.51100000000E-03 0. -1.
        -11    1    3    3    0    0 -0.37793924058E+01  0.45796647043E+01 -0.56171636633E+01  0.81737178592E+01  0.51100000000E-03 0.  1.
         12    1    3    3    0    0  0.19263115034E+00 -0.10246150909E+02 -0.34975952212E+02  0.36446370853E+02  0.00000000000E+00 0. -1.
</event>
<event>
 7    1  0.5913457E-013  0.5052886E+02  0.7816164E-02  0.1300439E+00
        -11   -1    0    0    0    0  0.00000000000E+00  0.00000000000E+00  0.45593999997E+02  0.45594000000E+02  0.51100000000E-03 0.  1.
         11   -1    0    0    0    0 -0.00000000000E+00 -0.00000000000E+00 -0.45593999997E+02  0.45594000000E+02  0.51100000000E-03 0. -1.
    9900012    2    1    2    0    0  0.31827523416E+02 -0.76223227851E+01 -0.24126216476E+02  0.50528863599E+02  0.30000011395E+02 0.  0.
        -12    1    1    2    0    0 -0.31827523416E+02  0.76223227851E+01  0.24126216476E+02  0.40659136401E+02  0.00000000000E+00 0.  1.
         11    1    3    3    0    0  0.28598895763E+02 -0.75444084070E+01 -0.27905016779E+02  0.40663311459E+02  0.51100000000E-03 0. -1.
        -11    1    3    3    0    0  0.94524607635E+00 -0.24459206833E+01 -0.19443010291E+01  0.32644026845E+01  0.51100000000E-03 0.  1.
        -12    1    3    3    0    0  0.22833815763E+01  0.23680063052E+01  0.57231013318E+01  0.66011494558E+01  0.00000000000E+00 0.  1.
</event>
<event>
 7    1  0.5913457E-013  0.5052889E+02  0.7816164E-02  0.1300439E+00
        -11   -1    0    0    0    0  0.00000000000E+00  0.00000000000E+00  0.45593999997E+02  0.45594000000E+02  0.51100000000E-03 0.  1.
         11   -1    0    0    0    0 -0.00000000000E+00 -0.00000000000E+00 -0.45593999997E+02  0.45594000000E+02  0.51100000000E-03 0. -1.
    9900012    2    1    2    0    0  0.38546950385E+02 -0.16520287958E+01 -0.12828357307E+02  0.50528888668E+02  0.30000087594E+02 0.  0.
        -12    1    1    2    0    0 -0.38546950385E+02  0.16520287958E+01  0.12828357307E+02  0.40659111332E+02  0.00000000000E+00 0.  1.
         11    1    3    3    0    0  0.59463533937E+01 -0.89641473427E+01 -0.57384101874E+00  0.10772388316E+02  0.51100000000E-03 0. -1.
        -11    1    3    3    0    0  0.14008451455E+02 -0.24904097185E+01  0.19895436069E+01  0.14366528348E+02  0.51100000000E-03 0.  1.
         12    1    3    3    0    0  0.18592145536E+02  0.98025282654E+01 -0.14244059895E+02  0.25389972003E+02  0.00000000000E+00 0. -1.
</event>
<event>
 7    1  0.5913457E-013  0.5052886E+02  0.7816164E-02  0.1300439E+00
        -11   -1    0    0    0    0  0.00000000000E+00  0.00000000000E+00  0.45593999997E+02  0.45594000000E+02  0.51100000000E-03 0.  1.
         11   -1    0    0    0    0 -0.00000000000E+00 -0.00000000000E+00 -0.45593999997E+02  0.45594000000E+02  0.51100000000E-03 0. -1.
    9900012    2    1    2    0    0  0.39646106747E+02  0.33539297833E+01 -0.83727511567E+01  0.50528860964E+02  0.30000003387E+02 0.  0.
        -12    1    1    2    0    0 -0.39646106747E+02 -0.33539297833E+01  0.83727511567E+01  0.40659139036E+02  0.00000000000E+00 0.  1.
         11    1    3    3    0    0  0.61564949891E+01  0.30752499491E+01 -0.52916257796E+00  0.69021450358E+01  0.51100000000E-03 0. -1.
        -11    1    3    3    0    0  0.13836978261E+01  0.52916638038E+01  0.61643571703E+01  0.82410936817E+01  0.51100000000E-03 0.  1.
         12    1    3    3    0    0  0.32105913932E+02 -0.50129839695E+01 -0.14007945749E+02  0.35385622247E+02  0.00000000000E+00 0. -1.
</event>
<event>
 7    1  0.5913457E-013  0.5052886E+02  0.7816164E-02  0.1300439E+00
        -11   -1    0    0    0    0  0.00000000000E+00  0.00000000000E+00  0.45593999997E+02  0.45594000000E+02  0.51100000000E-03 0.  1.
         11   -1    0    0    0    0 -0.00000000000E+00 -0.00000000000E+00 -0.45593999997E+02  0.45594000000E+02  0.51100000000E-03 0. -1.
    9900012    2    1    2    0    0 -0.58637796778E+01  0.59895304027E+01 -0.39785763351E+02  0.50528863856E+02  0.30000012177E+02 0.  0.
        -12    1    1    2    0    0  0.58637796778E+01 -0.59895304027E+01  0.39785763351E+02  0.40659136144E+02  0.00000000000E+00 0.  1.
         11    1    3    3    0    0  0.31286608429E+01  0.46593596912E+00  0.10596910836E+01  0.33359497075E+01  0.51100000000E-03 0. -1.
        -11    1    3    3    0    0 -0.13604998083E+02  0.82679337632E+01 -0.19451306789E+02  0.25135791963E+02  0.51100000000E-03 0.  1.
         12    1    3    3    0    0  0.46125575624E+01 -0.27443393296E+01 -0.21394147646E+02  0.22057122186E+02  0.00000000000E+00 0. -1.
</event>
<event>
 7    1  0.5913457E-013  0.5052887E+02  0.7816164E-02  0.1300439E+00
        -11   -1    0    0    0    0  0.00000000000E+00  0.00000000000E+00  0.45593999997E+02  0.45594000000E+02  0.51100000000E-03 0.  1.
         11   -1    0    0    0    0 -0.00000000000E+00 -0.00000000000E+00 -0.45593999997E+02  0.45594000000E+02  0.51100000000E-03 0. -1.
    9900012    2    1    2    0    0  0.21948918733E+02  0.17406590797E+02 -0.29468968177E+02  0.50528874061E+02  0.30000043196E+02 0.  0.
        -12    1    1    2    0    0 -0.21948918733E+02 -0.17406590797E+02  0.29468968177E+02  0.40659125939E+02  0.00000000000E+00 0.  1.
         11    1    3    3    0    0 -0.20534728832E+01  0.98999451764E+01 -0.29194434386E+01  0.10523726319E+02  0.51100000000E-03 0. -1.
        -11    1    3    3    0    0  0.63204446977E+01  0.47239600946E+01 -0.19009801537E+02  0.20582428789E+02  0.51100000000E-03 0.  1.
        -12    1    3    3    0    0  0.17681946919E+02  0.27826855262E+01 -0.75397232013E+01  0.19422718953E+02  0.00000000000E+00 0.  1.
</event>
<event>
 7    1  0.5913457E-013  0.5052886E+02  0.7816164E-02  0.1300439E+00
        -11   -1    0    0    0    0  0.00000000000E+00  0.00000000000E+00  0.45593999997E+02  0.45594000000E+02  0.51100000000E-03 0. -1.
         11   -1    0    0    0    0 -0.00000000000E+00 -0.00000000000E+00 -0.45593999997E+02  0.45594000000E+02  0.51100000000E-03 0.  1.
    9900012    2    1    2    0    0 -0.17678956578E+02 -0.34453035623E+02 -0.12393902045E+02  0.50528856168E+02  0.29999988807E+02 0.  0.
        -12    1    1    2    0    0  0.17678956578E+02  0.34453035623E+02  0.12393902045E+02  0.40659143832E+02  0.00000000000E+00 0.  1.
         11    1    3    3    0    0 -0.12116367196E+02 -0.10511420974E+02 -0.39509914093E+01  0.16519886752E+02  0.51100000000E-03 0. -1.
        -11    1    3    3    0    0 -0.98130271601E+01 -0.12489694635E+02 -0.13444233746E+02  0.20809502527E+02  0.51100000000E-03 0.  1.
         12    1    3    3    0    0  0.42504377782E+01 -0.11451920013E+02  0.50013231106E+01  0.13199466889E+02  0.00000000000E+00 0. -1.
</event>
<event>
 7    1  0.5913457E-013  0.5052881E+02  0.7816164E-02  0.1300439E+00
        -11   -1    0    0    0    0  0.00000000000E+00  0.00000000000E+00  0.45593999997E+02  0.45594000000E+02  0.51100000000E-03 0.  1.
         11   -1    0    0    0    0 -0.00000000000E+00 -0.00000000000E+00 -0.45593999997E+02  0.45594000000E+02  0.51100000000E-03 0. -1.
    9900012    2    1    2    0    0 -0.30789440146E+02  0.17894380758E+02 -0.19620673919E+02  0.50528814909E+02  0.29999863398E+02 0.  0.
        -12    1    1    2    0    0  0.30789440146E+02 -0.17894380758E+02  0.19620673919E+02  0.40659185091E+02  0.00000000000E+00 0.  1.
         11    1    3    3    0    0 -0.10219876311E+02  0.18972958795E+02 -0.16193320548E+02  0.26956310353E+02  0.51100000000E-03 0. -1.
        -11    1    3    3    0    0  0.25485993739E+00  0.43535614994E+00 -0.26299551068E+01  0.26779007991E+01  0.51100000000E-03 0.  1.
        -12    1    3    3    0    0 -0.20824423773E+02 -0.15139341868E+01 -0.79739826435E+00  0.20894603757E+02  0.00000000000E+00 0.  1.
</event>
<event>
 7    1  0.5913457E-013  0.5052886E+02  0.7816164E-02  0.1300439E+00
        -11   -1    0    0    0    0  0.00000000000E+00  0.00000000000E+00  0.45593999997E+02  0.45594000000E+02  0.51100000000E-03 0. -1.
         11   -1    0    0    0    0 -0.00000000000E+00 -0.00000000000E+00 -0.45593999997E+02  0.45594000000E+02  0.51100000000E-03 0.  1.
    9900012    2    1    2    0    0  0.16767615907E+02  0.25370288328E+02  0.26988169211E+02  0.50528858957E+02  0.29999997286E+02 0.  0.
        -12    1    1    2    0    0 -0.16767615907E+02 -0.25370288328E+02 -0.26988169211E+02  0.40659141043E+02  0.00000000000E+00 0.  1.
         11    1    3    3    0    0  0.75883267396E+01  0.27001959888E+02  0.12407980240E+02  0.30669961109E+02  0.51100000000E-03 0.  1.
        -11    1    3    3    0    0  0.15979922687E+01  0.36217467391E+01  0.64273560783E+01  0.75486114717E+01  0.51100000000E-03 0. -1.
        -12    1    3    3    0    0  0.75812968984E+01 -0.52534183000E+01  0.81528328924E+01  0.12310286376E+02  0.00000000000E+00 0.  1.
</event>
<event>
 7    1  0.5913457E-013  0.5052887E+02  0.7816164E-02  0.1300439E+00
        -11   -1    0    0    0    0  0.00000000000E+00  0.00000000000E+00  0.45593999997E+02  0.45594000000E+02  0.51100000000E-03 0. -1.
         11   -1    0    0    0    0 -0.00000000000E+00 -0.00000000000E+00 -0.45593999997E+02  0.45594000000E+02  0.51100000000E-03 0.  1.
    9900012    2    1    2    0    0 -0.57716939484E+01 -0.22837070342E+02  0.33140920076E+02  0.50528870443E+02  0.30000032199E+02 0.  0.
        -12    1    1    2    0    0  0.57716939484E+01  0.22837070342E+02 -0.33140920076E+02  0.40659129557E+02  0.00000000000E+00 0.  1.
         11    1    3    3    0    0  0.23183171030E+01 -0.27381940230E+01  0.13558595301E+02  0.14025256058E+02  0.51100000000E-03 0. -1.
        -11    1    3    3    0    0 -0.17299333103E+01 -0.10789990800E+02  0.22364290229E+02  0.24891324762E+02  0.51100000000E-03 0.  1.
        -12    1    3    3    0    0 -0.63600777411E+01 -0.93088855194E+01 -0.27819654543E+01  0.11612289622E+02  0.00000000000E+00 0.  1.
</event>
<event>
 7    1  0.5913457E-013  0.5052886E+02  0.7816164E-02  0.1300439E+00
        -11   -1    0    0    0    0  0.00000000000E+00  0.00000000000E+00  0.45593999997E+02  0.45594000000E+02  0.51100000000E-03 0.  1.
         11   -1    0    0    0    0 -0.00000000000E+00 -0.00000000000E+00 -0.45593999997E+02  0.45594000000E+02  0.51100000000E-03 0. -1.
    9900012    2    1    2    0    0  0.32206713107E+01 -0.35518932400E+02 -0.19524293355E+02  0.50528864329E+02  0.30000013614E+02 0.  0.
        -12    1    1    2    0    0 -0.32206713107E+01  0.35518932400E+02  0.19524293355E+02  0.40659135671E+02  0.00000000000E+00 0.  1.
         11    1    3    3    0    0 -0.27375336214E+00 -0.14358182298E+02 -0.10794500807E+02  0.17965344075E+02  0.51100000000E-03 0. -1.
        -11    1    3    3    0    0  0.39271101988E+01 -0.19836071010E+02  0.32694029388E+01  0.20483674072E+02  0.51100000000E-03 0.  1.
        -12    1    3    3    0    0 -0.43268552601E+00 -0.13246790919E+01 -0.11999195487E+02  0.12079846182E+02  0.00000000000E+00 0.  1.
</event>
<event>
 7    1  0.5913457E-013  0.5052896E+02  0.7816164E-02  0.1300438E+00
        -11   -1    0    0    0    0  0.00000000000E+00  0.00000000000E+00  0.45593999997E+02  0.45594000000E+02  0.51100000000E-03 0. -1.
         11   -1    0    0    0    0 -0.00000000000E+00 -0.00000000000E+00 -0.45593999997E+02  0.45594000000E+02  0.51100000000E-03 0.  1.
    9900012    2    1    2    0    0  0.38679786313E+02 -0.96323564446E+01  0.80155922919E+01  0.50528955746E+02  0.30000291483E+02 0.  0.
        -12    1    1    2    0    0 -0.38679786313E+02  0.96323564446E+01 -0.80155922919E+01  0.40659044254E+02  0.00000000000E+00 0.  1.
         11    1    3    3    0    0  0.95813906305E+01 -0.15125615439E+02 -0.24673804432E+01  0.18074159879E+02  0.51100000000E-03 0. -1.
        -11    1    3    3    0    0  0.45223930078E+01 -0.20062886047E+01  0.25333441965E+01  0.55583329840E+01  0.51100000000E-03 0.  1.
        -12    1    3    3    0    0  0.24576002675E+02  0.74995475994E+01  0.79496285386E+01  0.26896462882E+02  0.00000000000E+00 0.  1.
</event>
<event>
 7    1  0.5913457E-013  0.5052887E+02  0.7816164E-02  0.1300439E+00
        -11   -1    0    0    0    0  0.00000000000E+00  0.00000000000E+00  0.45593999997E+02  0.45594000000E+02  0.51100000000E-03 0.  1.
         11   -1    0    0    0    0 -0.00000000000E+00 -0.00000000000E+00 -0.45593999997E+02  0.45594000000E+02  0.51100000000E-03 0. -1.
    9900012    2    1    2    0    0 -0.37314071706E+02  0.43876807419E+01 -0.15542627720E+02  0.50528868602E+02  0.30000026602E+02 0.  0.
        -12    1    1    2    0    0  0.37314071706E+02 -0.43876807419E+01  0.15542627720E+02  0.40659131398E+02  0.00000000000E+00 0.  1.
         11    1    3    3    0    0 -0.11909334404E+02 -0.30214263972E+01  0.95043154550E+00  0.12323334930E+02  0.51100000000E-03 0.  1.
        -11    1    3    3    0    0 -0.61575794304E+01 -0.77085310212E+01 -0.33097413091E+01  0.10406326092E+02  0.51100000000E-03 0. -1.
        -12    1    3    3    0    0 -0.19247157872E+02  0.15117638160E+02 -0.13183317957E+02  0.27799207579E+02  0.00000000000E+00 0.  1.
</event>
<event>
 7    1  0.5913457E-013  0.5052886E+02  0.7816164E-02  0.1300439E+00
        -11   -1    0    0    0    0  0.00000000000E+00  0.00000000000E+00  0.45593999997E+02  0.45594000000E+02  0.51100000000E-03 0.  1.
         11   -1    0    0    0    0 -0.00000000000E+00 -0.00000000000E+00 -0.45593999997E+02  0.45594000000E+02  0.51100000000E-03 0. -1.
    9900012    2    1    2    0    0 -0.19693617346E+02  0.14566345236E+02 -0.32452252235E+02  0.50528860157E+02  0.30000000932E+02 0.  0.
        -12    1    1    2    0    0  0.19693617346E+02 -0.14566345236E+02  0.32452252235E+02  0.40659139843E+02  0.00000000000E+00 0.  1.
         11    1    3    3    0    0 -0.15659905765E+02  0.24464675730E+01 -0.88225356901E+01  0.18139872889E+02  0.51100000000E-03 0. -1.
        -11    1    3    3    0    0 -0.76126447866E+01  0.53731072862E+01 -0.21093705211E+01  0.95536425939E+01  0.51100000000E-03 0.  1.
         12    1    3    3    0    0  0.35789332057E+01  0.67467703764E+01 -0.21520346024E+02  0.22835344674E+02  0.00000000000E+00 0. -1.
</event>
<event>
 7    1  0.5913457E-013  0.5052885E+02  0.7816164E-02  0.1300439E+00
        -11   -1    0    0    0    0  0.00000000000E+00  0.00000000000E+00  0.45593999997E+02  0.45594000000E+02  0.51100000000E-03 0.  1.
         11   -1    0    0    0    0 -0.00000000000E+00 -0.00000000000E+00 -0.45593999997E+02  0.45594000000E+02  0.51100000000E-03 0. -1.
    9900012    2    1    2    0    0  0.12497956105E+02 -0.11066824134E+02 -0.37074155059E+02  0.50528850026E+02  0.29999970140E+02 0.  0.
        -12    1    1    2    0    0 -0.12497956105E+02  0.11066824134E+02  0.37074155059E+02  0.40659149974E+02  0.00000000000E+00 0.  1.
         11    1    3    3    0    0  0.14375690559E+01  0.24229302048E+01  0.18400661923E+01  0.33649724250E+01  0.51100000000E-03 0. -1.
        -11    1    3    3    0    0  0.42573492280E+01  0.21190216717E+01 -0.74795712501E-01  0.47561402370E+01  0.51100000000E-03 0.  1.
         12    1    3    3    0    0  0.68030378212E+01 -0.15608776010E+02 -0.38839425539E+02  0.42407737364E+02  0.00000000000E+00 0. -1.
</event>
<event>
 7    1  0.5913457E-013  0.5052886E+02  0.7816164E-02  0.1300439E+00
        -11   -1    0    0    0    0  0.00000000000E+00  0.00000000000E+00  0.45593999997E+02  0.45594000000E+02  0.51100000000E-03 0.  1.
         11   -1    0    0    0    0 -0.00000000000E+00 -0.00000000000E+00 -0.45593999997E+02  0.45594000000E+02  0.51100000000E-03 0. -1.
    9900012    2    1    2    0    0  0.33080830953E+01 -0.18681621306E+01 -0.40481254705E+02  0.50528862946E+02  0.30000009410E+02 0.  0.
        -12    1    1    2    0    0 -0.33080830953E+01  0.18681621306E+01  0.40481254705E+02  0.40659137054E+02  0.00000000000E+00 0.  1.
         11    1    3    3    0    0  0.15296542855E+01 -0.12209703274E+02 -0.17941498102E+02  0.21755782006E+02  0.51100000000E-03 0. -1.
        -11    1    3    3    0    0 -0.16466663257E+01 -0.15593906189E+01  0.75571604120E+00  0.23904635714E+01  0.51100000000E-03 0.  1.
         12    1    3    3    0    0  0.34250951355E+01  0.11900931762E+02 -0.23295472644E+02  0.26382617369E+02  0.00000000000E+00 0. -1.
</event>
<event>
 7    1  0.5913457E-013  0.5052889E+02  0.7816164E-02  0.1300439E+00
        -11   -1    0    0    0    0  0.00000000000E+00  0.00000000000E+00  0.45593999997E+02  0.45594000000E+02  0.51100000000E-03 0.  1.
         11   -1    0    0    0    0 -0.00000000000E+00 -0.00000000000E+00 -0.45593999997E+02  0.45594000000E+02  0.51100000000E-03 0. -1.
    9900012    2    1    2    0    0  0.17722287614E+02 -0.35555891835E+02 -0.86523084459E+01  0.50528888304E+02  0.30000086489E+02 0.  0.
        -12    1    1    2    0    0 -0.17722287614E+02  0.35555891835E+02  0.86523084459E+01  0.40659111696E+02  0.00000000000E+00 0.  1.
         11    1    3    3    0    0  0.63068440785E+01 -0.34145235014E+01 -0.28659627051E+01  0.77232762128E+01  0.51100000000E-03 0. -1.
        -11    1    3    3    0    0  0.62473387439E+01  0.24573262389E+01 -0.39186088341E+01  0.77732354320E+01  0.51100000000E-03 0.  1.
        -12    1    3    3    0    0  0.51681047918E+01 -0.34598694572E+02 -0.18677369068E+01  0.35032376659E+02  0.00000000000E+00 0.  1.
</event>
<event>
 7    1  0.5913457E-013  0.5052887E+02  0.7816164E-02  0.1300439E+00
        -11   -1    0    0    0    0  0.00000000000E+00  0.00000000000E+00  0.45593999997E+02  0.45594000000E+02  0.51100000000E-03 0. -1.
         11   -1    0    0    0    0 -0.00000000000E+00 -0.00000000000E+00 -0.45593999997E+02  0.45594000000E+02  0.51100000000E-03 0.  1.
    9900012    2    1    2    0    0 -0.15831840093E+02  0.31878053785E+02  0.19654696521E+02  0.50528873482E+02  0.30000041437E+02 0.  0.
        -12    1    1    2    0    0  0.15831840093E+02 -0.31878053785E+02 -0.19654696521E+02  0.40659126518E+02  0.00000000000E+00 0.  1.
         11    1    3    3    0    0 -0.55407018897E+01  0.67221765015E+00  0.44555362180E+00  0.55990867372E+01  0.51100000000E-03 0. -1.
        -11    1    3    3    0    0 -0.26811551088E+01  0.76134851527E+01 -0.56267703439E+01  0.98394254737E+01  0.51100000000E-03 0.  1.
         12    1    3    3    0    0 -0.76099830946E+01  0.23592350982E+02  0.24835913243E+02  0.35090361272E+02  0.00000000000E+00 0. -1.
</event>
<event>
 7    1  0.5913457E-013  0.5052887E+02  0.7816164E-02  0.1300439E+00
        -11   -1    0    0    0    0  0.00000000000E+00  0.00000000000E+00  0.45593999997E+02  0.45594000000E+02  0.51100000000E-03 0.  1.
         11   -1    0    0    0    0 -0.00000000000E+00 -0.00000000000E+00 -0.45593999997E+02  0.45594000000E+02  0.51100000000E-03 0. -1.
    9900012    2    1    2    0    0 -0.30391357690E+02  0.10921277715E+02 -0.24703358971E+02  0.50528869739E+02  0.30000030057E+02 0.  0.
        -12    1    1    2    0    0  0.30391357690E+02 -0.10921277715E+02  0.24703358971E+02  0.40659130261E+02  0.00000000000E+00 0.  1.
         11    1    3    3    0    0 -0.13230916685E+02  0.39127195678E+00  0.13320979723E+01  0.13303561002E+02  0.51100000000E-03 0. -1.
        -11    1    3    3    0    0 -0.13752047500E+02  0.14723920418E+01 -0.62037536928E+01  0.15158275262E+02  0.51100000000E-03 0.  1.
        -12    1    3    3    0    0 -0.34083935040E+01  0.90576137165E+01 -0.19831703251E+02  0.22067033474E+02  0.00000000000E+00 0.  1.
</event>
<event>
 7    1  0.5913457E-013  0.5052886E+02  0.7816164E-02  0.1300439E+00
        -11   -1    0    0    0    0  0.00000000000E+00  0.00000000000E+00  0.45593999997E+02  0.45594000000E+02  0.51100000000E-03 0.  1.
         11   -1    0    0    0    0 -0.00000000000E+00 -0.00000000000E+00 -0.45593999997E+02  0.45594000000E+02  0.51100000000E-03 0. -1.
    9900012    2    1    2    0    0  0.97134536299E+01  0.39376915165E+02 -0.28763487855E+01  0.50528855743E+02  0.29999987517E+02 0.  0.
        -12    1    1    2    0    0 -0.97134536299E+01 -0.39376915165E+02  0.28763487855E+01  0.40659144257E+02  0.00000000000E+00 0.  1.
         11    1    3    3    0    0  0.28728509507E+01  0.31250022241E+02 -0.14011133943E+01  0.31413059094E+02  0.51100000000E-03 0. -1.
        -11    1    3    3    0    0 -0.37834277187E+01  0.35793835543E+01 -0.48082125487E+01  0.70883862836E+01  0.51100000000E-03 0.  1.
         12    1    3    3    0    0  0.10624030398E+02  0.45475093704E+01  0.33329771575E+01  0.12027410366E+02  0.00000000000E+00 0. -1.
</event>
<event>
 7    1  0.5913457E-013  0.5052887E+02  0.7816164E-02  0.1300439E+00
        -11   -1    0    0    0    0  0.00000000000E+00  0.00000000000E+00  0.45593999997E+02  0.45594000000E+02  0.51100000000E-03 0.  1.
         11   -1    0    0    0    0 -0.00000000000E+00 -0.00000000000E+00 -0.45593999997E+02  0.45594000000E+02  0.51100000000E-03 0. -1.
    9900012    2    1    2    0    0  0.21066830500E+02  0.26913946565E+02  0.22022550440E+02  0.50528873166E+02  0.30000040476E+02 0.  0.
        -12    1    1    2    0    0 -0.21066830500E+02 -0.26913946565E+02 -0.22022550440E+02  0.40659126834E+02  0.00000000000E+00 0.  1.
         11    1    3    3    0    0 -0.14852666939E+01  0.27405683397E+01 -0.94067011336E+00  0.32560086762E+01  0.51100000000E-03 0. -1.
        -11    1    3    3    0    0 -0.47658225901E+01 -0.10633206266E+00  0.24025612891E+01  0.53382274658E+01  0.51100000000E-03 0.  1.
         12    1    3    3    0    0  0.27317919784E+02  0.24279710288E+02  0.20560659264E+02  0.41934637024E+02  0.00000000000E+00 0. -1.
</event>
<event>
 7    1  0.5913457E-013  0.5052886E+02  0.7816164E-02  0.1300439E+00
        -11   -1    0    0    0    0  0.00000000000E+00  0.00000000000E+00  0.45593999997E+02  0.45594000000E+02  0.51100000000E-03 0.  1.
         11   -1    0    0    0    0 -0.00000000000E+00 -0.00000000000E+00 -0.45593999997E+02  0.45594000000E+02  0.51100000000E-03 0. -1.
    9900012    2    1    2    0    0  0.26372798694E+02 -0.87834656248E+01 -0.29673080019E+02  0.50528862562E+02  0.30000008244E+02 0.  0.
        -12    1    1    2    0    0 -0.26372798694E+02  0.87834656248E+01  0.29673080019E+02  0.40659137438E+02  0.00000000000E+00 0.  1.
         11    1    3    3    0    0  0.43377794958E+01 -0.51428999411E+01 -0.24750133580E+01  0.71687824727E+01  0.51100000000E-03 0. -1.
        -11    1    3    3    0    0 -0.19624556679E+01 -0.86729553687E+01 -0.45830752365E+01  0.10003797577E+02  0.51100000000E-03 0.  1.
         12    1    3    3    0    0  0.23997474866E+02  0.50323896850E+01 -0.22614991425E+02  0.33356282513E+02  0.00000000000E+00 0. -1.
</event>
<event>
 7    1  0.5913457E-013  0.5052884E+02  0.7816164E-02  0.1300439E+00
        -11   -1    0    0    0    0  0.00000000000E+00  0.00000000000E+00  0.45593999997E+02  0.45594000000E+02  0.51100000000E-03 0.  1.
         11   -1    0    0    0    0 -0.00000000000E+00 -0.00000000000E+00 -0.45593999997E+02  0.45594000000E+02  0.51100000000E-03 0. -1.
    9900012    2    1    2    0    0 -0.30045384066E+02  0.65799797622E+01 -0.26592210733E+02  0.50528844708E+02  0.29999953975E+02 0.  0.
        -12    1    1    2    0    0  0.30045384066E+02 -0.65799797622E+01  0.26592210733E+02  0.40659155292E+02  0.00000000000E+00 0.  1.
         11    1    3    3    0    0 -0.20032096986E+02  0.42844119151E+01 -0.11641310351E+02  0.23561859054E+02  0.51100000000E-03 0. -1.
        -11    1    3    3    0    0 -0.12455590694E+02 -0.49828282041E+01 -0.48181488961E+01  0.14254293230E+02  0.51100000000E-03 0.  1.
         12    1    3    3    0    0  0.24423036132E+01  0.72783960512E+01 -0.10132751486E+02  0.12712692425E+02  0.00000000000E+00 0. -1.
</event>
<event>
 7    1  0.5913457E-013  0.5052886E+02  0.7816164E-02  0.1300439E+00
        -11   -1    0    0    0    0  0.00000000000E+00  0.00000000000E+00  0.45593999997E+02  0.45594000000E+02  0.51100000000E-03 0. -1.
         11   -1    0    0    0    0 -0.00000000000E+00 -0.00000000000E+00 -0.45593999997E+02  0.45594000000E+02  0.51100000000E-03 0.  1.
    9900012    2    1    2    0    0 -0.87986587030E+01  0.39686817726E+02  0.83994565139E+00  0.50528863205E+02  0.30000010199E+02 0.  0.
        -12    1    1    2    0    0  0.87986587030E+01 -0.39686817726E+02 -0.83994565139E+00  0.40659136795E+02  0.00000000000E+00 0.  1.
         11    1    3    3    0    0 -0.32397594454E+01 -0.83312509789E+00  0.79442060378E+00  0.34382034625E+01  0.51100000000E-03 0. -1.
        -11    1    3    3    0    0 -0.57886896313E+01 -0.20232494452E+00  0.24672326790E+01  0.62958002179E+01  0.51100000000E-03 0.  1.
         12    1    3    3    0    0  0.22979037373E+00  0.40722267768E+02 -0.24217076314E+01  0.40794859525E+02  0.00000000000E+00 0. -1.
</event>
<event>
 7    1  0.5913457E-013  0.5052886E+02  0.7816164E-02  0.1300439E+00
        -11   -1    0    0    0    0  0.00000000000E+00  0.00000000000E+00  0.45593999997E+02  0.45594000000E+02  0.51100000000E-03 0.  1.
         11   -1    0    0    0    0 -0.00000000000E+00 -0.00000000000E+00 -0.45593999997E+02  0.45594000000E+02  0.51100000000E-03 0. -1.
    9900012    2    1    2    0    0 -0.30960293896E+02 -0.23822341615E+02 -0.11274831789E+02  0.50528860929E+02  0.30000003280E+02 0.  0.
        -12    1    1    2    0    0  0.30960293896E+02  0.23822341615E+02  0.11274831789E+02  0.40659139071E+02  0.00000000000E+00 0.  1.
         11    1    3    3    0    0 -0.10285762666E+02 -0.84099571692E+01  0.23287452587E+00  0.13288285217E+02  0.51100000000E-03 0. -1.
        -11    1    3    3    0    0  0.46668758542E+01 -0.89249981287E+00  0.18827389628E+01  0.51108700255E+01  0.51100000000E-03 0.  1.
         12    1    3    3    0    0 -0.25341407084E+02 -0.14519884633E+02 -0.13390445278E+02  0.32129705686E+02  0.00000000000E+00 0. -1.
</event>
<event>
 7    1  0.5913457E-013  0.5052882E+02  0.7816164E-02  0.1300439E+00
        -11   -1    0    0    0    0  0.00000000000E+00  0.00000000000E+00  0.45593999997E+02  0.45594000000E+02  0.51100000000E-03 0.  1.
         11   -1    0    0    0    0 -0.00000000000E+00 -0.00000000000E+00 -0.45593999997E+02  0.45594000000E+02  0.51100000000E-03 0. -1.
    9900012    2    1    2    0    0 -0.51439299888E+01 -0.93718902560E+01 -0.39228512532E+02  0.50528824674E+02  0.29999893080E+02 0.  0.
        -12    1    1    2    0    0  0.51439299888E+01  0.93718902560E+01  0.39228512532E+02  0.40659175326E+02  0.00000000000E+00 0.  1.
         11    1    3    3    0    0  0.10701172551E+01 -0.56300274860E+01 -0.26540634777E+02  0.27152304783E+02  0.51100000000E-03 0.  1.
        -11    1    3    3    0    0 -0.68114018714E+01 -0.97406422576E+01 -0.35055410331E+01  0.12392099307E+02  0.51100000000E-03 0. -1.
         12    1    3    3    0    0  0.59735462747E+00  0.59987794875E+01 -0.91823367219E+01  0.10984420584E+02  0.00000000000E+00 0. -1.
</event>
<event>
 7    1  0.5913457E-013  0.5052885E+02  0.7816164E-02  0.1300439E+00
        -11   -1    0    0    0    0  0.00000000000E+00  0.00000000000E+00  0.45593999997E+02  0.45594000000E+02  0.51100000000E-03 0. -1.
         11   -1    0    0    0    0 -0.00000000000E+00 -0.00000000000E+00 -0.45593999997E+02  0.45594000000E+02  0.51100000000E-03 0.  1.
    9900012    2    1    2    0    0  0.12512480848E+02  0.90981202550E+01  0.37600913389E+02  0.50528847809E+02  0.29999963401E+02 0.  0.
        -12    1    1    2    0    0 -0.12512480848E+02 -0.90981202550E+01 -0.37600913389E+02  0.40659152191E+02  0.00000000000E+00 0.  1.
         11    1    3    3    0    0  0.10912318329E+02  0.11096554287E+01  0.10075199872E+02  0.14893612027E+02  0.51100000000E-03 0. -1.
        -11    1    3    3    0    0  0.63781978086E+01 -0.13772767672E+01  0.39349720884E+00  0.65370588871E+01  0.51100000000E-03 0.  1.
         12    1    3    3    0    0 -0.47780352895E+01  0.93657415935E+01  0.27132216309E+02  0.29098176896E+02  0.00000000000E+00 0. -1.
</event>
<event>
 7    1  0.5913457E-013  0.5052887E+02  0.7816164E-02  0.1300439E+00
        -11   -1    0    0    0    0  0.00000000000E+00  0.00000000000E+00  0.45593999997E+02  0.45594000000E+02  0.51100000000E-03 0. -1.
         11   -1    0    0    0    0 -0.00000000000E+00 -0.00000000000E+00 -0.45593999997E+02  0.45594000000E+02  0.51100000000E-03 0.  1.
    9900012    2    1    2    0    0  0.30588097857E+02 -0.90377971926E+01  0.25216091540E+02  0.50528870875E+02  0.30000033512E+02 0.  0.
        -12    1    1    2    0    0 -0.30588097857E+02  0.90377971926E+01 -0.25216091540E+02  0.40659129125E+02  0.00000000000E+00 0.  1.
         11    1    3    3    0    0  0.34895331656E+02 -0.22562326240E+01  0.20744134383E+02  0.40658257078E+02  0.51100000000E-03 0. -1.
        -11    1    3    3    0    0 -0.94758209484E+00 -0.42378238573E+01  0.34193836413E+01  0.55271373802E+01  0.51100000000E-03 0.  1.
        -12    1    3    3    0    0 -0.33596517043E+01 -0.25437407114E+01  0.10525735165E+01  0.43434764174E+01  0.00000000000E+00 0.  1.
</event>
<event>
 7    1  0.5913457E-013  0.5052885E+02  0.7816164E-02  0.1300439E+00
        -11   -1    0    0    0    0  0.00000000000E+00  0.00000000000E+00  0.45593999997E+02  0.45594000000E+02  0.51100000000E-03 0.  1.
         11   -1    0    0    0    0 -0.00000000000E+00 -0.00000000000E+00 -0.45593999997E+02  0.45594000000E+02  0.51100000000E-03 0. -1.
    9900012    2    1    2    0    0  0.19841162012E+02 -0.28836282711E+02 -0.20687275638E+02  0.50528852396E+02  0.29999977342E+02 0.  0.
        -12    1    1    2    0    0 -0.19841162012E+02  0.28836282711E+02  0.20687275638E+02  0.40659147604E+02  0.00000000000E+00 0.  1.
         11    1    3    3    0    0  0.56644963782E+01 -0.13932084402E+02 -0.94087292645E+01  0.17740171410E+02  0.51100000000E-03 0. -1.
        -11    1    3    3    0    0  0.80772957743E+01 -0.12334769307E+02  0.47150879669E+01  0.15479705930E+02  0.51100000000E-03 0.  1.
         12    1    3    3    0    0  0.60993698593E+01 -0.25694290018E+01 -0.15993634341E+02  0.17308975056E+02  0.00000000000E+00 0. -1.
</event>
<event>
 7    1  0.5913457E-013  0.5052885E+02  0.7816164E-02  0.1300439E+00
        -11   -1    0    0    0    0  0.00000000000E+00  0.00000000000E+00  0.45593999997E+02  0.45594000000E+02  0.51100000000E-03 0.  1.
         11   -1    0    0    0    0 -0.00000000000E+00 -0.00000000000E+00 -0.45593999997E+02  0.45594000000E+02  0.51100000000E-03 0. -1.
    9900012    2    1    2    0    0 -0.25627454844E+02  0.85805623249E+01 -0.30377195385E+02  0.50528849849E+02  0.29999969600E+02 0.  0.
        -12    1    1    2    0    0  0.25627454844E+02 -0.85805623249E+01  0.30377195385E+02  0.40659150151E+02  0.00000000000E+00 0.  1.
         11    1    3    3    0    0 -0.38462405436E+01  0.80326619960E+01 -0.16814614377E+02  0.19027571626E+02  0.51100000000E-03 0. -1.
        -11    1    3    3    0    0  0.16446546482E+01 -0.41969416281E+01 -0.26215603743E+01  0.52145744791E+01  0.51100000000E-03 0.  1.
         12    1    3    3    0    0 -0.23425868949E+02  0.47448419571E+01 -0.10941020633E+02  0.26286703743E+02  0.00000000000E+00 0. -1.
</event>
<event>
 7    1  0.5913457E-013  0.5052886E+02  0.7816164E-02  0.1300439E+00
        -11   -1    0    0    0    0  0.00000000000E+00  0.00000000000E+00  0.45593999997E+02  0.45594000000E+02  0.51100000000E-03 0.  1.
         11   -1    0    0    0    0 -0.00000000000E+00 -0.00000000000E+00 -0.45593999997E+02  0.45594000000E+02  0.51100000000E-03 0. -1.
    9900012    2    1    2    0    0  0.71902252512E+01 -0.74828767174E+01 -0.39312499885E+02  0.50528862892E+02  0.30000009248E+02 0.  0.
        -12    1    1    2    0    0 -0.71902252512E+01  0.74828767174E+01  0.39312499885E+02  0.40659137108E+02  0.00000000000E+00 0.  1.
         11    1    3    3    0    0 -0.26441213310E+01 -0.41546816655E+01 -0.10475940960E+01  0.50348993044E+01  0.51100000000E-03 0. -1.
        -11    1    3    3    0    0  0.12634450035E+02 -0.32481482100E+01 -0.84393099512E+01  0.15537108714E+02  0.51100000000E-03 0.  1.
         12    1    3    3    0    0 -0.28001034532E+01 -0.80046841907E-01 -0.29825595838E+02  0.29956854874E+02  0.00000000000E+00 0. -1.
</event>
<event>
 7    1  0.5913457E-013  0.5052887E+02  0.7816164E-02  0.1300439E+00
        -11   -1    0    0    0    0  0.00000000000E+00  0.00000000000E+00  0.45593999997E+02  0.45594000000E+02  0.51100000000E-03 0. -1.
         11   -1    0    0    0    0 -0.00000000000E+00 -0.00000000000E+00 -0.45593999997E+02  0.45594000000E+02  0.51100000000E-03 0.  1.
    9900012    2    1    2    0    0 -0.11168809529E+02  0.11764504363E+02  0.37282962292E+02  0.50528866383E+02  0.30000019857E+02 0.  0.
        -12    1    1    2    0    0  0.11168809529E+02 -0.11764504363E+02 -0.37282962292E+02  0.40659133617E+02  0.00000000000E+00 0.  1.
         11    1    3    3    0    0 -0.11596843868E+02 -0.95779698436E+00  0.24625726446E+02  0.27236566708E+02  0.51100000000E-03 0. -1.
        -11    1    3    3    0    0  0.11594574623E+01  0.25692481529E+00 -0.30228165916E+01  0.32477334212E+01  0.51100000000E-03 0.  1.
         12    1    3    3    0    0 -0.73142312416E+00  0.12465376532E+02  0.15680052437E+02  0.20044566254E+02  0.00000000000E+00 0. -1.
</event>
<event>
 7    1  0.5913457E-013  0.5052886E+02  0.7816164E-02  0.1300439E+00
        -11   -1    0    0    0    0  0.00000000000E+00  0.00000000000E+00  0.45593999997E+02  0.45594000000E+02  0.51100000000E-03 0.  1.
         11   -1    0    0    0    0 -0.00000000000E+00 -0.00000000000E+00 -0.45593999997E+02  0.45594000000E+02  0.51100000000E-03 0. -1.
    9900012    2    1    2    0    0 -0.16842357955E+02 -0.20175333079E+02 -0.31023486199E+02  0.50528858564E+02  0.29999996091E+02 0.  0.
        -12    1    1    2    0    0  0.16842357955E+02  0.20175333079E+02  0.31023486199E+02  0.40659141436E+02  0.00000000000E+00 0.  1.
         11    1    3    3    0    0 -0.23188816049E+01 -0.10869359940E+02 -0.24911894525E+02  0.27278612254E+02  0.51100000000E-03 0. -1.
        -11    1    3    3    0    0 -0.78906348986E+00  0.95826175067E+00  0.34162142355E+01  0.36347498865E+01  0.51100000000E-03 0.  1.
         12    1    3    3    0    0 -0.13734412861E+02 -0.10264234890E+02 -0.95278059096E+01  0.19615496424E+02  0.00000000000E+00 0. -1.
</event>
<event>
 7    1  0.5913457E-013  0.5052887E+02  0.7816164E-02  0.1300439E+00
        -11   -1    0    0    0    0  0.00000000000E+00  0.00000000000E+00  0.45593999997E+02  0.45594000000E+02  0.51100000000E-03 0.  1.
         11   -1    0    0    0    0 -0.00000000000E+00 -0.00000000000E+00 -0.45593999997E+02  0.45594000000E+02  0.51100000000E-03 0. -1.
    9900012    2    1    2    0    0  0.25296833641E+02 -0.31609689641E+02  0.37500578452E+01  0.50528865660E+02  0.30000017659E+02 0.  0.
        -12    1    1    2    0    0 -0.25296833641E+02  0.31609689641E+02 -0.37500578452E+01  0.40659134340E+02  0.00000000000E+00 0.  1.
         11    1    3    3    0    0  0.62342302605E+01 -0.59446189693E+00  0.30099523640E+01  0.69482965814E+01  0.51100000000E-03 0. -1.
        -11    1    3    3    0    0  0.73766797918E+01 -0.14731546846E+02  0.12192805279E+02  0.20496301571E+02  0.51100000000E-03 0.  1.
         12    1    3    3    0    0  0.11685923589E+02 -0.16283680898E+02 -0.11452699798E+02  0.23084267508E+02  0.00000000000E+00 0. -1.
</event>
<event>
 7    1  0.5913457E-013  0.5052883E+02  0.7816164E-02  0.1300439E+00
        -11   -1    0    0    0    0  0.00000000000E+00  0.00000000000E+00  0.45593999997E+02  0.45594000000E+02  0.51100000000E-03 0. -1.
         11   -1    0    0    0    0 -0.00000000000E+00 -0.00000000000E+00 -0.45593999997E+02  0.45594000000E+02  0.51100000000E-03 0.  1.
    9900012    2    1    2    0    0 -0.19825349533E+01 -0.58044677656E+01  0.40193848906E+02  0.50528833988E+02  0.29999921390E+02 0.  0.
        -12    1    1    2    0    0  0.19825349533E+01  0.58044677656E+01 -0.40193848906E+02  0.40659166012E+02  0.00000000000E+00 0.  1.
         11    1    3    3    0    0  0.56531196546E+01 -0.75352695427E+01  0.20344233972E+02  0.22419319907E+02  0.51100000000E-03 0. -1.
        -11    1    3    3    0    0  0.51834877436E+01 -0.32393654660E+01  0.52838228746E+01  0.80796545868E+01  0.51100000000E-03 0.  1.
        -12    1    3    3    0    0 -0.12819142351E+02  0.49701672432E+01  0.14565792059E+02  0.20029859494E+02  0.00000000000E+00 0.  1.
</event>
<event>
 7    1  0.5913457E-013  0.5052883E+02  0.7816164E-02  0.1300439E+00
        -11   -1    0    0    0    0  0.00000000000E+00  0.00000000000E+00  0.45593999997E+02  0.45594000000E+02  0.51100000000E-03 0.  1.
         11   -1    0    0    0    0 -0.00000000000E+00 -0.00000000000E+00 -0.45593999997E+02  0.45594000000E+02  0.51100000000E-03 0. -1.
    9900012    2    1    2    0    0 -0.10166183601E+02  0.32567671678E+02 -0.22117035070E+02  0.50528834147E+02  0.29999921873E+02 0.  0.
        -12    1    1    2    0    0  0.10166183601E+02 -0.32567671678E+02  0.22117035070E+02  0.40659165853E+02  0.00000000000E+00 0.  1.
         11    1    3    3    0    0 -0.75472692378E+01  0.11483321706E+02 -0.84676727415E+01  0.16140924146E+02  0.51100000000E-03 0. -1.
        -11    1    3    3    0    0 -0.45548419503E+01  0.83306094697E+01  0.57434778705E+01  0.11096538994E+02  0.51100000000E-03 0.  1.
        -12    1    3    3    0    0  0.19359275868E+01  0.12753740502E+02 -0.19392840199E+02  0.23291371008E+02  0.00000000000E+00 0.  1.
</event>
<event>
 7    1  0.5913457E-013  0.5052886E+02  0.7816164E-02  0.1300439E+00
        -11   -1    0    0    0    0  0.00000000000E+00  0.00000000000E+00  0.45593999997E+02  0.45594000000E+02  0.51100000000E-03 0.  1.
         11   -1    0    0    0    0 -0.00000000000E+00 -0.00000000000E+00 -0.45593999997E+02  0.45594000000E+02  0.51100000000E-03 0. -1.
    9900012    2    1    2    0    0  0.19521390404E+02 -0.24627100185E+02 -0.25798972264E+02  0.50528859370E+02  0.29999998542E+02 0.  0.
        -12    1    1    2    0    0 -0.19521390404E+02  0.24627100185E+02  0.25798972264E+02  0.40659140630E+02  0.00000000000E+00 0.  1.
         11    1    3    3    0    0  0.52436579441E+01 -0.36521614331E+01  0.32580108074E+01  0.71727865192E+01  0.51100000000E-03 0. -1.
        -11    1    3    3    0    0  0.14487834268E+01 -0.17594979637E+02 -0.22375998411E+02  0.28502062855E+02  0.51100000000E-03 0.  1.
         12    1    3    3    0    0  0.12828949034E+02 -0.33799591148E+01 -0.66809846605E+01  0.14854009996E+02  0.00000000000E+00 0. -1.
</event>
<event>
 7    1  0.5913457E-013  0.5052887E+02  0.7816164E-02  0.1300439E+00
        -11   -1    0    0    0    0  0.00000000000E+00  0.00000000000E+00  0.45593999997E+02  0.45594000000E+02  0.51100000000E-03 0. -1.
         11   -1    0    0    0    0 -0.00000000000E+00 -0.00000000000E+00 -0.45593999997E+02  0.45594000000E+02  0.51100000000E-03 0.  1.
    9900012    2    1    2    0    0  0.37035039084E+00 -0.36071708862E+01  0.40497110086E+02  0.50528871056E+02  0.30000034061E+02 0.  0.
        -12    1    1    2    0    0 -0.37035039084E+00  0.36071708862E+01 -0.40497110086E+02  0.40659128944E+02  0.00000000000E+00 0.  1.
         11    1    3    3    0    0 -0.19794705679E+01 -0.97045124738E+01  0.85757712628E+01  0.13101134268E+02  0.51100000000E-03 0. -1.
        -11    1    3    3    0    0  0.10075978254E+02  0.60984939139E+01  0.18132142293E+02  0.21621552909E+02  0.51100000000E-03 0.  1.
         12    1    3    3    0    0 -0.77261572955E+01 -0.11523262925E-02  0.13789196530E+02  0.15806183879E+02  0.00000000000E+00 0. -1.
</event>
<event>
 7    1  0.5913457E-013  0.5052886E+02  0.7816164E-02  0.1300439E+00
        -11   -1    0    0    0    0  0.00000000000E+00  0.00000000000E+00  0.45593999997E+02  0.45594000000E+02  0.51100000000E-03 0.  1.
         11   -1    0    0    0    0 -0.00000000000E+00 -0.00000000000E+00 -0.45593999997E+02  0.45594000000E+02  0.51100000000E-03 0. -1.
    9900012    2    1    2    0    0 -0.29100794584E+02  0.20966152199E+02 -0.19150187207E+02  0.50528862608E+02  0.30000008383E+02 0.  0.
        -12    1    1    2    0    0  0.29100794584E+02 -0.20966152199E+02  0.19150187207E+02  0.40659137392E+02  0.00000000000E+00 0.  1.
         11    1    3    3    0    0 -0.10198227670E+02  0.15600529017E+02 -0.13546683569E+02  0.23041115190E+02  0.51100000000E-03 0. -1.
        -11    1    3    3    0    0 -0.12060811391E+02  0.11187682306E+02 -0.78496234029E+01  0.18227561400E+02  0.51100000000E-03 0.  1.
        -12    1    3    3    0    0 -0.68417555232E+01 -0.58220591239E+01  0.22461197653E+01  0.92601860177E+01  0.00000000000E+00 0.  1.
</event>
<event>
 7    1  0.5913457E-013  0.5052886E+02  0.7816164E-02  0.1300439E+00
        -11   -1    0    0    0    0  0.00000000000E+00  0.00000000000E+00  0.45593999997E+02  0.45594000000E+02  0.51100000000E-03 0. -1.
         11   -1    0    0    0    0 -0.00000000000E+00 -0.00000000000E+00 -0.45593999997E+02  0.45594000000E+02  0.51100000000E-03 0.  1.
    9900012    2    1    2    0    0  0.15184237874E+02  0.16158788233E+02  0.34080758562E+02  0.50528860546E+02  0.30000002114E+02 0.  0.
        -12    1    1    2    0    0 -0.15184237874E+02 -0.16158788233E+02 -0.34080758562E+02  0.40659139454E+02  0.00000000000E+00 0.  1.
         11    1    3    3    0    0 -0.46807188057E+01  0.40000587434E+01  0.78458422891E+01  0.99733063713E+01  0.51100000000E-03 0. -1.
        -11    1    3    3    0    0  0.14558715319E+02  0.13792587804E+02  0.81671330262E+01  0.21653954194E+02  0.51100000000E-03 0.  1.
         12    1    3    3    0    0  0.53062413607E+01 -0.16338583144E+01  0.18067783247E+02  0.18901599981E+02  0.00000000000E+00 0. -1.
</event>
<event>
 7    1  0.5913457E-013  0.5052885E+02  0.7816164E-02  0.1300439E+00
        -11   -1    0    0    0    0  0.00000000000E+00  0.00000000000E+00  0.45593999997E+02  0.45594000000E+02  0.51100000000E-03 0.  1.
         11   -1    0    0    0    0 -0.00000000000E+00 -0.00000000000E+00 -0.45593999997E+02  0.45594000000E+02  0.51100000000E-03 0. -1.
    9900012    2    1    2    0    0 -0.52969093507E+01  0.39990215523E+02 -0.50884019082E+01  0.50528850719E+02  0.29999972246E+02 0.  0.
        -12    1    1    2    0    0  0.52969093507E+01 -0.39990215523E+02  0.50884019082E+01  0.40659149281E+02  0.00000000000E+00 0.  1.
         11    1    3    3    0    0 -0.55519846347E+00  0.11313851376E+02 -0.24215461493E+01  0.11583409011E+02  0.51100000000E-03 0.  1.
        -11    1    3    3    0    0  0.31494881752E+01  0.21942171228E+02  0.84656469450E+01  0.23728576283E+02  0.51100000000E-03 0. -1.
        -12    1    3    3    0    0 -0.78911990625E+01  0.67341929187E+01 -0.11132502704E+02  0.15216865425E+02  0.00000000000E+00 0.  1.
</event>
<event>
 7    1  0.5913457E-013  0.5052885E+02  0.7816164E-02  0.1300439E+00
        -11   -1    0    0    0    0  0.00000000000E+00  0.00000000000E+00  0.45593999997E+02  0.45594000000E+02  0.51100000000E-03 0.  1.
         11   -1    0    0    0    0 -0.00000000000E+00 -0.00000000000E+00 -0.45593999997E+02  0.45594000000E+02  0.51100000000E-03 0. -1.
    9900012    2    1    2    0    0 -0.58995624993E+01 -0.39758362085E+02 -0.61346501050E+01  0.50528854346E+02  0.29999983270E+02 0.  0.
        -12    1    1    2    0    0  0.58995624993E+01  0.39758362085E+02  0.61346501050E+01  0.40659145654E+02  0.00000000000E+00 0.  1.
         11    1    3    3    0    0 -0.42962797011E+01 -0.76453854473E+01 -0.38345428010E+01  0.95715023201E+01  0.51100000000E-03 0. -1.
        -11    1    3    3    0    0 -0.92607750592E+00 -0.11564926352E+02  0.11388962288E+02  0.16257724420E+02  0.51100000000E-03 0.  1.
         12    1    3    3    0    0 -0.67720529229E+00 -0.20548050286E+02 -0.13689069592E+02  0.24699627606E+02  0.00000000000E+00 0. -1.
</event>
<event>
 7    1  0.5913457E-013  0.5052885E+02  0.7816164E-02  0.1300439E+00
        -11   -1    0    0    0    0  0.00000000000E+00  0.00000000000E+00  0.45593999997E+02  0.45594000000E+02  0.51100000000E-03 0.  1.
         11   -1    0    0    0    0 -0.00000000000E+00 -0.00000000000E+00 -0.45593999997E+02  0.45594000000E+02  0.51100000000E-03 0. -1.
    9900012    2    1    2    0    0 -0.40414961365E+02 -0.37730130864E+01 -0.23582669574E+01  0.50528854006E+02  0.29999982237E+02 0.  0.
        -12    1    1    2    0    0  0.40414961365E+02  0.37730130864E+01  0.23582669574E+01  0.40659145994E+02  0.00000000000E+00 0.  1.
         11    1    3    3    0    0 -0.78546572504E+01  0.48262016903E+01 -0.10076185717E+01  0.92737888009E+01  0.51100000000E-03 0. -1.
        -11    1    3    3    0    0 -0.15714539259E+02  0.73696157995E+01 -0.42318264314E+01  0.17865227016E+02  0.51100000000E-03 0.  1.
         12    1    3    3    0    0 -0.16845764856E+02 -0.15968830576E+02  0.28811780457E+01  0.23389838189E+02  0.00000000000E+00 0. -1.
</event>
<event>
 7    1  0.5913457E-013  0.5052889E+02  0.7816164E-02  0.1300439E+00
        -11   -1    0    0    0    0  0.00000000000E+00  0.00000000000E+00  0.45593999997E+02  0.45594000000E+02  0.51100000000E-03 0. -1.
         11   -1    0    0    0    0 -0.00000000000E+00 -0.00000000000E+00 -0.45593999997E+02  0.45594000000E+02  0.51100000000E-03 0.  1.
    9900012    2    1    2    0    0  0.22107248310E+02 -0.15730098441E+02  0.30281955830E+02  0.50528889413E+02  0.30000089860E+02 0.  0.
        -12    1    1    2    0    0 -0.22107248310E+02  0.15730098441E+02 -0.30281955830E+02  0.40659110587E+02  0.00000000000E+00 0.  1.
         11    1    3    3    0    0  0.27196239895E+00  0.13307027894E+01 -0.16122131697E+01  0.21080713996E+01  0.51100000000E-03 0. -1.
        -11    1    3    3    0    0  0.18911277197E+00  0.51864147161E+01  0.64914307346E+01  0.83110369083E+01  0.51100000000E-03 0.  1.
         12    1    3    3    0    0  0.21646173139E+02 -0.22247215947E+02  0.25402738266E+02  0.40109781105E+02  0.00000000000E+00 0. -1.
</event>
<event>
 7    1  0.5913457E-013  0.5052886E+02  0.7816164E-02  0.1300439E+00
        -11   -1    0    0    0    0  0.00000000000E+00  0.00000000000E+00  0.45593999997E+02  0.45594000000E+02  0.51100000000E-03 0.  1.
         11   -1    0    0    0    0 -0.00000000000E+00 -0.00000000000E+00 -0.45593999997E+02  0.45594000000E+02  0.51100000000E-03 0. -1.
    9900012    2    1    2    0    0  0.22373221081E+02 -0.24270651845E+02 -0.23738998026E+02  0.50528860931E+02  0.30000003286E+02 0.  0.
        -12    1    1    2    0    0 -0.22373221081E+02  0.24270651845E+02  0.23738998026E+02  0.40659139069E+02  0.00000000000E+00 0.  1.
         11    1    3    3    0    0  0.11886066801E+02 -0.16173469575E+01 -0.81415514317E+00  0.12023196082E+02  0.51100000000E-03 0. -1.
        -11    1    3    3    0    0  0.81628732256E-01 -0.69688194974E+01  0.20201460416E+01  0.72561765915E+01  0.51100000000E-03 0.  1.
         12    1    3    3    0    0  0.10405525548E+02 -0.15684485391E+02 -0.24944988925E+02  0.31249488257E+02  0.00000000000E+00 0. -1.
</event>
<event>
 7    1  0.5913457E-013  0.5052885E+02  0.7816164E-02  0.1300439E+00
        -11   -1    0    0    0    0  0.00000000000E+00  0.00000000000E+00  0.45593999997E+02  0.45594000000E+02  0.51100000000E-03 0. -1.
         11   -1    0    0    0    0 -0.00000000000E+00 -0.00000000000E+00 -0.45593999997E+02  0.45594000000E+02  0.51100000000E-03 0.  1.
    9900012    2    1    2    0    0 -0.37308231962E+01 -0.36829803016E+02  0.16817057077E+02  0.50528845549E+02  0.29999956531E+02 0.  0.
        -12    1    1    2    0    0  0.37308231962E+01  0.36829803016E+02 -0.16817057077E+02  0.40659154451E+02  0.00000000000E+00 0.  1.
         11    1    3    3    0    0 -0.39553067741E+01 -0.92697217459E+01  0.46086702575E+01  0.11082059138E+02  0.51100000000E-03 0. -1.
        -11    1    3    3    0    0 -0.88884894959E+01 -0.35694754585E+01  0.97473871356E+01  0.13665941490E+02  0.51100000000E-03 0.  1.
        -12    1    3    3    0    0  0.91129730737E+01 -0.23990605812E+02  0.24609996841E+01  0.25780844922E+02  0.00000000000E+00 0.  1.
</event>
<event>
 7    1  0.5913457E-013  0.5052885E+02  0.7816164E-02  0.1300439E+00
        -11   -1    0    0    0    0  0.00000000000E+00  0.00000000000E+00  0.45593999997E+02  0.45594000000E+02  0.51100000000E-03 0. -1.
         11   -1    0    0    0    0 -0.00000000000E+00 -0.00000000000E+00 -0.45593999997E+02  0.45594000000E+02  0.51100000000E-03 0.  1.
    9900012    2    1    2    0    0  0.81434042008E+01 -0.11550342611E+02  0.38124020504E+02  0.50528851143E+02  0.29999973533E+02 0.  0.
        -12    1    1    2    0    0 -0.81434042008E+01  0.11550342611E+02 -0.38124020504E+02  0.40659148857E+02  0.00000000000E+00 0.  1.
         11    1    3    3    0    0 -0.20569534581E+01 -0.26076267054E+01  0.18205507831E+02  0.18505979850E+02  0.51100000000E-03 0. -1.
        -11    1    3    3    0    0  0.62147201752E+00 -0.11641466140E+02  0.24413186718E+01  0.11910919296E+02  0.51100000000E-03 0.  1.
         12    1    3    3    0    0  0.95788856413E+01  0.26987502342E+01  0.17477194002E+02  0.20111951997E+02  0.00000000000E+00 0. -1.
</event>
<event>
 7    1  0.5913457E-013  0.5052886E+02  0.7816164E-02  0.1300439E+00
        -11   -1    0    0    0    0  0.00000000000E+00  0.00000000000E+00  0.45593999997E+02  0.45594000000E+02  0.51100000000E-03 0.  1.
         11   -1    0    0    0    0 -0.00000000000E+00 -0.00000000000E+00 -0.45593999997E+02  0.45594000000E+02  0.51100000000E-03 0. -1.
    9900012    2    1    2    0    0 -0.19236506652E+02  0.30906193002E+02 -0.18108836977E+02  0.50528856739E+02  0.29999990545E+02 0.  0.
        -12    1    1    2    0    0  0.19236506652E+02 -0.30906193002E+02  0.18108836977E+02  0.40659143261E+02  0.00000000000E+00 0.  1.
         11    1    3    3    0    0  0.81021187939E-01  0.91163371799E+01 -0.15232034088E+02  0.17751874006E+02  0.51100000000E-03 0. -1.
        -11    1    3    3    0    0 -0.24457021762E+01 -0.97788182054E+00 -0.35630510970E+01  0.44309192467E+01  0.51100000000E-03 0.  1.
         12    1    3    3    0    0 -0.16871825663E+02  0.22767737643E+02  0.68624820826E+00  0.28346063487E+02  0.00000000000E+00 0. -1.
</event>
<event>
 7    1  0.5913457E-013  0.5052884E+02  0.7816164E-02  0.1300439E+00
        -11   -1    0    0    0    0  0.00000000000E+00  0.00000000000E+00  0.45593999997E+02  0.45594000000E+02  0.51100000000E-03 0. -1.
         11   -1    0    0    0    0 -0.00000000000E+00 -0.00000000000E+00 -0.45593999997E+02  0.45594000000E+02  0.51100000000E-03 0.  1.
    9900012    2    1    2    0    0 -0.26664701923E+02 -0.28256646593E+02  0.11988444288E+02  0.50528841109E+02  0.29999943034E+02 0.  0.
        -12    1    1    2    0    0  0.26664701923E+02  0.28256646593E+02 -0.11988444288E+02  0.40659158891E+02  0.00000000000E+00 0.  1.
         11    1    3    3    0    0  0.56329647992E+00 -0.50564010438E+01  0.96647280648E+01  0.10922063142E+02  0.51100000000E-03 0. -1.
        -11    1    3    3    0    0 -0.12309850937E+01  0.16445160929E+01  0.30055972465E+01  0.36405181705E+01  0.51100000000E-03 0.  1.
        -12    1    3    3    0    0 -0.25997013309E+02 -0.24844761642E+02 -0.68188102342E+00  0.35966259797E+02  0.00000000000E+00 0.  1.
</event>
<event>
 7    1  0.5913457E-013  0.5052886E+02  0.7816164E-02  0.1300439E+00
        -11   -1    0    0    0    0  0.00000000000E+00  0.00000000000E+00  0.45593999997E+02  0.45594000000E+02  0.51100000000E-03 0.  1.
         11   -1    0    0    0    0 -0.00000000000E+00 -0.00000000000E+00 -0.45593999997E+02  0.45594000000E+02  0.51100000000E-03 0. -1.
    9900012    2    1    2    0    0  0.32409121683E+02  0.30629633464E+01 -0.24360480483E+02  0.50528856845E+02  0.29999990866E+02 0.  0.
        -12    1    1    2    0    0 -0.32409121683E+02 -0.30629633464E+01  0.24360480483E+02  0.40659143155E+02  0.00000000000E+00 0.  1.
         11    1    3    3    0    0  0.39296793598E+01  0.24497496700E+00 -0.72256077288E+01  0.82287179996E+01  0.51100000000E-03 0. -1.
        -11    1    3    3    0    0 -0.37330033760E+01  0.46390586895E+01 -0.51810183045E+01  0.78929798342E+01  0.51100000000E-03 0.  1.
        -12    1    3    3    0    0  0.32212445700E+02 -0.18210703101E+01 -0.11953854450E+02  0.34407159011E+02  0.00000000000E+00 0.  1.
</event>
<event>
 7    1  0.5913457E-013  0.5052886E+02  0.7816164E-02  0.1300439E+00
        -11   -1    0    0    0    0  0.00000000000E+00  0.00000000000E+00  0.45593999997E+02  0.45594000000E+02  0.51100000000E-03 0.  1.
         11   -1    0    0    0    0 -0.00000000000E+00 -0.00000000000E+00 -0.45593999997E+02  0.45594000000E+02  0.51100000000E-03 0. -1.
    9900012    2    1    2    0    0  0.38761640477E+02  0.10922076349E+02 -0.56043715252E+01  0.50528861981E+02  0.30000006478E+02 0.  0.
        -12    1    1    2    0    0 -0.38761640477E+02 -0.10922076349E+02  0.56043715252E+01  0.40659138019E+02  0.00000000000E+00 0.  1.
         11    1    3    3    0    0  0.23100628915E+02  0.29274371681E+00 -0.84446936778E+00  0.23117912621E+02  0.51100000000E-03 0. -1.
        -11    1    3    3    0    0 -0.34072080207E+01 -0.63340165761E+00  0.23087291303E+01  0.41641919521E+01  0.51100000000E-03 0.  1.
         12    1    3    3    0    0  0.19068219582E+02  0.11262734290E+02 -0.70686312876E+01  0.23246757409E+02  0.00000000000E+00 0. -1.
</event>
<event>
 7    1  0.5913457E-013  0.5052885E+02  0.7816164E-02  0.1300439E+00
        -11   -1    0    0    0    0  0.00000000000E+00  0.00000000000E+00  0.45593999997E+02  0.45594000000E+02  0.51100000000E-03 0. -1.
         11   -1    0    0    0    0 -0.00000000000E+00 -0.00000000000E+00 -0.45593999997E+02  0.45594000000E+02  0.51100000000E-03 0.  1.
    9900012    2    1    2    0    0 -0.23804018554E+02  0.80874119066E+01  0.31955104673E+02  0.50528852870E+02  0.29999978782E+02 0.  0.
        -12    1    1    2    0    0  0.23804018554E+02 -0.80874119066E+01 -0.31955104673E+02  0.40659147130E+02  0.00000000000E+00 0.  1.
         11    1    3    3    0    0 -0.17160406712E+02  0.85031184406E+01  0.33830730645E+02  0.38875453926E+02  0.51100000000E-03 0. -1.
        -11    1    3    3    0    0 -0.10659309308E+01  0.28933928659E+01  0.23810635024E+01  0.38958175893E+01  0.51100000000E-03 0.  1.
        -12    1    3    3    0    0 -0.55776809112E+01 -0.33090993999E+01 -0.42566894738E+01  0.77575813539E+01  0.00000000000E+00 0.  1.
</event>
<event>
 7    1  0.5913457E-013  0.5052886E+02  0.7816164E-02  0.1300439E+00
        -11   -1    0    0    0    0  0.00000000000E+00  0.00000000000E+00  0.45593999997E+02  0.45594000000E+02  0.51100000000E-03 0.  1.
         11   -1    0    0    0    0 -0.00000000000E+00 -0.00000000000E+00 -0.45593999997E+02  0.45594000000E+02  0.51100000000E-03 0. -1.
    9900012    2    1    2    0    0  0.34268842244E-01 -0.12253818256E+02 -0.38768648627E+02  0.50528863849E+02  0.30000012154E+02 0.  0.
        -12    1    1    2    0    0 -0.34268842244E-01  0.12253818256E+02  0.38768648627E+02  0.40659136151E+02  0.00000000000E+00 0.  1.
         11    1    3    3    0    0 -0.38295604643E+01 -0.54274711316E+01 -0.10921518214E+02  0.12782900163E+02  0.51100000000E-03 0. -1.
        -11    1    3    3    0    0 -0.66169462420E+01 -0.74973733167E+01 -0.24907828329E+02  0.26840165732E+02  0.51100000000E-03 0.  1.
        -12    1    3    3    0    0  0.10480775548E+02  0.67102619269E+00 -0.29393020850E+01  0.10905797953E+02  0.00000000000E+00 0.  1.
</event>
<event>
 7    1  0.5913457E-013  0.5052886E+02  0.7816164E-02  0.1300439E+00
        -11   -1    0    0    0    0  0.00000000000E+00  0.00000000000E+00  0.45593999997E+02  0.45594000000E+02  0.51100000000E-03 0.  1.
         11   -1    0    0    0    0 -0.00000000000E+00 -0.00000000000E+00 -0.45593999997E+02  0.45594000000E+02  0.51100000000E-03 0. -1.
    9900012    2    1    2    0    0 -0.32936336155E+02 -0.19416466382E+02  0.13833450568E+02  0.50528858830E+02  0.29999996900E+02 0.  0.
        -12    1    1    2    0    0  0.32936336155E+02  0.19416466382E+02 -0.13833450568E+02  0.40659141170E+02  0.00000000000E+00 0.  1.
         11    1    3    3    0    0 -0.40345745089E+01 -0.10981252656E+02  0.20418269474E+01  0.11875805611E+02  0.51100000000E-03 0. -1.
        -11    1    3    3    0    0 -0.85322772781E+01  0.47092255634E+01  0.10574107153E+02  0.14380135719E+02  0.51100000000E-03 0.  1.
         12    1    3    3    0    0 -0.20369484368E+02 -0.13144439289E+02  0.12175164681E+01  0.24272917500E+02  0.00000000000E+00 0. -1.
</event>
<event>
 7    1  0.5913457E-013  0.5052884E+02  0.7816164E-02  0.1300439E+00
        -11   -1    0    0    0    0  0.00000000000E+00  0.00000000000E+00  0.45593999997E+02  0.45594000000E+02  0.51100000000E-03 0. -1.
         11   -1    0    0    0    0 -0.00000000000E+00 -0.00000000000E+00 -0.45593999997E+02  0.45594000000E+02  0.51100000000E-03 0.  1.
    9900012    2    1    2    0    0 -0.70708145408E+00  0.24874402413E+02  0.32154800519E+02  0.50528842901E+02  0.29999948481E+02 0.  0.
        -12    1    1    2    0    0  0.70708145408E+00 -0.24874402413E+02 -0.32154800519E+02  0.40659157099E+02  0.00000000000E+00 0.  1.
         11    1    3    3    0    0  0.28489065914E+01  0.13750561146E+02  0.10289314408E+02  0.17408738950E+02  0.51100000000E-03 0.  1.
        -11    1    3    3    0    0  0.27733095679E+01 -0.35600584333E+01 -0.15450653061E+01  0.47699569253E+01  0.51100000000E-03 0. -1.
         12    1    3    3    0    0 -0.63292976134E+01  0.14683899700E+02  0.23410551417E+02  0.28350147025E+02  0.00000000000E+00 0. -1.
</event>
<event>
 7    1  0.5913457E-013  0.5052886E+02  0.7816164E-02  0.1300439E+00
        -11   -1    0    0    0    0  0.00000000000E+00  0.00000000000E+00  0.45593999997E+02  0.45594000000E+02  0.51100000000E-03 0. -1.
         11   -1    0    0    0    0 -0.00000000000E+00 -0.00000000000E+00 -0.45593999997E+02  0.45594000000E+02  0.51100000000E-03 0.  1.
    9900012    2    1    2    0    0  0.21766620873E+02 -0.32343369311E+02  0.11544978788E+02  0.50528857636E+02  0.29999993269E+02 0.  0.
        -12    1    1    2    0    0 -0.21766620873E+02  0.32343369311E+02 -0.11544978788E+02  0.40659142364E+02  0.00000000000E+00 0.  1.
         11    1    3    3    0    0  0.54592429928E+01 -0.15302208714E+02  0.75160285564E+01  0.17901162284E+02  0.51100000000E-03 0. -1.
        -11    1    3    3    0    0  0.19669479846E+02 -0.18161963317E+02 -0.62327125904E+00  0.26779354291E+02  0.51100000000E-03 0.  1.
        -12    1    3    3    0    0 -0.33621019656E+01  0.11208027204E+01  0.46522214904E+01  0.58483410606E+01  0.00000000000E+00 0.  1.
</event>
<event>
 7    1  0.5913457E-013  0.5052886E+02  0.7816164E-02  0.1300439E+00
        -11   -1    0    0    0    0  0.00000000000E+00  0.00000000000E+00  0.45593999997E+02  0.45594000000E+02  0.51100000000E-03 0.  1.
         11   -1    0    0    0    0 -0.00000000000E+00 -0.00000000000E+00 -0.45593999997E+02  0.45594000000E+02  0.51100000000E-03 0. -1.
    9900012    2    1    2    0    0  0.10898907277E+02 -0.17879191959E+02 -0.34852741407E+02  0.50528864882E+02  0.30000015297E+02 0.  0.
        -12    1    1    2    0    0 -0.10898907277E+02  0.17879191959E+02  0.34852741407E+02  0.40659135118E+02  0.00000000000E+00 0.  1.
         11    1    3    3    0    0  0.13877207300E+02 -0.20145681528E+02 -0.21164224024E+02  0.32347329805E+02  0.51100000000E-03 0.  1.
        -11    1    3    3    0    0  0.27390276178E+01 -0.45840076701E+00 -0.10923172548E+02  0.11270674440E+02  0.51100000000E-03 0. -1.
        -12    1    3    3    0    0 -0.57173276406E+01  0.27248903368E+01 -0.27653448345E+01  0.69108606375E+01  0.00000000000E+00 0.  1.
</event>
<event>
 7    1  0.5913457E-013  0.5052886E+02  0.7816164E-02  0.1300439E+00
        -11   -1    0    0    0    0  0.00000000000E+00  0.00000000000E+00  0.45593999997E+02  0.45594000000E+02  0.51100000000E-03 0.  1.
         11   -1    0    0    0    0 -0.00000000000E+00 -0.00000000000E+00 -0.45593999997E+02  0.45594000000E+02  0.51100000000E-03 0. -1.
    9900012    2    1    2    0    0 -0.23918096299E+02  0.28021015071E+01 -0.32760319646E+02  0.50528860232E+02  0.30000001160E+02 0.  0.
        -12    1    1    2    0    0  0.23918096299E+02 -0.28021015071E+01  0.32760319646E+02  0.40659139768E+02  0.00000000000E+00 0.  1.
         11    1    3    3    0    0 -0.60381263601E+01  0.26686805799E+01  0.17912756699E+01  0.68402846991E+01  0.51100000000E-03 0. -1.
        -11    1    3    3    0    0 -0.11010655809E+02  0.38055688499E+01 -0.42482842232E+01  0.12400194140E+02  0.51100000000E-03 0.  1.
         12    1    3    3    0    0 -0.68693141298E+01 -0.36721479227E+01 -0.30303311093E+02  0.31288381393E+02  0.00000000000E+00 0. -1.
</event>
<event>
 7    1  0.5913457E-013  0.5052886E+02  0.7816164E-02  0.1300439E+00
        -11   -1    0    0    0    0  0.00000000000E+00  0.00000000000E+00  0.45593999997E+02  0.45594000000E+02  0.51100000000E-03 0.  1.
         11   -1    0    0    0    0 -0.00000000000E+00 -0.00000000000E+00 -0.45593999997E+02  0.45594000000E+02  0.51100000000E-03 0. -1.
    9900012    2    1    2    0    0 -0.17700939212E+02 -0.36603853938E+02  0.93971315895E-02  0.50528862523E+02  0.30000008125E+02 0.  0.
        -12    1    1    2    0    0  0.17700939212E+02  0.36603853938E+02 -0.93971315895E-02  0.40659137477E+02  0.00000000000E+00 0.  1.
         11    1    3    3    0    0  0.15662038116E+01 -0.10093628846E+02  0.42328679381E+01  0.11056740428E+02  0.51100000000E-03 0. -1.
        -11    1    3    3    0    0 -0.47788899421E+00 -0.11936332595E+01  0.61493632728E+01  0.62823408990E+01  0.51100000000E-03 0.  1.
         12    1    3    3    0    0 -0.18789254029E+02 -0.25316591832E+02 -0.10372834079E+02  0.33189781196E+02  0.00000000000E+00 0. -1.
</event>
<event>
 7    1  0.5913457E-013  0.5052886E+02  0.7816164E-02  0.1300439E+00
        -11   -1    0    0    0    0  0.00000000000E+00  0.00000000000E+00  0.45593999997E+02  0.45594000000E+02  0.51100000000E-03 0.  1.
         11   -1    0    0    0    0 -0.00000000000E+00 -0.00000000000E+00 -0.45593999997E+02  0.45594000000E+02  0.51100000000E-03 0. -1.
    9900012    2    1    2    0    0 -0.24533272086E+02  0.91809195527E+01 -0.31096546171E+02  0.50528857033E+02  0.29999991436E+02 0.  0.
        -12    1    1    2    0    0  0.24533272086E+02 -0.91809195527E+01  0.31096546171E+02  0.40659142967E+02  0.00000000000E+00 0.  1.
         11    1    3    3    0    0 -0.86981585259E+01  0.76305069864E+01 -0.32603508747E+01  0.12021334647E+02  0.51100000000E-03 0. -1.
        -11    1    3    3    0    0 -0.16911230372E+02  0.75413198207E+01 -0.13447699830E+02  0.22884532949E+02  0.51100000000E-03 0.  1.
        -12    1    3    3    0    0  0.10761168125E+01 -0.59909072544E+01 -0.14388495467E+02  0.15622989436E+02  0.00000000000E+00 0.  1.
</event>
<event>
 7    1  0.5913457E-013  0.5052898E+02  0.7816164E-02  0.1300438E+00
        -11   -1    0    0    0    0  0.00000000000E+00  0.00000000000E+00  0.45593999997E+02  0.45594000000E+02  0.51100000000E-03 0. -1.
         11   -1    0    0    0    0 -0.00000000000E+00 -0.00000000000E+00 -0.45593999997E+02  0.45594000000E+02  0.51100000000E-03 0.  1.
    9900012    2    1    2    0    0 -0.20278902762E+02  0.18238133976E+02  0.30154472764E+02  0.50528983093E+02  0.30000374609E+02 0.  0.
        -12    1    1    2    0    0  0.20278902762E+02 -0.18238133976E+02 -0.30154472764E+02  0.40659016907E+02  0.00000000000E+00 0.  1.
         11    1    3    3    0    0 -0.40792684171E+01  0.36627560473E+00  0.10857473956E+02  0.11604280659E+02  0.51100000000E-03 0. -1.
        -11    1    3    3    0    0 -0.13943156063E+02 -0.16041439088E+01  0.99505975468E+01  0.17204629332E+02  0.51100000000E-03 0.  1.
        -12    1    3    3    0    0 -0.22564782820E+01  0.19476002280E+02  0.93464012610E+01  0.21720073102E+02  0.00000000000E+00 0.  1.
</event>
<event>
 7    1  0.5913457E-013  0.5052886E+02  0.7816164E-02  0.1300439E+00
        -11   -1    0    0    0    0  0.00000000000E+00  0.00000000000E+00  0.45593999997E+02  0.45594000000E+02  0.51100000000E-03 0.  1.
         11   -1    0    0    0    0 -0.00000000000E+00 -0.00000000000E+00 -0.45593999997E+02  0.45594000000E+02  0.51100000000E-03 0. -1.
    9900012    2    1    2    0    0 -0.20374818835E+02  0.87387557294E+01 -0.34083227892E+02  0.50528861817E+02  0.30000005979E+02 0.  0.
        -12    1    1    2    0    0  0.20374818835E+02 -0.87387557294E+01  0.34083227892E+02  0.40659138183E+02  0.00000000000E+00 0.  1.
         11    1    3    3    0    0 -0.29056999472E+01 -0.10884897372E+01 -0.65498243289E+01  0.72476272732E+01  0.51100000000E-03 0. -1.
        -11    1    3    3    0    0 -0.24553080357E+02  0.62313912253E+01 -0.19354409655E+02  0.31879102323E+02  0.51100000000E-03 0.  1.
        -12    1    3    3    0    0  0.70839614688E+01  0.35958542413E+01 -0.81789939083E+01  0.11402132220E+02  0.00000000000E+00 0.  1.
</event>
<event>
 7    1  0.5913457E-013  0.5052888E+02  0.7816164E-02  0.1300439E+00
        -11   -1    0    0    0    0  0.00000000000E+00  0.00000000000E+00  0.45593999997E+02  0.45594000000E+02  0.51100000000E-03 0.  1.
         11   -1    0    0    0    0 -0.00000000000E+00 -0.00000000000E+00 -0.45593999997E+02  0.45594000000E+02  0.51100000000E-03 0. -1.
    9900012    2    1    2    0    0  0.16854066786E+02  0.16346573321E+02 -0.33194788112E+02  0.50528880674E+02  0.30000063297E+02 0.  0.
        -12    1    1    2    0    0 -0.16854066786E+02 -0.16346573321E+02  0.33194788112E+02  0.40659119326E+02  0.00000000000E+00 0.  1.
         11    1    3    3    0    0 -0.98049574985E+00  0.11050388857E+02 -0.38327338720E+01  0.11737219219E+02  0.51100000000E-03 0. -1.
        -11    1    3    3    0    0  0.83848251496E+01 -0.85858194879E+00 -0.12742301494E+01  0.85244424151E+01  0.51100000000E-03 0.  1.
         12    1    3    3    0    0  0.94497373866E+01  0.61547664130E+01 -0.28087824090E+02  0.30267219040E+02  0.00000000000E+00 0. -1.
</event>
<event>
 7    1  0.5913457E-013  0.5052885E+02  0.7816164E-02  0.1300439E+00
        -11   -1    0    0    0    0  0.00000000000E+00  0.00000000000E+00  0.45593999997E+02  0.45594000000E+02  0.51100000000E-03 0.  1.
         11   -1    0    0    0    0 -0.00000000000E+00 -0.00000000000E+00 -0.45593999997E+02  0.45594000000E+02  0.51100000000E-03 0. -1.
    9900012    2    1    2    0    0 -0.92461809317E+01  0.56475192595E+01 -0.39189027232E+02  0.50528853538E+02  0.29999980815E+02 0.  0.
        -12    1    1    2    0    0  0.92461809317E+01 -0.56475192595E+01  0.39189027232E+02  0.40659146462E+02  0.00000000000E+00 0.  1.
         11    1    3    3    0    0  0.63208738001E+01 -0.83427612023E-01 -0.92518302620E+01  0.11205211699E+02  0.51100000000E-03 0. -1.
        -11    1    3    3    0    0  0.33524972533E+01  0.10528326275E+01  0.10267567520E+00  0.35154284135E+01  0.51100000000E-03 0.  1.
         12    1    3    3    0    0 -0.18919551985E+02  0.46781142440E+01 -0.30039872645E+02  0.35808213426E+02  0.00000000000E+00 0. -1.
</event>
<event>
 7    1  0.5913457E-013  0.5052886E+02  0.7816164E-02  0.1300439E+00
        -11   -1    0    0    0    0  0.00000000000E+00  0.00000000000E+00  0.45593999997E+02  0.45594000000E+02  0.51100000000E-03 0. -1.
         11   -1    0    0    0    0 -0.00000000000E+00 -0.00000000000E+00 -0.45593999997E+02  0.45594000000E+02  0.51100000000E-03 0.  1.
    9900012    2    1    2    0    0 -0.31380735038E+02 -0.25583303800E+02 -0.37296213511E+01  0.50528855392E+02  0.29999986450E+02 0.  0.
        -12    1    1    2    0    0  0.31380735038E+02  0.25583303800E+02  0.37296213511E+01  0.40659144608E+02  0.00000000000E+00 0.  1.
         11    1    3    3    0    0 -0.24847353098E+02 -0.50214815955E+01 -0.64518022009E+01  0.26157828375E+02  0.51100000000E-03 0. -1.
        -11    1    3    3    0    0 -0.59022923196E+01 -0.31432562104E+01  0.17583769481E+01  0.69144055408E+01  0.51100000000E-03 0.  1.
        -12    1    3    3    0    0 -0.63108961951E+00 -0.17418565994E+02  0.96380390176E+00  0.17456621476E+02  0.00000000000E+00 0.  1.
</event>
<event>
 7    1  0.5913457E-013  0.5052885E+02  0.7816164E-02  0.1300439E+00
        -11   -1    0    0    0    0  0.00000000000E+00  0.00000000000E+00  0.45593999997E+02  0.45594000000E+02  0.51100000000E-03 0. -1.
         11   -1    0    0    0    0 -0.00000000000E+00 -0.00000000000E+00 -0.45593999997E+02  0.45594000000E+02  0.51100000000E-03 0.  1.
    9900012    2    1    2    0    0 -0.11789335084E+02 -0.38063820580E+02 -0.80822949154E+01  0.50528851584E+02  0.29999974874E+02 0.  0.
        -12    1    1    2    0    0  0.11789335084E+02  0.38063820580E+02  0.80822949154E+01  0.40659148416E+02  0.00000000000E+00 0.  1.
         11    1    3    3    0    0 -0.43776897279E+01 -0.18455262559E+02 -0.28670974668E+01  0.19182834295E+02  0.51100000000E-03 0.  1.
        -11    1    3    3    0    0 -0.47395703307E+01 -0.23445190835E+02  0.54685419702E+00  0.23925708975E+02  0.51100000000E-03 0. -1.
        -12    1    3    3    0    0 -0.26720750256E+01  0.38366328138E+01 -0.57620516456E+01  0.74203083128E+01  0.00000000000E+00 0.  1.
</event>
<event>
 7    1  0.5913457E-013  0.5052887E+02  0.7816164E-02  0.1300439E+00
        -11   -1    0    0    0    0  0.00000000000E+00  0.00000000000E+00  0.45593999997E+02  0.45594000000E+02  0.51100000000E-03 0.  1.
         11   -1    0    0    0    0 -0.00000000000E+00 -0.00000000000E+00 -0.45593999997E+02  0.45594000000E+02  0.51100000000E-03 0. -1.
    9900012    2    1    2    0    0 -0.92271208078E+01 -0.78930204066E+01 -0.38803677924E+02  0.50528868800E+02  0.30000027204E+02 0.  0.
        -12    1    1    2    0    0  0.92271208078E+01  0.78930204066E+01  0.38803677924E+02  0.40659131200E+02  0.00000000000E+00 0.  1.
         11    1    3    3    0    0  0.23650190628E+01 -0.86025134781E+01 -0.75864986278E+01  0.11711170522E+02  0.51100000000E-03 0. -1.
        -11    1    3    3    0    0  0.19297953864E+01 -0.25650764725E+01  0.12891587956E+01  0.34591412525E+01  0.51100000000E-03 0.  1.
         12    1    3    3    0    0 -0.13521935257E+02  0.32745695440E+01 -0.32506338091E+02  0.35358557025E+02  0.00000000000E+00 0. -1.
</event>
<event>
 7    1  0.5913457E-013  0.5052886E+02  0.7816164E-02  0.1300439E+00
        -11   -1    0    0    0    0  0.00000000000E+00  0.00000000000E+00  0.45593999997E+02  0.45594000000E+02  0.51100000000E-03 0. -1.
         11   -1    0    0    0    0 -0.00000000000E+00 -0.00000000000E+00 -0.45593999997E+02  0.45594000000E+02  0.51100000000E-03 0.  1.
    9900012    2    1    2    0    0 -0.42318147547E+01 -0.21771011637E+02  0.34077563606E+02  0.50528861481E+02  0.30000004957E+02 0.  0.
        -12    1    1    2    0    0  0.42318147547E+01  0.21771011637E+02 -0.34077563606E+02  0.40659138519E+02  0.00000000000E+00 0.  1.
         11    1    3    3    0    0 -0.15895041421E+01  0.31063544339E+01  0.77731456062E+01  0.85204315714E+01  0.51100000000E-03 0. -1.
        -11    1    3    3    0    0  0.32486740438E+01  0.26082944748E+01  0.12397218227E+01  0.43467221638E+01  0.51100000000E-03 0.  1.
         12    1    3    3    0    0 -0.58909846564E+01 -0.27485660546E+02  0.25064696177E+02  0.37661707746E+02  0.00000000000E+00 0. -1.
</event>
<event>
 7    1  0.5913457E-013  0.5052886E+02  0.7816164E-02  0.1300439E+00
        -11   -1    0    0    0    0  0.00000000000E+00  0.00000000000E+00  0.45593999997E+02  0.45594000000E+02  0.51100000000E-03 0.  1.
         11   -1    0    0    0    0 -0.00000000000E+00 -0.00000000000E+00 -0.45593999997E+02  0.45594000000E+02  0.51100000000E-03 0. -1.
    9900012    2    1    2    0    0  0.27184280158E+02 -0.24749307671E+02 -0.17368147699E+02  0.50528857457E+02  0.29999992725E+02 0.  0.
        -12    1    1    2    0    0 -0.27184280158E+02  0.24749307671E+02  0.17368147699E+02  0.40659142543E+02  0.00000000000E+00 0.  1.
         11    1    3    3    0    0  0.44124587522E+01 -0.59055866242E+01 -0.74187469128E+01  0.10458659170E+02  0.51100000000E-03 0. -1.
        -11    1    3    3    0    0 -0.32936562287E+01 -0.81139587028E+01 -0.79241182489E+01  0.11810002010E+02  0.51100000000E-03 0.  1.
         12    1    3    3    0    0  0.26065477634E+02 -0.10729762344E+02 -0.20252825372E+01  0.28260196277E+02  0.00000000000E+00 0. -1.
</event>
<event>
 7    1  0.5913457E-013  0.5052886E+02  0.7816164E-02  0.1300439E+00
        -11   -1    0    0    0    0  0.00000000000E+00  0.00000000000E+00  0.45593999997E+02  0.45594000000E+02  0.51100000000E-03 0. -1.
         11   -1    0    0    0    0 -0.00000000000E+00 -0.00000000000E+00 -0.45593999997E+02  0.45594000000E+02  0.51100000000E-03 0.  1.
    9900012    2    1    2    0    0 -0.13951361748E+02 -0.34238298671E+02  0.16919334272E+02  0.50528862494E+02  0.30000008038E+02 0.  0.
        -12    1    1    2    0    0  0.13951361748E+02  0.34238298671E+02 -0.16919334272E+02  0.40659137506E+02  0.00000000000E+00 0.  1.
         11    1    3    3    0    0 -0.13488407818E+02 -0.15608392996E+02  0.82910672311E+01  0.22232878209E+02  0.51100000000E-03 0. -1.
        -11    1    3    3    0    0 -0.65926900917E+01 -0.18172033589E+02  0.22891253329E+01  0.19466033558E+02  0.51100000000E-03 0.  1.
        -12    1    3    3    0    0  0.61297361617E+01 -0.45787208536E+00  0.63391417080E+01  0.88299507276E+01  0.00000000000E+00 0.  1.
</event>
<event>
 7    1  0.5913457E-013  0.5052886E+02  0.7816164E-02  0.1300439E+00
        -11   -1    0    0    0    0  0.00000000000E+00  0.00000000000E+00  0.45593999997E+02  0.45594000000E+02  0.51100000000E-03 0. -1.
         11   -1    0    0    0    0 -0.00000000000E+00 -0.00000000000E+00 -0.45593999997E+02  0.45594000000E+02  0.51100000000E-03 0.  1.
    9900012    2    1    2    0    0  0.39230349666E+02 -0.97927651584E+01  0.42716221467E+01  0.50528864002E+02  0.30000012621E+02 0.  0.
        -12    1    1    2    0    0 -0.39230349666E+02  0.97927651584E+01 -0.42716221467E+01  0.40659135998E+02  0.00000000000E+00 0.  1.
         11    1    3    3    0    0  0.65895863311E+01  0.12436764312E+01  0.12195270040E+01  0.68159097306E+01  0.51100000000E-03 0. -1.
        -11    1    3    3    0    0  0.16455823556E+02  0.16998482288E+01 -0.99992622469E+01  0.19330516254E+02  0.51100000000E-03 0.  1.
        -12    1    3    3    0    0  0.16184939778E+02 -0.12736289818E+02  0.13051357390E+02  0.24382438018E+02  0.00000000000E+00 0.  1.
</event>
<event>
 7    1  0.5913457E-013  0.5052886E+02  0.7816164E-02  0.1300439E+00
        -11   -1    0    0    0    0  0.00000000000E+00  0.00000000000E+00  0.45593999997E+02  0.45594000000E+02  0.51100000000E-03 0.  1.
         11   -1    0    0    0    0 -0.00000000000E+00 -0.00000000000E+00 -0.45593999997E+02  0.45594000000E+02  0.51100000000E-03 0. -1.
    9900012    2    1    2    0    0  0.34268493526E+02  0.17868079367E+02 -0.12632006332E+02  0.50528862124E+02  0.30000006913E+02 0.  0.
        -12    1    1    2    0    0 -0.34268493526E+02 -0.17868079367E+02  0.12632006332E+02  0.40659137876E+02  0.00000000000E+00 0.  1.
         11    1    3    3    0    0  0.15931130638E+02  0.66780906766E+00 -0.10699617776E+02  0.19202310100E+02  0.51100000000E-03 0. -1.
        -11    1    3    3    0    0  0.10846967943E+02  0.54984468576E+01 -0.95671622009E+01  0.15473209888E+02  0.51100000000E-03 0.  1.
        -12    1    3    3    0    0  0.74903949454E+01  0.11701823441E+02  0.76347736447E+01  0.15853342136E+02  0.00000000000E+00 0.  1.
</event>
<event>
 7    1  0.5913457E-013  0.5052886E+02  0.7816164E-02  0.1300439E+00
        -11   -1    0    0    0    0  0.00000000000E+00  0.00000000000E+00  0.45593999997E+02  0.45594000000E+02  0.51100000000E-03 0. -1.
         11   -1    0    0    0    0 -0.00000000000E+00 -0.00000000000E+00 -0.45593999997E+02  0.45594000000E+02  0.51100000000E-03 0.  1.
    9900012    2    1    2    0    0 -0.44175804067E+01  0.13511363833E+02  0.38093226069E+02  0.50528857835E+02  0.29999993875E+02 0.  0.
        -12    1    1    2    0    0  0.44175804067E+01 -0.13511363833E+02 -0.38093226069E+02  0.40659142165E+02  0.00000000000E+00 0.  1.
         11    1    3    3    0    0  0.64183415832E+01  0.94188641500E+01  0.24047399289E+02  0.26611792938E+02  0.51100000000E-03 0. -1.
        -11    1    3    3    0    0  0.35597763417E+01  0.31908028030E+01  0.22477023679E+01  0.52825558517E+01  0.51100000000E-03 0.  1.
         12    1    3    3    0    0 -0.14395698332E+02  0.90169688039E+00  0.11798124412E+02  0.18634509045E+02  0.00000000000E+00 0. -1.
</event>
<event>
 7    1  0.5913457E-013  0.5052886E+02  0.7816164E-02  0.1300439E+00
        -11   -1    0    0    0    0  0.00000000000E+00  0.00000000000E+00  0.45593999997E+02  0.45594000000E+02  0.51100000000E-03 0. -1.
         11   -1    0    0    0    0 -0.00000000000E+00 -0.00000000000E+00 -0.45593999997E+02  0.45594000000E+02  0.51100000000E-03 0.  1.
    9900012    2    1    2    0    0  0.26621217895E+02  0.26456270550E+02 -0.15637847058E+02  0.50528858909E+02  0.29999997139E+02 0.  0.
        -12    1    1    2    0    0 -0.26621217895E+02 -0.26456270550E+02  0.15637847058E+02  0.40659141091E+02  0.00000000000E+00 0.  1.
         11    1    3    3    0    0  0.93717851640E+01  0.14075025240E+01 -0.10133742332E+02  0.13874586640E+02  0.51100000000E-03 0. -1.
        -11    1    3    3    0    0  0.66289154957E+01 -0.38919198071E+00 -0.61924400384E+01  0.90796643626E+01  0.51100000000E-03 0.  1.
         12    1    3    3    0    0  0.10620517236E+02  0.25437960007E+02  0.68833531266E+00  0.27574607906E+02  0.00000000000E+00 0. -1.
</event>
<event>
 7    1  0.5913457E-013  0.5052886E+02  0.7816164E-02  0.1300439E+00
        -11   -1    0    0    0    0  0.00000000000E+00  0.00000000000E+00  0.45593999997E+02  0.45594000000E+02  0.51100000000E-03 0.  1.
         11   -1    0    0    0    0 -0.00000000000E+00 -0.00000000000E+00 -0.45593999997E+02  0.45594000000E+02  0.51100000000E-03 0. -1.
    9900012    2    1    2    0    0  0.13984266701E+01  0.37683907037E+02 -0.15203058273E+02  0.50528862926E+02  0.30000009351E+02 0.  0.
        -12    1    1    2    0    0 -0.13984266701E+01 -0.37683907037E+02  0.15203058273E+02  0.40659137074E+02  0.00000000000E+00 0.  1.
         11    1    3    3    0    0  0.13551051304E+02  0.18014543025E+02 -0.12954081470E+02  0.25999288045E+02  0.51100000000E-03 0.  1.
        -11    1    3    3    0    0 -0.25000831275E+00  0.31305338978E+01 -0.27095006541E+01  0.41477874460E+01  0.51100000000E-03 0. -1.
        -12    1    3    3    0    0 -0.11902616322E+02  0.16538830114E+02  0.46052385119E+00  0.20381787436E+02  0.00000000000E+00 0.  1.
</event>
<event>
 7    1  0.5913457E-013  0.5052886E+02  0.7816164E-02  0.1300439E+00
        -11   -1    0    0    0    0  0.00000000000E+00  0.00000000000E+00  0.45593999997E+02  0.45594000000E+02  0.51100000000E-03 0. -1.
         11   -1    0    0    0    0 -0.00000000000E+00 -0.00000000000E+00 -0.45593999997E+02  0.45594000000E+02  0.51100000000E-03 0.  1.
    9900012    2    1    2    0    0 -0.11985574345E+02  0.92549358200E+01  0.37734040547E+02  0.50528860248E+02  0.30000001209E+02 0.  0.
        -12    1    1    2    0    0  0.11985574345E+02 -0.92549358200E+01 -0.37734040547E+02  0.40659139752E+02  0.00000000000E+00 0.  1.
         11    1    3    3    0    0  0.74702517114E+01  0.50204213372E+01  0.12337010959E+02  0.15271251773E+02  0.51100000000E-03 0. -1.
        -11    1    3    3    0    0  0.26602096360E+00 -0.21816901901E+01 -0.31887573194E+00  0.22208604711E+01  0.51100000000E-03 0.  1.
        -12    1    3    3    0    0 -0.19721847020E+02  0.64162046729E+01  0.25715905319E+02  0.33036748004E+02  0.00000000000E+00 0.  1.
</event>
<event>
 7    1  0.5913457E-013  0.5052888E+02  0.7816164E-02  0.1300439E+00
        -11   -1    0    0    0    0  0.00000000000E+00  0.00000000000E+00  0.45593999997E+02  0.45594000000E+02  0.51100000000E-03 0. -1.
         11   -1    0    0    0    0 -0.00000000000E+00 -0.00000000000E+00 -0.45593999997E+02  0.45594000000E+02  0.51100000000E-03 0.  1.
    9900012    2    1    2    0    0  0.28326714506E+02  0.22006832076E+02  0.19143163692E+02  0.50528878897E+02  0.30000057895E+02 0.  0.
        -12    1    1    2    0    0 -0.28326714506E+02 -0.22006832076E+02 -0.19143163692E+02  0.40659121103E+02  0.00000000000E+00 0.  1.
         11    1    3    3    0    0  0.27196325978E+01 -0.15366040715E+00  0.51789089862E+01  0.58515905134E+01  0.51100000000E-03 0. -1.
        -11    1    3    3    0    0  0.28729456362E+02  0.16460703602E+02  0.17315354412E+02  0.37365196702E+02  0.51100000000E-03 0.  1.
        -12    1    3    3    0    0 -0.31223744534E+01  0.56997888808E+01 -0.33510997063E+01  0.73120916812E+01  0.00000000000E+00 0.  1.
</event>
<event>
 7    1  0.5913457E-013  0.5052880E+02  0.7816164E-02  0.1300439E+00
        -11   -1    0    0    0    0  0.00000000000E+00  0.00000000000E+00  0.45593999997E+02  0.45594000000E+02  0.51100000000E-03 0.  1.
         11   -1    0    0    0    0 -0.00000000000E+00 -0.00000000000E+00 -0.45593999997E+02  0.45594000000E+02  0.51100000000E-03 0. -1.
    9900012    2    1    2    0    0 -0.20424966031E+02  0.48202651244E+01 -0.34824649608E+02  0.50528801611E+02  0.29999822978E+02 0.  0.
        -12    1    1    2    0    0  0.20424966031E+02 -0.48202651244E+01  0.34824649608E+02  0.40659198389E+02  0.00000000000E+00 0.  1.
         11    1    3    3    0    0 -0.23186525307E+02 -0.83313450205E+00 -0.24854702971E+02  0.34000960706E+02  0.51100000000E-03 0. -1.
        -11    1    3    3    0    0 -0.23987049196E+01  0.11997462254E+01  0.15826810733E+01  0.31141701845E+01  0.51100000000E-03 0.  1.
        -12    1    3    3    0    0  0.51602641954E+01  0.44536534010E+01 -0.11552627711E+02  0.13413670721E+02  0.00000000000E+00 0.  1.
</event>
<event>
 7    1  0.5913457E-013  0.5052888E+02  0.7816164E-02  0.1300439E+00
        -11   -1    0    0    0    0  0.00000000000E+00  0.00000000000E+00  0.45593999997E+02  0.45594000000E+02  0.51100000000E-03 0.  1.
         11   -1    0    0    0    0 -0.00000000000E+00 -0.00000000000E+00 -0.45593999997E+02  0.45594000000E+02  0.51100000000E-03 0. -1.
    9900012    2    1    2    0    0 -0.32229967439E+02  0.19308291303E+02 -0.15542936131E+02  0.50528883216E+02  0.30000071022E+02 0.  0.
        -12    1    1    2    0    0  0.32229967439E+02 -0.19308291303E+02  0.15542936131E+02  0.40659116784E+02  0.00000000000E+00 0.  1.
         11    1    3    3    0    0 -0.15810473654E+02  0.39684638872E+00 -0.79574268677E+01  0.17704496797E+02  0.51100000000E-03 0. -1.
        -11    1    3    3    0    0 -0.15353409915E+02  0.33618701127E+01 -0.55749148523E+00  0.15727051971E+02  0.51100000000E-03 0.  1.
        -12    1    3    3    0    0 -0.10660838691E+01  0.15549574801E+02 -0.70280177776E+01  0.17097334447E+02  0.00000000000E+00 0.  1.
</event>
<event>
 7    1  0.5913457E-013  0.5052886E+02  0.7816164E-02  0.1300439E+00
        -11   -1    0    0    0    0  0.00000000000E+00  0.00000000000E+00  0.45593999997E+02  0.45594000000E+02  0.51100000000E-03 0.  1.
         11   -1    0    0    0    0 -0.00000000000E+00 -0.00000000000E+00 -0.45593999997E+02  0.45594000000E+02  0.51100000000E-03 0. -1.
    9900012    2    1    2    0    0  0.31591754659E+02 -0.12055678076E+02 -0.22578471905E+02  0.50528859209E+02  0.29999998053E+02 0.  0.
        -12    1    1    2    0    0 -0.31591754659E+02  0.12055678076E+02  0.22578471905E+02  0.40659140791E+02  0.00000000000E+00 0.  1.
         11    1    3    3    0    0  0.19554681153E+02 -0.98900058315E+01 -0.14021162873E+02  0.26015202842E+02  0.51100000000E-03 0. -1.
        -11    1    3    3    0    0  0.89902396706E+01  0.37329546059E+01  0.38288721695E+01  0.10460383443E+02  0.51100000000E-03 0.  1.
         12    1    3    3    0    0  0.30468338353E+01 -0.58986268502E+01 -0.12386181201E+02  0.14053272925E+02  0.00000000000E+00 0. -1.
</event>
<event>
 7    1  0.5913457E-013  0.5052886E+02  0.7816164E-02  0.1300439E+00
        -11   -1    0    0    0    0  0.00000000000E+00  0.00000000000E+00  0.45593999997E+02  0.45594000000E+02  0.51100000000E-03 0. -1.
         11   -1    0    0    0    0 -0.00000000000E+00 -0.00000000000E+00 -0.45593999997E+02  0.45594000000E+02  0.51100000000E-03 0.  1.
    9900012    2    1    2    0    0 -0.37993373318E+02  0.92855091868E+01  0.11110749001E+02  0.50528857851E+02  0.29999993924E+02 0.  0.
        -12    1    1    2    0    0  0.37993373318E+02 -0.92855091868E+01 -0.11110749001E+02  0.40659142149E+02  0.00000000000E+00 0.  1.
         11    1    3    3    0    0 -0.14934900070E+01  0.56592912991E+01 -0.20008667422E+01  0.61855928083E+01  0.51100000000E-03 0.  1.
        -11    1    3    3    0    0 -0.23464915824E+02  0.29034286496E+01  0.18697476515E+02  0.30143453697E+02  0.51100000000E-03 0. -1.
         12    1    3    3    0    0 -0.13034967487E+02  0.72278923806E+00 -0.55858607719E+01  0.14199811345E+02  0.00000000000E+00 0. -1.
</event>
<event>
 7    1  0.5913457E-013  0.5052892E+02  0.7816164E-02  0.1300439E+00
        -11   -1    0    0    0    0  0.00000000000E+00  0.00000000000E+00  0.45593999997E+02  0.45594000000E+02  0.51100000000E-03 0.  1.
         11   -1    0    0    0    0 -0.00000000000E+00 -0.00000000000E+00 -0.45593999997E+02  0.45594000000E+02  0.51100000000E-03 0. -1.
    9900012    2    1    2    0    0 -0.64010435304E+01  0.39337304672E+02 -0.80475941077E+01  0.50528921456E+02  0.30000187256E+02 0.  0.
        -12    1    1    2    0    0  0.64010435304E+01 -0.39337304672E+02  0.80475941077E+01  0.40659078544E+02  0.00000000000E+00 0.  1.
         11    1    3    3    0    0 -0.50788020029E+01  0.25389317674E+02 -0.75627390307E+01  0.26974185876E+02  0.51100000000E-03 0. -1.
        -11    1    3    3    0    0 -0.68592348234E+01  0.14308966573E+02 -0.47415143746E+01  0.16561328014E+02  0.51100000000E-03 0.  1.
        -12    1    3    3    0    0  0.55369932959E+01 -0.36097957513E+00  0.42566592977E+01  0.69934075663E+01  0.00000000000E+00 0.  1.
</event>
<event>
 7    1  0.5913457E-013  0.5052888E+02  0.7816164E-02  0.1300439E+00
        -11   -1    0    0    0    0  0.00000000000E+00  0.00000000000E+00  0.45593999997E+02  0.45594000000E+02  0.51100000000E-03 0. -1.
         11   -1    0    0    0    0 -0.00000000000E+00 -0.00000000000E+00 -0.45593999997E+02  0.45594000000E+02  0.51100000000E-03 0.  1.
    9900012    2    1    2    0    0 -0.40399703523E+02 -0.32242280343E+01 -0.32607272488E+01  0.50528880071E+02  0.30000061465E+02 0.  0.
        -12    1    1    2    0    0  0.40399703523E+02  0.32242280343E+01  0.32607272488E+01  0.40659119929E+02  0.00000000000E+00 0.  1.
         11    1    3    3    0    0 -0.63180797966E+01  0.34242036683E+01 -0.31217520313E+01  0.78350902409E+01  0.51100000000E-03 0. -1.
        -11    1    3    3    0    0 -0.98749489526E+00  0.51385855044E+01 -0.49892579071E+01  0.72300001299E+01  0.51100000000E-03 0.  1.
        -12    1    3    3    0    0 -0.33094128831E+02 -0.11787017207E+02  0.48502826895E+01  0.35463789700E+02  0.00000000000E+00 0.  1.
</event>
<event>
 7    1  0.5913457E-013  0.5052886E+02  0.7816164E-02  0.1300439E+00
        -11   -1    0    0    0    0  0.00000000000E+00  0.00000000000E+00  0.45593999997E+02  0.45594000000E+02  0.51100000000E-03 0.  1.
         11   -1    0    0    0    0 -0.00000000000E+00 -0.00000000000E+00 -0.45593999997E+02  0.45594000000E+02  0.51100000000E-03 0. -1.
    9900012    2    1    2    0    0 -0.29492062220E+01 -0.28766713991E+01 -0.40449875691E+02  0.50528862047E+02  0.30000006678E+02 0.  0.
        -12    1    1    2    0    0  0.29492062220E+01  0.28766713991E+01  0.40449875691E+02  0.40659137953E+02  0.00000000000E+00 0.  1.
         11    1    3    3    0    0 -0.61987688966E+01 -0.10252250971E+02 -0.78925679295E+01  0.14346637745E+02  0.51100000000E-03 0. -1.
        -11    1    3    3    0    0  0.59342980899E+00  0.15945175207E+00  0.13131898060E+01  0.14498453459E+01  0.51100000000E-03 0.  1.
         12    1    3    3    0    0  0.26561328656E+01  0.72161278193E+01 -0.33870497567E+02  0.34732378956E+02  0.00000000000E+00 0. -1.
</event>
<event>
 7    1  0.5913457E-013  0.5052887E+02  0.7816164E-02  0.1300439E+00
        -11   -1    0    0    0    0  0.00000000000E+00  0.00000000000E+00  0.45593999997E+02  0.45594000000E+02  0.51100000000E-03 0.  1.
         11   -1    0    0    0    0 -0.00000000000E+00 -0.00000000000E+00 -0.45593999997E+02  0.45594000000E+02  0.51100000000E-03 0. -1.
    9900012    2    1    2    0    0 -0.31853620148E+02 -0.22130087559E+02 -0.12197180365E+02  0.50528866945E+02  0.30000021566E+02 0.  0.
        -12    1    1    2    0    0  0.31853620148E+02  0.22130087559E+02  0.12197180365E+02  0.40659133055E+02  0.00000000000E+00 0.  1.
         11    1    3    3    0    0 -0.63855225647E+01  0.22435150097E+01  0.21382983209E+01  0.70979277253E+01  0.51100000000E-03 0. -1.
        -11    1    3    3    0    0 -0.14839742046E+02 -0.29577514448E+01  0.76900331941E+00  0.15151158502E+02  0.51100000000E-03 0.  1.
         12    1    3    3    0    0 -0.10628355538E+02 -0.21415851124E+02 -0.15104482005E+02  0.28279780718E+02  0.00000000000E+00 0. -1.
</event>
<event>
 7    1  0.5913457E-013  0.5052886E+02  0.7816164E-02  0.1300439E+00
        -11   -1    0    0    0    0  0.00000000000E+00  0.00000000000E+00  0.45593999997E+02  0.45594000000E+02  0.51100000000E-03 0.  1.
         11   -1    0    0    0    0 -0.00000000000E+00 -0.00000000000E+00 -0.45593999997E+02  0.45594000000E+02  0.51100000000E-03 0. -1.
    9900012    2    1    2    0    0 -0.12516044843E+02 -0.29219956203E+02 -0.25351697301E+02  0.50528858654E+02  0.29999996364E+02 0.  0.
        -12    1    1    2    0    0  0.12516044843E+02  0.29219956203E+02  0.25351697301E+02  0.40659141346E+02  0.00000000000E+00 0.  1.
         11    1    3    3    0    0 -0.14811774411E+01 -0.21466647970E+02 -0.98094563564E+01  0.23648177434E+02  0.51100000000E-03 0. -1.
        -11    1    3    3    0    0 -0.44982427764E+00 -0.10273515314E+02 -0.40433055269E+01  0.11049695861E+02  0.51100000000E-03 0.  1.
        -12    1    3    3    0    0 -0.10585043124E+02  0.25202070816E+01 -0.11498935417E+02  0.15830985358E+02  0.00000000000E+00 0.  1.
</event>
<event>
 7    1  0.5913457E-013  0.5052886E+02  0.7816164E-02  0.1300439E+00
        -11   -1    0    0    0    0  0.00000000000E+00  0.00000000000E+00  0.45593999997E+02  0.45594000000E+02  0.51100000000E-03 0. -1.
         11   -1    0    0    0    0 -0.00000000000E+00 -0.00000000000E+00 -0.45593999997E+02  0.45594000000E+02  0.51100000000E-03 0.  1.
    9900012    2    1    2    0    0  0.25312724427E+02  0.14712645513E+01  0.31784700790E+02  0.50528857835E+02  0.29999993874E+02 0.  0.
        -12    1    1    2    0    0 -0.25312724427E+02 -0.14712645513E+01 -0.31784700790E+02  0.40659142165E+02  0.00000000000E+00 0.  1.
         11    1    3    3    0    0  0.13439509726E+02  0.84389247079E+01  0.22982454237E+02  0.27929000607E+02  0.51100000000E-03 0. -1.
        -11    1    3    3    0    0  0.40002455795E+01 -0.45082416506E+01  0.12255975317E+02  0.13657786743E+02  0.51100000000E-03 0.  1.
        -12    1    3    3    0    0  0.78729691217E+01 -0.24594185060E+01 -0.34537287641E+01  0.89420704848E+01  0.00000000000E+00 0.  1.
</event>
<event>
 7    1  0.5913457E-013  0.5052886E+02  0.7816164E-02  0.1300439E+00
        -11   -1    0    0    0    0  0.00000000000E+00  0.00000000000E+00  0.45593999997E+02  0.45594000000E+02  0.51100000000E-03 0.  1.
         11   -1    0    0    0    0 -0.00000000000E+00 -0.00000000000E+00 -0.45593999997E+02  0.45594000000E+02  0.51100000000E-03 0. -1.
    9900012    2    1    2    0    0 -0.37926229070E+02 -0.99175077964E+01 -0.10789341676E+02  0.50528859500E+02  0.29999998937E+02 0.  0.
        -12    1    1    2    0    0  0.37926229070E+02  0.99175077964E+01  0.10789341676E+02  0.40659140500E+02  0.00000000000E+00 0.  1.
         11    1    3    3    0    0 -0.94871754796E+01 -0.10843503351E+02  0.31686233745E+01  0.14752228234E+02  0.51100000000E-03 0. -1.
        -11    1    3    3    0    0 -0.33681980407E+01  0.18302442028E+01 -0.95692398966E+01  0.10308487006E+02  0.51100000000E-03 0.  1.
         12    1    3    3    0    0 -0.25070855550E+02 -0.90424864784E+00 -0.43887251541E+01  0.25468144261E+02  0.00000000000E+00 0. -1.
</event>
<event>
 7    1  0.5913457E-013  0.5052885E+02  0.7816164E-02  0.1300439E+00
        -11   -1    0    0    0    0  0.00000000000E+00  0.00000000000E+00  0.45593999997E+02  0.45594000000E+02  0.51100000000E-03 0. -1.
         11   -1    0    0    0    0 -0.00000000000E+00 -0.00000000000E+00 -0.45593999997E+02  0.45594000000E+02  0.51100000000E-03 0.  1.
    9900012    2    1    2    0    0  0.38590982539E+01 -0.33629451232E+01  0.40335648461E+02  0.50528848804E+02  0.29999966424E+02 0.  0.
        -12    1    1    2    0    0 -0.38590982539E+01  0.33629451232E+01 -0.40335648461E+02  0.40659151196E+02  0.00000000000E+00 0.  1.
         11    1    3    3    0    0 -0.63814454219E+01  0.40099419609E+01  0.62088721156E+01  0.97648642290E+01  0.51100000000E-03 0. -1.
        -11    1    3    3    0    0 -0.13947262557E+01  0.11200160633E+01 -0.15004339517E+01  0.23347375902E+01  0.51100000000E-03 0.  1.
         12    1    3    3    0    0  0.11635269932E+02 -0.84929031475E+01  0.35627210297E+02  0.38429246985E+02  0.00000000000E+00 0. -1.
</event>
<event>
 7    1  0.5913457E-013  0.5052885E+02  0.7816164E-02  0.1300439E+00
        -11   -1    0    0    0    0  0.00000000000E+00  0.00000000000E+00  0.45593999997E+02  0.45594000000E+02  0.51100000000E-03 0.  1.
         11   -1    0    0    0    0 -0.00000000000E+00 -0.00000000000E+00 -0.45593999997E+02  0.45594000000E+02  0.51100000000E-03 0. -1.
    9900012    2    1    2    0    0 -0.19729459863E+02  0.23628387739E+02 -0.26563392327E+02  0.50528854589E+02  0.29999984009E+02 0.  0.
        -12    1    1    2    0    0  0.19729459863E+02 -0.23628387739E+02  0.26563392327E+02  0.40659145411E+02  0.00000000000E+00 0.  1.
         11    1    3    3    0    0 -0.88264707654E+01  0.15952183420E+01 -0.10023187730E+01  0.90252950597E+01  0.51100000000E-03 0. -1.
        -11    1    3    3    0    0 -0.11338215287E+02  0.81119089573E+00 -0.73576469647E+01  0.13540610241E+02  0.51100000000E-03 0.  1.
         12    1    3    3    0    0  0.43522618957E+00  0.21221978501E+02 -0.18203426589E+02  0.27962949289E+02  0.00000000000E+00 0. -1.
</event>
<event>
 7    1  0.5913457E-013  0.5052885E+02  0.7816164E-02  0.1300439E+00
        -11   -1    0    0    0    0  0.00000000000E+00  0.00000000000E+00  0.45593999997E+02  0.45594000000E+02  0.51100000000E-03 0. -1.
         11   -1    0    0    0    0 -0.00000000000E+00 -0.00000000000E+00 -0.45593999997E+02  0.45594000000E+02  0.51100000000E-03 0.  1.
    9900012    2    1    2    0    0  0.38887499175E+02 -0.84119575851E+01  0.83766131461E+01  0.50528852563E+02  0.29999977851E+02 0.  0.
        -12    1    1    2    0    0 -0.38887499175E+02  0.84119575851E+01 -0.83766131461E+01  0.40659147437E+02  0.00000000000E+00 0.  1.
         11    1    3    3    0    0  0.78088260444E+01 -0.21348015416E+01  0.60625465805E+01  0.10113832761E+02  0.51100000000E-03 0. -1.
        -11    1    3    3    0    0  0.25653046920E+02  0.53203659715E+01  0.64104070736E+01  0.26971808050E+02  0.51100000000E-03 0.  1.
        -12    1    3    3    0    0  0.54256262100E+01 -0.11597522015E+02 -0.40963405080E+01  0.13443211752E+02  0.00000000000E+00 0.  1.
</event>
<event>
 7    1  0.5913457E-013  0.5052887E+02  0.7816164E-02  0.1300439E+00
        -11   -1    0    0    0    0  0.00000000000E+00  0.00000000000E+00  0.45593999997E+02  0.45594000000E+02  0.51100000000E-03 0. -1.
         11   -1    0    0    0    0 -0.00000000000E+00 -0.00000000000E+00 -0.45593999997E+02  0.45594000000E+02  0.51100000000E-03 0.  1.
    9900012    2    1    2    0    0 -0.15493909549E+02 -0.61520126932E+01  0.37084454380E+02  0.50528865110E+02  0.30000015989E+02 0.  0.
        -12    1    1    2    0    0  0.15493909549E+02  0.61520126932E+01 -0.37084454380E+02  0.40659134890E+02  0.00000000000E+00 0.  1.
         11    1    3    3    0    0 -0.15426071620E+02 -0.82025882469E+01  0.20112122823E+02  0.26641013950E+02  0.51100000000E-03 0. -1.
        -11    1    3    3    0    0 -0.35954829842E+01 -0.60349605444E+01  0.36685444867E+01  0.79250530329E+01  0.51100000000E-03 0.  1.
        -12    1    3    3    0    0  0.35276450552E+01  0.80855360981E+01  0.13303787071E+02  0.15962798127E+02  0.00000000000E+00 0.  1.
</event>
<event>
 7    1  0.5913457E-013  0.5052887E+02  0.7816164E-02  0.1300439E+00
        -11   -1    0    0    0    0  0.00000000000E+00  0.00000000000E+00  0.45593999997E+02  0.45594000000E+02  0.51100000000E-03 0.  1.
         11   -1    0    0    0    0 -0.00000000000E+00 -0.00000000000E+00 -0.45593999997E+02  0.45594000000E+02  0.51100000000E-03 0. -1.
    9900012    2    1    2    0    0 -0.29120220644E+02  0.25609463985E+02  0.12220190667E+02  0.50528868727E+02  0.30000026981E+02 0.  0.
        -12    1    1    2    0    0  0.29120220644E+02 -0.25609463985E+02 -0.12220190667E+02  0.40659131273E+02  0.00000000000E+00 0.  1.
         11    1    3    3    0    0 -0.19729133005E+02  0.80643744686E+01  0.10051440980E+02  0.23564895304E+02  0.51100000000E-03 0. -1.
        -11    1    3    3    0    0 -0.63581796001E+01  0.81933662562E+01  0.99909110274E+01  0.14400555609E+02  0.51100000000E-03 0.  1.
        -12    1    3    3    0    0 -0.30329080395E+01  0.93517232605E+01 -0.78221613398E+01  0.12563417813E+02  0.00000000000E+00 0.  1.
</event>
<event>
 7    1  0.5913457E-013  0.5052886E+02  0.7816164E-02  0.1300439E+00
        -11   -1    0    0    0    0  0.00000000000E+00  0.00000000000E+00  0.45593999997E+02  0.45594000000E+02  0.51100000000E-03 0.  1.
         11   -1    0    0    0    0 -0.00000000000E+00 -0.00000000000E+00 -0.45593999997E+02  0.45594000000E+02  0.51100000000E-03 0. -1.
    9900012    2    1    2    0    0  0.18406565638E+02  0.35658352548E+02  0.65456784006E+01  0.50528859936E+02  0.30000000261E+02 0.  0.
        -12    1    1    2    0    0 -0.18406565638E+02 -0.35658352548E+02 -0.65456784006E+01  0.40659140064E+02  0.00000000000E+00 0.  1.
         11    1    3    3    0    0 -0.30076273706E+00  0.14894703970E+02 -0.70459476565E+01  0.16479928495E+02  0.51100000000E-03 0. -1.
        -11    1    3    3    0    0 -0.19231149388E+01  0.18225921448E+01 -0.50082049119E+00  0.26964856053E+01  0.51100000000E-03 0.  1.
         12    1    3    3    0    0  0.20630443314E+02  0.18941056433E+02  0.14092446548E+02  0.31352445836E+02  0.00000000000E+00 0. -1.
</event>
<event>
 7    1  0.5913457E-013  0.5052886E+02  0.7816164E-02  0.1300439E+00
        -11   -1    0    0    0    0  0.00000000000E+00  0.00000000000E+00  0.45593999997E+02  0.45594000000E+02  0.51100000000E-03 0.  1.
         11   -1    0    0    0    0 -0.00000000000E+00 -0.00000000000E+00 -0.45593999997E+02  0.45594000000E+02  0.51100000000E-03 0. -1.
    9900012    2    1    2    0    0 -0.86913571124E+01 -0.12084357133E+02 -0.37836417681E+02  0.50528857379E+02  0.29999992488E+02 0.  0.
        -12    1    1    2    0    0  0.86913571124E+01  0.12084357133E+02  0.37836417681E+02  0.40659142621E+02  0.00000000000E+00 0.  1.
         11    1    3    3    0    0  0.19917840989E+01 -0.14127528221E+02 -0.39068112058E+01  0.14792478886E+02  0.51100000000E-03 0.  1.
        -11    1    3    3    0    0 -0.67748493478E+01  0.16149194778E+01 -0.17321813474E+02  0.18669541261E+02  0.51100000000E-03 0. -1.
        -12    1    3    3    0    0 -0.39082918634E+01  0.42825160960E+00 -0.16607793001E+02  0.17066837231E+02  0.00000000000E+00 0.  1.
</event>
<event>
 7    1  0.5913457E-013  0.5052886E+02  0.7816164E-02  0.1300439E+00
        -11   -1    0    0    0    0  0.00000000000E+00  0.00000000000E+00  0.45593999997E+02  0.45594000000E+02  0.51100000000E-03 0. -1.
         11   -1    0    0    0    0 -0.00000000000E+00 -0.00000000000E+00 -0.45593999997E+02  0.45594000000E+02  0.51100000000E-03 0.  1.
    9900012    2    1    2    0    0  0.19493939216E+02  0.19678995279E+02  0.29763893074E+02  0.50528857704E+02  0.29999993478E+02 0.  0.
        -12    1    1    2    0    0 -0.19493939216E+02 -0.19678995279E+02 -0.29763893074E+02  0.40659142296E+02  0.00000000000E+00 0.  1.
         11    1    3    3    0    0  0.12206748893E+01  0.32945276280E+01 -0.43898941497E-01  0.35136714211E+01  0.51100000000E-03 0. -1.
        -11    1    3    3    0    0  0.19819426957E+02  0.12813191040E+02  0.80857282530E+01  0.24947275426E+02  0.51100000000E-03 0.  1.
        -12    1    3    3    0    0 -0.15461626305E+01  0.35712766106E+01  0.21722063762E+02  0.22067910857E+02  0.00000000000E+00 0.  1.
</event>
<event>
 7    1  0.5913457E-013  0.5052886E+02  0.7816164E-02  0.1300439E+00
        -11   -1    0    0    0    0  0.00000000000E+00  0.00000000000E+00  0.45593999997E+02  0.45594000000E+02  0.51100000000E-03 0.  1.
         11   -1    0    0    0    0 -0.00000000000E+00 -0.00000000000E+00 -0.45593999997E+02  0.45594000000E+02  0.51100000000E-03 0. -1.
    9900012    2    1    2    0    0  0.53098966226E+01 -0.37687131294E+02  0.14305619390E+02  0.50528860641E+02  0.30000002404E+02 0.  0.
        -12    1    1    2    0    0 -0.53098966226E+01  0.37687131294E+02 -0.14305619390E+02  0.40659139359E+02  0.00000000000E+00 0.  1.
         11    1    3    3    0    0 -0.16653292445E+01 -0.17501628341E+02  0.14560464235E+02  0.22827339641E+02  0.51100000000E-03 0. -1.
        -11    1    3    3    0    0 -0.15409011891E+01 -0.21221235346E+01  0.61854840679E+01  0.67184818364E+01  0.51100000000E-03 0.  1.
         12    1    3    3    0    0  0.85161270562E+01 -0.18063379418E+02 -0.64403289126E+01  0.20983039163E+02  0.00000000000E+00 0. -1.
</event>
<event>
 7    1  0.5913457E-013  0.5052890E+02  0.7816164E-02  0.1300439E+00
        -11   -1    0    0    0    0  0.00000000000E+00  0.00000000000E+00  0.45593999997E+02  0.45594000000E+02  0.51100000000E-03 0.  1.
         11   -1    0    0    0    0 -0.00000000000E+00 -0.00000000000E+00 -0.45593999997E+02  0.45594000000E+02  0.51100000000E-03 0. -1.
    9900012    2    1    2    0    0  0.16526914086E+02 -0.25681098895E+02 -0.26842224358E+02  0.50528895999E+02  0.30000109879E+02 0.  0.
        -12    1    1    2    0    0 -0.16526914086E+02  0.25681098895E+02  0.26842224358E+02  0.40659104001E+02  0.00000000000E+00 0.  1.
         11    1    3    3    0    0  0.21329444348E+01 -0.15109168810E+02 -0.11909704026E+02  0.19356587621E+02  0.51100000000E-03 0. -1.
        -11    1    3    3    0    0  0.10621948254E+02 -0.12905318778E+02 -0.18893476454E+02  0.25225710897E+02  0.51100000000E-03 0.  1.
        -12    1    3    3    0    0  0.37720213969E+01  0.23333886930E+01  0.39609561215E+01  0.59465974816E+01  0.00000000000E+00 0.  1.
</event>
<event>
 7    1  0.5913457E-013  0.5052886E+02  0.7816164E-02  0.1300439E+00
        -11   -1    0    0    0    0  0.00000000000E+00  0.00000000000E+00  0.45593999997E+02  0.45594000000E+02  0.51100000000E-03 0.  1.
         11   -1    0    0    0    0 -0.00000000000E+00 -0.00000000000E+00 -0.45593999997E+02  0.45594000000E+02  0.51100000000E-03 0. -1.
    9900012    2    1    2    0    0 -0.39008283361E+02  0.29970422297E+01 -0.11069640020E+02  0.50528863720E+02  0.30000011763E+02 0.  0.
        -12    1    1    2    0    0  0.39008283361E+02 -0.29970422297E+01  0.11069640020E+02  0.40659136280E+02  0.00000000000E+00 0.  1.
         11    1    3    3    0    0 -0.22229819717E+01  0.46185675090E+01 -0.96424454213E+01  0.10920145084E+02  0.51100000000E-03 0. -1.
        -11    1    3    3    0    0 -0.19488939250E+01  0.30776373407E+01 -0.25371569546E+01  0.44392797620E+01  0.51100000000E-03 0.  1.
         12    1    3    3    0    0 -0.34836407464E+02 -0.46991626201E+01  0.11099623558E+01  0.35169438875E+02  0.00000000000E+00 0. -1.
</event>
<event>
 7    1  0.5913457E-013  0.5052886E+02  0.7816164E-02  0.1300439E+00
        -11   -1    0    0    0    0  0.00000000000E+00  0.00000000000E+00  0.45593999997E+02  0.45594000000E+02  0.51100000000E-03 0.  1.
         11   -1    0    0    0    0 -0.00000000000E+00 -0.00000000000E+00 -0.45593999997E+02  0.45594000000E+02  0.51100000000E-03 0. -1.
    9900012    2    1    2    0    0 -0.15403647814E+02 -0.36281448768E+02 -0.99774510358E+01  0.50528863021E+02  0.30000009638E+02 0.  0.
        -12    1    1    2    0    0  0.15403647814E+02  0.36281448768E+02  0.99774510358E+01  0.40659136979E+02  0.00000000000E+00 0.  1.
         11    1    3    3    0    0 -0.10760870168E+02 -0.17565559837E+02 -0.70673392922E+01  0.21778257600E+02  0.51100000000E-03 0. -1.
        -11    1    3    3    0    0  0.46709459094E+01 -0.12995600595E+02 -0.87598737574E+01  0.16353554935E+02  0.51100000000E-03 0.  1.
        -12    1    3    3    0    0 -0.93137235559E+01 -0.57202883365E+01  0.58497620138E+01  0.12397050486E+02  0.00000000000E+00 0.  1.
</event>
<event>
 7    1  0.5913457E-013  0.5052886E+02  0.7816164E-02  0.1300439E+00
        -11   -1    0    0    0    0  0.00000000000E+00  0.00000000000E+00  0.45593999997E+02  0.45594000000E+02  0.51100000000E-03 0.  1.
         11   -1    0    0    0    0 -0.00000000000E+00 -0.00000000000E+00 -0.45593999997E+02  0.45594000000E+02  0.51100000000E-03 0. -1.
    9900012    2    1    2    0    0  0.17142617015E+02 -0.19242265238E+02 -0.31448871495E+02  0.50528860709E+02  0.30000002612E+02 0.  0.
        -12    1    1    2    0    0 -0.17142617015E+02  0.19242265238E+02  0.31448871495E+02  0.40659139291E+02  0.00000000000E+00 0.  1.
         11    1    3    3    0    0 -0.93471152700E+00 -0.51260090981E+01 -0.57855077401E+01  0.77859973661E+01  0.51100000000E-03 0. -1.
        -11    1    3    3    0    0  0.20816194773E+02 -0.13536363288E+01 -0.13140585686E+02  0.24654031893E+02  0.51100000000E-03 0.  1.
        -12    1    3    3    0    0 -0.27388662318E+01 -0.12762619811E+02 -0.12522778069E+02  0.18088831450E+02  0.00000000000E+00 0.  1.
</event>
<event>
 7    1  0.5913457E-013  0.5052886E+02  0.7816164E-02  0.1300439E+00
        -11   -1    0    0    0    0  0.00000000000E+00  0.00000000000E+00  0.45593999997E+02  0.45594000000E+02  0.51100000000E-03 0.  1.
         11   -1    0    0    0    0 -0.00000000000E+00 -0.00000000000E+00 -0.45593999997E+02  0.45594000000E+02  0.51100000000E-03 0. -1.
    9900012    2    1    2    0    0  0.15898737622E+02  0.36338990522E+02 -0.89372241876E+01  0.50528855071E+02  0.29999985475E+02 0.  0.
        -12    1    1    2    0    0 -0.15898737622E+02 -0.36338990522E+02  0.89372241876E+01  0.40659144929E+02  0.00000000000E+00 0.  1.
         11    1    3    3    0    0  0.40241479915E+01  0.66625275111E+01 -0.12797737130E+02  0.14978822243E+02  0.51100000000E-03 0. -1.
        -11    1    3    3    0    0  0.59606340903E+01  0.98800332895E+00  0.91038574207E+00  0.61101646293E+01  0.51100000000E-03 0.  1.
         12    1    3    3    0    0  0.59139555402E+01  0.28688459682E+02  0.29501272000E+01  0.29439868199E+02  0.00000000000E+00 0. -1.
</event>
<event>
 7    1  0.5913457E-013  0.5052885E+02  0.7816164E-02  0.1300439E+00
        -11   -1    0    0    0    0  0.00000000000E+00  0.00000000000E+00  0.45593999997E+02  0.45594000000E+02  0.51100000000E-03 0.  1.
         11   -1    0    0    0    0 -0.00000000000E+00 -0.00000000000E+00 -0.45593999997E+02  0.45594000000E+02  0.51100000000E-03 0. -1.
    9900012    2    1    2    0    0  0.33457553217E+02  0.16764542238E+02  0.15896809720E+02  0.50528852161E+02  0.29999976629E+02 0.  0.
        -12    1    1    2    0    0 -0.33457553217E+02 -0.16764542238E+02 -0.15896809720E+02  0.40659147839E+02  0.00000000000E+00 0.  1.
         11    1    3    3    0    0  0.89349914713E+01  0.30226905359E+01 -0.44864206518E+01  0.10445032369E+02  0.51100000000E-03 0. -1.
        -11    1    3    3    0    0  0.37459327996E+01 -0.18799344428E+01 -0.29724092213E+01  0.51382276018E+01  0.51100000000E-03 0.  1.
         12    1    3    3    0    0  0.20776628946E+02  0.15621786145E+02  0.23355639593E+02  0.34945592190E+02  0.00000000000E+00 0. -1.
</event>
<event>
 7    1  0.5913457E-013  0.5052886E+02  0.7816164E-02  0.1300439E+00
        -11   -1    0    0    0    0  0.00000000000E+00  0.00000000000E+00  0.45593999997E+02  0.45594000000E+02  0.51100000000E-03 0.  1.
         11   -1    0    0    0    0 -0.00000000000E+00 -0.00000000000E+00 -0.45593999997E+02  0.45594000000E+02  0.51100000000E-03 0. -1.
    9900012    2    1    2    0    0  0.48241887429E+01  0.38521882249E+02  0.12081285823E+02  0.50528859870E+02  0.30000000060E+02 0.  0.
        -12    1    1    2    0    0 -0.48241887429E+01 -0.38521882249E+02 -0.12081285823E+02  0.40659140130E+02  0.00000000000E+00 0.  1.
         11    1    3    3    0    0  0.45809302012E+01  0.25508527287E+02  0.11096356153E+02  0.28192179873E+02  0.51100000000E-03 0. -1.
        -11    1    3    3    0    0  0.36167300229E+01  0.15351799868E+02  0.50488881123E+01  0.16560488117E+02  0.51100000000E-03 0.  1.
        -12    1    3    3    0    0 -0.33734714811E+01 -0.23384449062E+01 -0.40639584424E+01  0.57761918800E+01  0.00000000000E+00 0.  1.
</event>
<event>
 7    1  0.5913457E-013  0.5052886E+02  0.7816164E-02  0.1300439E+00
        -11   -1    0    0    0    0  0.00000000000E+00  0.00000000000E+00  0.45593999997E+02  0.45594000000E+02  0.51100000000E-03 0. -1.
         11   -1    0    0    0    0 -0.00000000000E+00 -0.00000000000E+00 -0.45593999997E+02  0.45594000000E+02  0.51100000000E-03 0.  1.
    9900012    2    1    2    0    0 -0.18159499724E+02  0.26058089242E+02  0.25384532676E+02  0.50528856571E+02  0.29999990035E+02 0.  0.
        -12    1    1    2    0    0  0.18159499724E+02 -0.26058089242E+02 -0.25384532676E+02  0.40659143429E+02  0.00000000000E+00 0.  1.
         11    1    3    3    0    0  0.31897943283E+01  0.10060614998E+02  0.15341555529E+01  0.10665101758E+02  0.51100000000E-03 0. -1.
        -11    1    3    3    0    0 -0.41026034432E+01  0.45945017527E+01 -0.22578315209E+01  0.65603814527E+01  0.51100000000E-03 0.  1.
         12    1    3    3    0    0 -0.17246690609E+02  0.11402972492E+02  0.26108208644E+02  0.33303373361E+02  0.00000000000E+00 0. -1.
</event>
<event>
 7    1  0.5913457E-013  0.5052886E+02  0.7816164E-02  0.1300439E+00
        -11   -1    0    0    0    0  0.00000000000E+00  0.00000000000E+00  0.45593999997E+02  0.45594000000E+02  0.51100000000E-03 0.  1.
         11   -1    0    0    0    0 -0.00000000000E+00 -0.00000000000E+00 -0.45593999997E+02  0.45594000000E+02  0.51100000000E-03 0. -1.
    9900012    2    1    2    0    0 -0.13878808294E+02 -0.29917712546E+02 -0.23779712855E+02  0.50528860965E+02  0.30000003388E+02 0.  0.
        -12    1    1    2    0    0  0.13878808294E+02  0.29917712546E+02  0.23779712855E+02  0.40659139035E+02  0.00000000000E+00 0.  1.
         11    1    3    3    0    0 -0.62802722408E+01  0.43253176686E+01 -0.34465761630E+01  0.83683379390E+01  0.51100000000E-03 0. -1.
        -11    1    3    3    0    0 -0.70719919745E+00 -0.55356230826E+01 -0.88920396470E+01  0.10498172363E+02  0.51100000000E-03 0.  1.
        -12    1    3    3    0    0 -0.68913368553E+01 -0.28707407132E+02 -0.11441097045E+02  0.31662350663E+02  0.00000000000E+00 0.  1.
</event>
<event>
 7    1  0.5913457E-013  0.5052885E+02  0.7816164E-02  0.1300439E+00
        -11   -1    0    0    0    0  0.00000000000E+00  0.00000000000E+00  0.45593999997E+02  0.45594000000E+02  0.51100000000E-03 0. -1.
         11   -1    0    0    0    0 -0.00000000000E+00 -0.00000000000E+00 -0.45593999997E+02  0.45594000000E+02  0.51100000000E-03 0.  1.
    9900012    2    1    2    0    0  0.38047708986E+02  0.80598458707E+01  0.11856542817E+02  0.50528845039E+02  0.29999954980E+02 0.  0.
        -12    1    1    2    0    0 -0.38047708986E+02 -0.80598458707E+01 -0.11856542817E+02  0.40659154961E+02  0.00000000000E+00 0.  1.
         11    1    3    3    0    0  0.12558421307E+02  0.22469114671E+01  0.34968494855E+01  0.13228397993E+02  0.51100000000E-03 0. -1.
        -11    1    3    3    0    0  0.20574243718E+02 -0.63959230041E+01 -0.29714470897E+00  0.21547520295E+02  0.51100000000E-03 0.  1.
         12    1    3    3    0    0  0.49150439612E+01  0.12208857408E+02  0.86568380409E+01  0.15752926751E+02  0.00000000000E+00 0. -1.
</event>
<event>
 7    1  0.5913457E-013  0.5052886E+02  0.7816164E-02  0.1300439E+00
        -11   -1    0    0    0    0  0.00000000000E+00  0.00000000000E+00  0.45593999997E+02  0.45594000000E+02  0.51100000000E-03 0. -1.
         11   -1    0    0    0    0 -0.00000000000E+00 -0.00000000000E+00 -0.45593999997E+02  0.45594000000E+02  0.51100000000E-03 0.  1.
    9900012    2    1    2    0    0 -0.12817113902E+01  0.19000618379E+02  0.35923522466E+02  0.50528858971E+02  0.29999997328E+02 0.  0.
        -12    1    1    2    0    0  0.12817113902E+01 -0.19000618379E+02 -0.35923522466E+02  0.40659141029E+02  0.00000000000E+00 0.  1.
         11    1    3    3    0    0  0.84184903376E+01  0.75271064280E+01  0.42293234162E+01  0.12058834420E+02  0.51100000000E-03 0. -1.
        -11    1    3    3    0    0 -0.82746465162E+00  0.61203146049E+01  0.12375481594E+01  0.62987676827E+01  0.51100000000E-03 0.  1.
         12    1    3    3    0    0 -0.88727370762E+01  0.53531973459E+01  0.30456650890E+02  0.32171256869E+02  0.00000000000E+00 0. -1.
</event>
<event>
 7    1  0.5913457E-013  0.5052886E+02  0.7816164E-02  0.1300439E+00
        -11   -1    0    0    0    0  0.00000000000E+00  0.00000000000E+00  0.45593999997E+02  0.45594000000E+02  0.51100000000E-03 0.  1.
         11   -1    0    0    0    0 -0.00000000000E+00 -0.00000000000E+00 -0.45593999997E+02  0.45594000000E+02  0.51100000000E-03 0. -1.
    9900012    2    1    2    0    0 -0.21574954239E+02 -0.13000075209E+02 -0.31916849414E+02  0.50528857334E+02  0.29999992352E+02 0.  0.
        -12    1    1    2    0    0  0.21574954239E+02  0.13000075209E+02  0.31916849414E+02  0.40659142666E+02  0.00000000000E+00 0.  1.
         11    1    3    3    0    0 -0.50260255399E+00 -0.18727581965E+01  0.15433441476E+01  0.24782542260E+01  0.51100000000E-03 0.  1.
        -11    1    3    3    0    0 -0.97600420172E+00 -0.42075306464E+01 -0.24678359803E+02  0.25053489600E+02  0.51100000000E-03 0. -1.
         12    1    3    3    0    0 -0.20096347483E+02 -0.69197863663E+01 -0.87818337585E+01  0.22997113508E+02  0.00000000000E+00 0. -1.
</event>
<event>
 7    1  0.5913457E-013  0.5052886E+02  0.7816164E-02  0.1300439E+00
        -11   -1    0    0    0    0  0.00000000000E+00  0.00000000000E+00  0.45593999997E+02  0.45594000000E+02  0.51100000000E-03 0. -1.
         11   -1    0    0    0    0 -0.00000000000E+00 -0.00000000000E+00 -0.45593999997E+02  0.45594000000E+02  0.51100000000E-03 0.  1.
    9900012    2    1    2    0    0 -0.25787085079E+02 -0.29694325382E+02  0.10316932970E+02  0.50528858067E+02  0.29999994582E+02 0.  0.
        -12    1    1    2    0    0  0.25787085079E+02  0.29694325382E+02 -0.10316932970E+02  0.40659141933E+02  0.00000000000E+00 0.  1.
         11    1    3    3    0    0  0.62057266360E+00 -0.82568594721E+01  0.48856204190E+01  0.96140587638E+01  0.51100000000E-03 0. -1.
        -11    1    3    3    0    0  0.20889114265E+01  0.10281935117E+01  0.39649453045E+01  0.45979913413E+01  0.51100000000E-03 0.  1.
         12    1    3    3    0    0 -0.28496569169E+02 -0.22465659422E+02  0.14663672464E+01  0.36316807962E+02  0.00000000000E+00 0. -1.
</event>
<event>
 7    1  0.5913457E-013  0.5052887E+02  0.7816164E-02  0.1300439E+00
        -11   -1    0    0    0    0  0.00000000000E+00  0.00000000000E+00  0.45593999997E+02  0.45594000000E+02  0.51100000000E-03 0.  1.
         11   -1    0    0    0    0 -0.00000000000E+00 -0.00000000000E+00 -0.45593999997E+02  0.45594000000E+02  0.51100000000E-03 0. -1.
    9900012    2    1    2    0    0 -0.21582777469E+02 -0.15091877906E+02 -0.30977144783E+02  0.50528873584E+02  0.30000041746E+02 0.  0.
        -12    1    1    2    0    0  0.21582777469E+02  0.15091877906E+02  0.30977144783E+02  0.40659126416E+02  0.00000000000E+00 0.  1.
         11    1    3    3    0    0 -0.12810187013E+02 -0.87090630374E+01 -0.35900081276E+01  0.15900843654E+02  0.51100000000E-03 0.  1.
        -11    1    3    3    0    0  0.43774496711E+01  0.13590520835E+01 -0.12481116692E+02  0.13296140881E+02  0.51100000000E-03 0. -1.
         12    1    3    3    0    0 -0.13150040128E+02 -0.77418669522E+01 -0.14906019963E+02  0.21331889049E+02  0.00000000000E+00 0. -1.
</event>
<event>
 7    1  0.5913457E-013  0.5052879E+02  0.7816164E-02  0.1300439E+00
        -11   -1    0    0    0    0  0.00000000000E+00  0.00000000000E+00  0.45593999997E+02  0.45594000000E+02  0.51100000000E-03 0.  1.
         11   -1    0    0    0    0 -0.00000000000E+00 -0.00000000000E+00 -0.45593999997E+02  0.45594000000E+02  0.51100000000E-03 0. -1.
    9900012    2    1    2    0    0 -0.12575132040E+02  0.14612880613E+02 -0.35798056748E+02  0.50528793262E+02  0.29999797598E+02 0.  0.
        -12    1    1    2    0    0  0.12575132040E+02 -0.14612880613E+02  0.35798056748E+02  0.40659206738E+02  0.00000000000E+00 0.  1.
         11    1    3    3    0    0 -0.72228674991E+01  0.37786892875E+01 -0.13014170242E+02  0.15356332081E+02  0.51100000000E-03 0. -1.
        -11    1    3    3    0    0 -0.11297270219E+02  0.23622195514E+01 -0.21937259929E+02  0.24788137668E+02  0.51100000000E-03 0.  1.
        -12    1    3    3    0    0  0.59450056784E+01  0.84719717739E+01 -0.84662657767E+00  0.10384323513E+02  0.00000000000E+00 0.  1.
</event>
<event>
 7    1  0.5913457E-013  0.5052885E+02  0.7816164E-02  0.1300439E+00
        -11   -1    0    0    0    0  0.00000000000E+00  0.00000000000E+00  0.45593999997E+02  0.45594000000E+02  0.51100000000E-03 0. -1.
         11   -1    0    0    0    0 -0.00000000000E+00 -0.00000000000E+00 -0.45593999997E+02  0.45594000000E+02  0.51100000000E-03 0.  1.
    9900012    2    1    2    0    0 -0.31427545580E+01 -0.38981932692E+02  0.11121987377E+02  0.50528848683E+02  0.29999966056E+02 0.  0.
        -12    1    1    2    0    0  0.31427545580E+01  0.38981932692E+02 -0.11121987377E+02  0.40659151317E+02  0.00000000000E+00 0.  1.
         11    1    3    3    0    0  0.86794108984E+01 -0.17988578562E+02  0.77108658491E+01  0.21409777781E+02  0.51100000000E-03 0. -1.
        -11    1    3    3    0    0 -0.22535467661E+01 -0.81003401101E+01 -0.61635699763E+01  0.10425141632E+02  0.51100000000E-03 0.  1.
        -12    1    3    3    0    0 -0.95686186903E+01 -0.12893014020E+02  0.95746915043E+01  0.18693929270E+02  0.00000000000E+00 0.  1.
</event>
<event>
 7    1  0.5913457E-013  0.5052885E+02  0.7816164E-02  0.1300439E+00
        -11   -1    0    0    0    0  0.00000000000E+00  0.00000000000E+00  0.45593999997E+02  0.45594000000E+02  0.51100000000E-03 0. -1.
         11   -1    0    0    0    0 -0.00000000000E+00 -0.00000000000E+00 -0.45593999997E+02  0.45594000000E+02  0.51100000000E-03 0.  1.
    9900012    2    1    2    0    0 -0.23722682924E+02  0.26296552155E+02  0.19972290708E+02  0.50528846830E+02  0.29999960424E+02 0.  0.
        -12    1    1    2    0    0  0.23722682924E+02 -0.26296552155E+02 -0.19972290708E+02  0.40659153170E+02  0.00000000000E+00 0.  1.
         11    1    3    3    0    0 -0.15205998459E+02  0.18145898245E+02  0.14346194086E+02  0.27682292125E+02  0.51100000000E-03 0.  1.
        -11    1    3    3    0    0 -0.87471088758E+01  0.13312482046E+02  0.71491398765E+01  0.17459790753E+02  0.51100000000E-03 0. -1.
        -12    1    3    3    0    0  0.23042441035E+00 -0.51618281362E+01 -0.15230432542E+01  0.53867639516E+01  0.00000000000E+00 0.  1.
</event>
<event>
 7    1  0.5913457E-013  0.5052886E+02  0.7816164E-02  0.1300439E+00
        -11   -1    0    0    0    0  0.00000000000E+00  0.00000000000E+00  0.45593999997E+02  0.45594000000E+02  0.51100000000E-03 0.  1.
         11   -1    0    0    0    0 -0.00000000000E+00 -0.00000000000E+00 -0.45593999997E+02  0.45594000000E+02  0.51100000000E-03 0. -1.
    9900012    2    1    2    0    0  0.74492277413E+01 -0.35376490139E+02 -0.18605873741E+02  0.50528860977E+02  0.30000003424E+02 0.  0.
        -12    1    1    2    0    0 -0.74492277413E+01  0.35376490139E+02  0.18605873741E+02  0.40659139023E+02  0.00000000000E+00 0.  1.
         11    1    3    3    0    0  0.41182934448E+01  0.31325524824E+00 -0.29346423135E+01  0.50666157854E+01  0.51100000000E-03 0. -1.
        -11    1    3    3    0    0 -0.96109355434E+01 -0.10044291180E+02 -0.61292157754E+01  0.15192931041E+02  0.51100000000E-03 0.  1.
         12    1    3    3    0    0  0.12941869840E+02 -0.25645454207E+02 -0.95420156519E+01  0.30269314151E+02  0.00000000000E+00 0. -1.
</event>
<event>
 7    1  0.5913457E-013  0.5052886E+02  0.7816164E-02  0.1300439E+00
        -11   -1    0    0    0    0  0.00000000000E+00  0.00000000000E+00  0.45593999997E+02  0.45594000000E+02  0.51100000000E-03 0. -1.
         11   -1    0    0    0    0 -0.00000000000E+00 -0.00000000000E+00 -0.45593999997E+02  0.45594000000E+02  0.51100000000E-03 0.  1.
    9900012    2    1    2    0    0 -0.15894238416E+02 -0.23563607928E+02  0.29073960787E+02  0.50528860446E+02  0.30000001812E+02 0.  0.
        -12    1    1    2    0    0  0.15894238416E+02  0.23563607928E+02 -0.29073960787E+02  0.40659139554E+02  0.00000000000E+00 0.  1.
         11    1    3    3    0    0 -0.50837196424E+01 -0.24464070126E+01  0.35827608636E+01  0.66832094341E+01  0.51100000000E-03 0. -1.
        -11    1    3    3    0    0 -0.17969959138E+01  0.63437605130E+01  0.65232562179E+01  0.92749859141E+01  0.51100000000E-03 0.  1.
         12    1    3    3    0    0 -0.90135228597E+01 -0.27460961428E+02  0.18967943706E+02  0.34570665098E+02  0.00000000000E+00 0. -1.
</event>
<event>
 7    1  0.5913457E-013  0.5052886E+02  0.7816164E-02  0.1300439E+00
        -11   -1    0    0    0    0  0.00000000000E+00  0.00000000000E+00  0.45593999997E+02  0.45594000000E+02  0.51100000000E-03 0.  1.
         11   -1    0    0    0    0 -0.00000000000E+00 -0.00000000000E+00 -0.45593999997E+02  0.45594000000E+02  0.51100000000E-03 0. -1.
    9900012    2    1    2    0    0 -0.76751606301E+01  0.22234651142E+02 -0.33164411590E+02  0.50528855909E+02  0.29999988020E+02 0.  0.
        -12    1    1    2    0    0  0.76751606301E+01 -0.22234651142E+02  0.33164411590E+02  0.40659144091E+02  0.00000000000E+00 0.  1.
         11    1    3    3    0    0 -0.95707168604E+00  0.10697032114E+02  0.13494780921E+01  0.10824212380E+02  0.51100000000E-03 0. -1.
        -11    1    3    3    0    0 -0.62695131442E+01 -0.61231982268E+00 -0.59683828430E+01  0.86777488240E+01  0.51100000000E-03 0.  1.
        -12    1    3    3    0    0 -0.44857579982E+00  0.12149938851E+02 -0.28545506839E+02  0.31026894705E+02  0.00000000000E+00 0.  1.
</event>
<event>
 7    1  0.5913457E-013  0.5052886E+02  0.7816164E-02  0.1300439E+00
        -11   -1    0    0    0    0  0.00000000000E+00  0.00000000000E+00  0.45593999997E+02  0.45594000000E+02  0.51100000000E-03 0.  1.
         11   -1    0    0    0    0 -0.00000000000E+00 -0.00000000000E+00 -0.45593999997E+02  0.45594000000E+02  0.51100000000E-03 0. -1.
    9900012    2    1    2    0    0 -0.49393736716E+01 -0.38797370272E+01 -0.40171086499E+02  0.50528856352E+02  0.29999989368E+02 0.  0.
        -12    1    1    2    0    0  0.49393736716E+01  0.38797370272E+01  0.40171086499E+02  0.40659143648E+02  0.00000000000E+00 0.  1.
         11    1    3    3    0    0  0.28960806824E+01  0.38097417542E+01 -0.17772939599E+01  0.51049181809E+01  0.51100000000E-03 0. -1.
        -11    1    3    3    0    0 -0.14317421277E+02 -0.34857632795E+01 -0.16080633012E+02  0.21811140639E+02  0.51100000000E-03 0.  1.
         12    1    3    3    0    0  0.64819669227E+01 -0.42037155018E+01 -0.22313159527E+02  0.23612797532E+02  0.00000000000E+00 0. -1.
</event>
<event>
 7    1  0.5913457E-013  0.5052880E+02  0.7816164E-02  0.1300439E+00
        -11   -1    0    0    0    0  0.00000000000E+00  0.00000000000E+00  0.45593999997E+02  0.45594000000E+02  0.51100000000E-03 0.  1.
         11   -1    0    0    0    0 -0.00000000000E+00 -0.00000000000E+00 -0.45593999997E+02  0.45594000000E+02  0.51100000000E-03 0. -1.
    9900012    2    1    2    0    0  0.28678993210E+02  0.84793586711E+01 -0.27546079215E+02  0.50528798641E+02  0.29999813950E+02 0.  0.
        -12    1    1    2    0    0 -0.28678993210E+02 -0.84793586711E+01  0.27546079215E+02  0.40659201359E+02  0.00000000000E+00 0.  1.
         11    1    3    3    0    0  0.13881295191E+01  0.93327650757E+01 -0.30175141487E+01  0.99062000494E+01  0.51100000000E-03 0. -1.
        -11    1    3    3    0    0  0.12827653912E+02  0.80661058055E+01 -0.91292684416E+01  0.17690514698E+02  0.51100000000E-03 0.  1.
        -12    1    3    3    0    0  0.14463209779E+02 -0.89195122101E+01 -0.15399296624E+02  0.22932083894E+02  0.00000000000E+00 0.  1.
</event>
<event>
 7    1  0.5913457E-013  0.5052886E+02  0.7816164E-02  0.1300439E+00
        -11   -1    0    0    0    0  0.00000000000E+00  0.00000000000E+00  0.45593999997E+02  0.45594000000E+02  0.51100000000E-03 0. -1.
         11   -1    0    0    0    0 -0.00000000000E+00 -0.00000000000E+00 -0.45593999997E+02  0.45594000000E+02  0.51100000000E-03 0.  1.
    9900012    2    1    2    0    0 -0.10295995232E+02 -0.39134103139E+02  0.39598445962E+01  0.50528856925E+02  0.29999991110E+02 0.  0.
        -12    1    1    2    0    0  0.10295995232E+02  0.39134103139E+02 -0.39598445962E+01  0.40659143075E+02  0.00000000000E+00 0.  1.
         11    1    3    3    0    0  0.12317671769E+01 -0.14378633437E+02 -0.96731623484E+01  0.17373324955E+02  0.51100000000E-03 0. -1.
        -11    1    3    3    0    0  0.10961771283E+01 -0.35727751432E+01 -0.17132160763E+01  0.41111356223E+01  0.51100000000E-03 0.  1.
        -12    1    3    3    0    0 -0.12623939537E+02 -0.21182694559E+02  0.15346223021E+02  0.29044396348E+02  0.00000000000E+00 0.  1.
</event>
<event>
 7    1  0.5913457E-013  0.5052885E+02  0.7816164E-02  0.1300439E+00
        -11   -1    0    0    0    0  0.00000000000E+00  0.00000000000E+00  0.45593999997E+02  0.45594000000E+02  0.51100000000E-03 0.  1.
         11   -1    0    0    0    0 -0.00000000000E+00 -0.00000000000E+00 -0.45593999997E+02  0.45594000000E+02  0.51100000000E-03 0. -1.
    9900012    2    1    2    0    0 -0.27912008217E+02 -0.29556858340E+02 -0.69173364864E+00  0.50528848840E+02  0.29999966534E+02 0.  0.
        -12    1    1    2    0    0  0.27912008217E+02  0.29556858340E+02  0.69173364864E+00  0.40659151160E+02  0.00000000000E+00 0.  1.
         11    1    3    3    0    0 -0.86732498450E+01 -0.19165508373E+00  0.33362787882E+01  0.92947700864E+01  0.51100000000E-03 0. -1.
        -11    1    3    3    0    0 -0.14937086732E+02 -0.29128750168E+02  0.31247294864E+01  0.32884108336E+02  0.51100000000E-03 0.  1.
         12    1    3    3    0    0 -0.43016716394E+01 -0.23645308773E+00 -0.71527419232E+01  0.83499704177E+01  0.00000000000E+00 0. -1.
</event>
<event>
 7    1  0.5913457E-013  0.5052886E+02  0.7816164E-02  0.1300439E+00
        -11   -1    0    0    0    0  0.00000000000E+00  0.00000000000E+00  0.45593999997E+02  0.45594000000E+02  0.51100000000E-03 0.  1.
         11   -1    0    0    0    0 -0.00000000000E+00 -0.00000000000E+00 -0.45593999997E+02  0.45594000000E+02  0.51100000000E-03 0. -1.
    9900012    2    1    2    0    0 -0.27888280513E+02  0.13571346137E+02 -0.26291209275E+02  0.50528864359E+02  0.30000013705E+02 0.  0.
        -12    1    1    2    0    0  0.27888280513E+02 -0.13571346137E+02  0.26291209275E+02  0.40659135641E+02  0.00000000000E+00 0.  1.
         11    1    3    3    0    0 -0.35484871148E+01  0.81641461275E+01 -0.17387427615E+02  0.19533757501E+02  0.51100000000E-03 0. -1.
        -11    1    3    3    0    0 -0.16030915305E+02  0.90302173230E+01 -0.11334643470E+02  0.21610395954E+02  0.51100000000E-03 0.  1.
        -12    1    3    3    0    0 -0.83088780930E+01 -0.36230173130E+01  0.24308618096E+01  0.93847109040E+01  0.00000000000E+00 0.  1.
</event>
<event>
 7    1  0.5913457E-013  0.5052887E+02  0.7816164E-02  0.1300439E+00
        -11   -1    0    0    0    0  0.00000000000E+00  0.00000000000E+00  0.45593999997E+02  0.45594000000E+02  0.51100000000E-03 0. -1.
         11   -1    0    0    0    0 -0.00000000000E+00 -0.00000000000E+00 -0.45593999997E+02  0.45594000000E+02  0.51100000000E-03 0.  1.
    9900012    2    1    2    0    0  0.11857483306E+02  0.85901022401E+01  0.37931186229E+02  0.50528872420E+02  0.30000038207E+02 0.  0.
        -12    1    1    2    0    0 -0.11857483306E+02 -0.85901022401E+01 -0.37931186229E+02  0.40659127580E+02  0.00000000000E+00 0.  1.
         11    1    3    3    0    0  0.29012767083E+00 -0.21682133694E+01 -0.18699624256E+01  0.28778608401E+01  0.51100000000E-03 0.  1.
        -11    1    3    3    0    0  0.59356731809E+01  0.15372021272E+02  0.35641125903E+02  0.39266029975E+02  0.51100000000E-03 0. -1.
         12    1    3    3    0    0  0.56316824547E+01 -0.46137056629E+01  0.41600227515E+01  0.83849816044E+01  0.00000000000E+00 0. -1.
</event>
<event>
 7    1  0.5913457E-013  0.5052886E+02  0.7816164E-02  0.1300439E+00
        -11   -1    0    0    0    0  0.00000000000E+00  0.00000000000E+00  0.45593999997E+02  0.45594000000E+02  0.51100000000E-03 0.  1.
         11   -1    0    0    0    0 -0.00000000000E+00 -0.00000000000E+00 -0.45593999997E+02  0.45594000000E+02  0.51100000000E-03 0. -1.
    9900012    2    1    2    0    0 -0.26526015800E+02  0.26669433459E+02 -0.15436239971E+02  0.50528859580E+02  0.29999999179E+02 0.  0.
        -12    1    1    2    0    0  0.26526015800E+02 -0.26669433459E+02  0.15436239971E+02  0.40659140420E+02  0.00000000000E+00 0.  1.
         11    1    3    3    0    0 -0.54709279094E+01 -0.81057991875E+00 -0.93281633453E+01  0.10844478948E+02  0.51100000000E-03 0. -1.
        -11    1    3    3    0    0 -0.13256141081E+02  0.56096914648E+01 -0.78576529880E+01  0.16399287345E+02  0.51100000000E-03 0.  1.
         12    1    3    3    0    0 -0.77989468096E+01  0.21870321913E+02  0.17495763627E+01  0.23285093287E+02  0.00000000000E+00 0. -1.
</event>
<event>
 7    1  0.5913457E-013  0.5052886E+02  0.7816164E-02  0.1300439E+00
        -11   -1    0    0    0    0  0.00000000000E+00  0.00000000000E+00  0.45593999997E+02  0.45594000000E+02  0.51100000000E-03 0.  1.
         11   -1    0    0    0    0 -0.00000000000E+00 -0.00000000000E+00 -0.45593999997E+02  0.45594000000E+02  0.51100000000E-03 0. -1.
    9900012    2    1    2    0    0 -0.22709721693E+00 -0.36034102720E+02 -0.18832343052E+02  0.50528864781E+02  0.30000014987E+02 0.  0.
        -12    1    1    2    0    0  0.22709721693E+00  0.36034102720E+02  0.18832343052E+02  0.40659135219E+02  0.00000000000E+00 0.  1.
         11    1    3    3    0    0 -0.41192204063E+01 -0.99659615884E+01 -0.12310578448E+01  0.10853749159E+02  0.51100000000E-03 0. -1.
        -11    1    3    3    0    0  0.45362435204E+01 -0.11041074195E+02  0.46557444480E+01  0.12812446343E+02  0.51100000000E-03 0.  1.
         12    1    3    3    0    0 -0.64412033101E+00 -0.15027066936E+02 -0.22257029655E+02  0.26862669279E+02  0.00000000000E+00 0. -1.
</event>
<event>
 7    1  0.5913457E-013  0.5052886E+02  0.7816164E-02  0.1300439E+00
        -11   -1    0    0    0    0  0.00000000000E+00  0.00000000000E+00  0.45593999997E+02  0.45594000000E+02  0.51100000000E-03 0.  1.
         11   -1    0    0    0    0 -0.00000000000E+00 -0.00000000000E+00 -0.45593999997E+02  0.45594000000E+02  0.51100000000E-03 0. -1.
    9900012    2    1    2    0    0  0.28611297276E+02  0.23104126144E+02 -0.17342392105E+02  0.50528861536E+02  0.30000005124E+02 0.  0.
        -12    1    1    2    0    0 -0.28611297276E+02 -0.23104126144E+02  0.17342392105E+02  0.40659138464E+02  0.00000000000E+00 0.  1.
         11    1    3    3    0    0 -0.34247325160E+01  0.24608790099E+01 -0.51478621964E+01  0.66547128986E+01  0.51100000000E-03 0. -1.
        -11    1    3    3    0    0  0.17379013077E+01  0.84116738355E+01  0.97804519396E+00  0.86448325798E+01  0.51100000000E-03 0.  1.
         12    1    3    3    0    0  0.30298128485E+02  0.12231573298E+02 -0.13172575103E+02  0.35229316057E+02  0.00000000000E+00 0. -1.
</event>
<event>
 7    1  0.5913457E-013  0.5052888E+02  0.7816164E-02  0.1300439E+00
        -11   -1    0    0    0    0  0.00000000000E+00  0.00000000000E+00  0.45593999997E+02  0.45594000000E+02  0.51100000000E-03 0.  1.
         11   -1    0    0    0    0 -0.00000000000E+00 -0.00000000000E+00 -0.45593999997E+02  0.45594000000E+02  0.51100000000E-03 0. -1.
    9900012    2    1    2    0    0  0.34481860166E+02  0.12631546904E+02 -0.17453068758E+02  0.50528877201E+02  0.30000052740E+02 0.  0.
        -12    1    1    2    0    0 -0.34481860166E+02 -0.12631546904E+02  0.17453068758E+02  0.40659122799E+02  0.00000000000E+00 0.  1.
         11    1    3    3    0    0  0.67263574021E+01  0.73765227570E+01 -0.11780285408E+01  0.10052100447E+02  0.51100000000E-03 0. -1.
        -11    1    3    3    0    0  0.13818692389E+01  0.30282073457E+00  0.56498757766E+01  0.58242904754E+01  0.51100000000E-03 0.  1.
         12    1    3    3    0    0  0.26373633525E+02  0.49522034123E+01 -0.21924915994E+02  0.34652486279E+02  0.00000000000E+00 0. -1.
</event>
<event>
 7    1  0.5913457E-013  0.5052886E+02  0.7816164E-02  0.1300439E+00
        -11   -1    0    0    0    0  0.00000000000E+00  0.00000000000E+00  0.45593999997E+02  0.45594000000E+02  0.51100000000E-03 0. -1.
         11   -1    0    0    0    0 -0.00000000000E+00 -0.00000000000E+00 -0.45593999997E+02  0.45594000000E+02  0.51100000000E-03 0.  1.
    9900012    2    1    2    0    0 -0.38433131821E+02 -0.11471272413E+02  0.66685542561E+01  0.50528864148E+02  0.30000013065E+02 0.  0.
        -12    1    1    2    0    0  0.38433131821E+02  0.11471272413E+02 -0.66685542561E+01  0.40659135852E+02  0.00000000000E+00 0.  1.
         11    1    3    3    0    0 -0.23216785945E+02  0.82978016108E+00  0.27843301872E+01  0.23397866988E+02  0.51100000000E-03 0. -1.
        -11    1    3    3    0    0 -0.88493963698E+01  0.19832162954E+01 -0.36449252971E+01  0.97739676522E+01  0.51100000000E-03 0.  1.
         12    1    3    3    0    0 -0.63669495062E+01 -0.14284268870E+02  0.75291493660E+01  0.17357029508E+02  0.00000000000E+00 0. -1.
</event>
<event>
 7    1  0.5913457E-013  0.5052885E+02  0.7816164E-02  0.1300439E+00
        -11   -1    0    0    0    0  0.00000000000E+00  0.00000000000E+00  0.45593999997E+02  0.45594000000E+02  0.51100000000E-03 0. -1.
         11   -1    0    0    0    0 -0.00000000000E+00 -0.00000000000E+00 -0.45593999997E+02  0.45594000000E+02  0.51100000000E-03 0.  1.
    9900012    2    1    2    0    0 -0.89066659563E+01  0.47351589354E+01  0.39388014342E+02  0.50528854628E+02  0.29999984126E+02 0.  0.
        -12    1    1    2    0    0  0.89066659563E+01 -0.47351589354E+01 -0.39388014342E+02  0.40659145372E+02  0.00000000000E+00 0.  1.
         11    1    3    3    0    0 -0.14811990775E+01 -0.44212723167E+01  0.68578562007E+01  0.82928759509E+01  0.51100000000E-03 0.  1.
        -11    1    3    3    0    0 -0.10016671119E+02  0.13758527024E+02  0.11468233996E+02  0.20521967679E+02  0.51100000000E-03 0. -1.
         12    1    3    3    0    0  0.25912042403E+01 -0.46020957715E+01  0.21061924145E+02  0.21714010998E+02  0.00000000000E+00 0. -1.
</event>
<event>
 7    1  0.5913457E-013  0.5052886E+02  0.7816164E-02  0.1300439E+00
        -11   -1    0    0    0    0  0.00000000000E+00  0.00000000000E+00  0.45593999997E+02  0.45594000000E+02  0.51100000000E-03 0. -1.
         11   -1    0    0    0    0 -0.00000000000E+00 -0.00000000000E+00 -0.45593999997E+02  0.45594000000E+02  0.51100000000E-03 0.  1.
    9900012    2    1    2    0    0 -0.32123707485E+02 -0.47038367579E+01  0.24476658169E+02  0.50528862553E+02  0.30000008215E+02 0.  0.
        -12    1    1    2    0    0  0.32123707485E+02  0.47038367579E+01 -0.24476658169E+02  0.40659137447E+02  0.00000000000E+00 0.  1.
         11    1    3    3    0    0 -0.66586012174E+00  0.21071365649E+01  0.40135629097E+01  0.45817116557E+01  0.51100000000E-03 0. -1.
        -11    1    3    3    0    0 -0.11345614783E+02 -0.11647759875E+02 -0.80293815291E+00  0.16279987557E+02  0.51100000000E-03 0.  1.
         12    1    3    3    0    0 -0.20112232581E+02  0.48367865526E+01  0.21266033413E+02  0.29667163340E+02  0.00000000000E+00 0. -1.
</event>
<event>
 7    1  0.5913457E-013  0.5052885E+02  0.7816164E-02  0.1300439E+00
        -11   -1    0    0    0    0  0.00000000000E+00  0.00000000000E+00  0.45593999997E+02  0.45594000000E+02  0.51100000000E-03 0. -1.
         11   -1    0    0    0    0 -0.00000000000E+00 -0.00000000000E+00 -0.45593999997E+02  0.45594000000E+02  0.51100000000E-03 0.  1.
    9900012    2    1    2    0    0 -0.26076957226E+02 -0.45480898527E+01 -0.30862165848E+02  0.50528854654E+02  0.29999984206E+02 0.  0.
        -12    1    1    2    0    0  0.26076957226E+02  0.45480898527E+01  0.30862165848E+02  0.40659145346E+02  0.00000000000E+00 0.  1.
         11    1    3    3    0    0 -0.54951183220E+01  0.56578869499E+01 -0.21604457803E+01  0.81777464097E+01  0.51100000000E-03 0. -1.
        -11    1    3    3    0    0 -0.12441833246E+02  0.46970083006E+01 -0.77879555496E+01  0.15411468243E+02  0.51100000000E-03 0.  1.
         12    1    3    3    0    0 -0.81400056582E+01 -0.14902985103E+02 -0.20913764518E+02  0.26939640001E+02  0.00000000000E+00 0. -1.
</event>
<event>
 7    1  0.5913457E-013  0.5052888E+02  0.7816164E-02  0.1300439E+00
        -11   -1    0    0    0    0  0.00000000000E+00  0.00000000000E+00  0.45593999997E+02  0.45594000000E+02  0.51100000000E-03 0.  1.
         11   -1    0    0    0    0 -0.00000000000E+00 -0.00000000000E+00 -0.45593999997E+02  0.45594000000E+02  0.51100000000E-03 0. -1.
    9900012    2    1    2    0    0 -0.35940812081E+02 -0.71535285283E+01 -0.17613884282E+02  0.50528882167E+02  0.30000067834E+02 0.  0.
        -12    1    1    2    0    0  0.35940812081E+02  0.71535285283E+01  0.17613884282E+02  0.40659117833E+02  0.00000000000E+00 0.  1.
         11    1    3    3    0    0 -0.66446873683E+00  0.35125886122E+01 -0.64201653446E+01  0.73483549706E+01  0.51100000000E-03 0.  1.
        -11    1    3    3    0    0 -0.87162001841E+01 -0.46685850443E+01 -0.12478835377E+02  0.15921343052E+02  0.51100000000E-03 0. -1.
        -12    1    3    3    0    0 -0.26560143160E+02 -0.59975320963E+01  0.12851164391E+01  0.27259184144E+02  0.00000000000E+00 0.  1.
</event>
<event>
 7    1  0.5913457E-013  0.5052886E+02  0.7816164E-02  0.1300439E+00
        -11   -1    0    0    0    0  0.00000000000E+00  0.00000000000E+00  0.45593999997E+02  0.45594000000E+02  0.51100000000E-03 0.  1.
         11   -1    0    0    0    0 -0.00000000000E+00 -0.00000000000E+00 -0.45593999997E+02  0.45594000000E+02  0.51100000000E-03 0. -1.
    9900012    2    1    2    0    0  0.77119089919E+00 -0.37330659344E+02  0.16093263003E+02  0.50528856176E+02  0.29999988832E+02 0.  0.
        -12    1    1    2    0    0 -0.77119089919E+00  0.37330659344E+02 -0.16093263003E+02  0.40659143824E+02  0.00000000000E+00 0.  1.
         11    1    3    3    0    0  0.96017039800E+01 -0.21727600668E+02  0.59084643203E+01  0.24478384362E+02  0.51100000000E-03 0. -1.
        -11    1    3    3    0    0 -0.30863052692E+01 -0.15851022584E+02  0.11889593996E+02  0.20053494529E+02  0.51100000000E-03 0.  1.
        -12    1    3    3    0    0 -0.57442078116E+01  0.24796390830E+00 -0.17047953139E+01  0.59969772840E+01  0.00000000000E+00 0.  1.
</event>
<event>
 7    1  0.5913457E-013  0.5052878E+02  0.7816164E-02  0.1300439E+00
        -11   -1    0    0    0    0  0.00000000000E+00  0.00000000000E+00  0.45593999997E+02  0.45594000000E+02  0.51100000000E-03 0.  1.
         11   -1    0    0    0    0 -0.00000000000E+00 -0.00000000000E+00 -0.45593999997E+02  0.45594000000E+02  0.51100000000E-03 0. -1.
    9900012    2    1    2    0    0  0.66103077153E+01  0.62938325628E+01 -0.39621508857E+02  0.50528776440E+02  0.29999746466E+02 0.  0.
        -12    1    1    2    0    0 -0.66103077153E+01 -0.62938325628E+01  0.39621508857E+02  0.40659223560E+02  0.00000000000E+00 0.  1.
         11    1    3    3    0    0 -0.99250638530E+01 -0.97879941138E+00 -0.10003362189E+02  0.14125586576E+02  0.51100000000E-03 0. -1.
        -11    1    3    3    0    0  0.73837788409E+01  0.43699488511E+01 -0.23503161052E+02  0.25020296214E+02  0.51100000000E-03 0.  1.
        -12    1    3    3    0    0  0.91515927275E+01  0.29026831231E+01 -0.61149856154E+01  0.11382893650E+02  0.00000000000E+00 0.  1.
</event>
<event>
 7    1  0.5913457E-013  0.5052882E+02  0.7816164E-02  0.1300439E+00
        -11   -1    0    0    0    0  0.00000000000E+00  0.00000000000E+00  0.45593999997E+02  0.45594000000E+02  0.51100000000E-03 0.  1.
         11   -1    0    0    0    0 -0.00000000000E+00 -0.00000000000E+00 -0.45593999997E+02  0.45594000000E+02  0.51100000000E-03 0. -1.
    9900012    2    1    2    0    0  0.27340281870E+02 -0.30054703244E+02 -0.15467304529E+01  0.50528824223E+02  0.29999891707E+02 0.  0.
        -12    1    1    2    0    0 -0.27340281870E+02  0.30054703244E+02  0.15467304529E+01  0.40659175777E+02  0.00000000000E+00 0.  1.
         11    1    3    3    0    0  0.83538404848E+01 -0.27863546326E+02  0.61912722172E+01  0.29740472704E+02  0.51100000000E-03 0. -1.
        -11    1    3    3    0    0  0.10816134162E+01  0.30267775728E+00  0.26257415405E-02  0.11231689822E+01  0.51100000000E-03 0.  1.
         12    1    3    3    0    0  0.17904827969E+02 -0.24938346747E+01 -0.77406284116E+01  0.19665182537E+02  0.00000000000E+00 0. -1.
</event>
<event>
 7    1  0.5913457E-013  0.5052885E+02  0.7816164E-02  0.1300439E+00
        -11   -1    0    0    0    0  0.00000000000E+00  0.00000000000E+00  0.45593999997E+02  0.45594000000E+02  0.51100000000E-03 0. -1.
         11   -1    0    0    0    0 -0.00000000000E+00 -0.00000000000E+00 -0.45593999997E+02  0.45594000000E+02  0.51100000000E-03 0.  1.
    9900012    2    1    2    0    0  0.55690970247E+01 -0.27003413531E+02  0.29882552217E+02  0.50528854522E+02  0.29999983805E+02 0.  0.
        -12    1    1    2    0    0 -0.55690970247E+01  0.27003413531E+02 -0.29882552217E+02  0.40659145478E+02  0.00000000000E+00 0.  1.
         11    1    3    3    0    0  0.49236432766E+00 -0.67380580275E+01  0.15761052019E+01  0.69374315479E+01  0.51100000000E-03 0. -1.
        -11    1    3    3    0    0 -0.77280840472E+01 -0.14730366343E+02  0.68299883684E+01  0.17982094344E+02  0.51100000000E-03 0.  1.
        -12    1    3    3    0    0  0.12804816744E+02 -0.55349891605E+01  0.21476458647E+02  0.25609328630E+02  0.00000000000E+00 0.  1.
</event>
<event>
 7    1  0.5913457E-013  0.5052886E+02  0.7816164E-02  0.1300439E+00
        -11   -1    0    0    0    0  0.00000000000E+00  0.00000000000E+00  0.45593999997E+02  0.45594000000E+02  0.51100000000E-03 0.  1.
         11   -1    0    0    0    0 -0.00000000000E+00 -0.00000000000E+00 -0.45593999997E+02  0.45594000000E+02  0.51100000000E-03 0. -1.
    9900012    2    1    2    0    0 -0.36866631771E+02  0.12403243526E+02  0.11839622739E+02  0.50528860133E+02  0.30000000862E+02 0.  0.
        -12    1    1    2    0    0  0.36866631771E+02 -0.12403243526E+02 -0.11839622739E+02  0.40659139867E+02  0.00000000000E+00 0.  1.
         11    1    3    3    0    0 -0.41627115757E+01  0.13211219028E+02  0.42702682654E+01  0.14494815183E+02  0.51100000000E-03 0. -1.
        -11    1    3    3    0    0 -0.13947856162E+01 -0.77138604407E+00  0.42624813067E+01  0.45507373573E+01  0.51100000000E-03 0.  1.
         12    1    3    3    0    0 -0.31309134579E+02 -0.36589458052E-01  0.33068731672E+01  0.31483307593E+02  0.00000000000E+00 0. -1.
</event>
<event>
 7    1  0.5913457E-013  0.5052886E+02  0.7816164E-02  0.1300439E+00
        -11   -1    0    0    0    0  0.00000000000E+00  0.00000000000E+00  0.45593999997E+02  0.45594000000E+02  0.51100000000E-03 0.  1.
         11   -1    0    0    0    0 -0.00000000000E+00 -0.00000000000E+00 -0.45593999997E+02  0.45594000000E+02  0.51100000000E-03 0. -1.
    9900012    2    1    2    0    0  0.27414767889E+02 -0.20097186144E+02 -0.22309175826E+02  0.50528859387E+02  0.29999998593E+02 0.  0.
        -12    1    1    2    0    0 -0.27414767889E+02  0.20097186144E+02  0.22309175826E+02  0.40659140613E+02  0.00000000000E+00 0.  1.
         11    1    3    3    0    0  0.15010581605E+02 -0.10391211633E+02 -0.80235085335E+00  0.18273987153E+02  0.51100000000E-03 0. -1.
        -11    1    3    3    0    0 -0.33094081304E+01  0.11322633571E+01  0.10352413363E-02  0.34977426744E+01  0.51100000000E-03 0.  1.
         12    1    3    3    0    0  0.15713594415E+02 -0.10838237868E+02 -0.21507860214E+02  0.28757129560E+02  0.00000000000E+00 0. -1.
</event>
<event>
 7    1  0.5913457E-013  0.5052884E+02  0.7816164E-02  0.1300439E+00
        -11   -1    0    0    0    0  0.00000000000E+00  0.00000000000E+00  0.45593999997E+02  0.45594000000E+02  0.51100000000E-03 0. -1.
         11   -1    0    0    0    0 -0.00000000000E+00 -0.00000000000E+00 -0.45593999997E+02  0.45594000000E+02  0.51100000000E-03 0.  1.
    9900012    2    1    2    0    0  0.38122400804E+02 -0.65883898484E+01  0.12507700901E+02  0.50528844750E+02  0.29999954101E+02 0.  0.
        -12    1    1    2    0    0 -0.38122400804E+02  0.65883898484E+01 -0.12507700901E+02  0.40659155250E+02  0.00000000000E+00 0.  1.
         11    1    3    3    0    0  0.24239410279E+01 -0.11009183838E+01  0.44347636869E+01  0.51724888220E+01  0.51100000000E-03 0. -1.
        -11    1    3    3    0    0  0.70559166452E+01  0.48249185171E+01  0.11924003440E+02  0.14671320891E+02  0.51100000000E-03 0.  1.
         12    1    3    3    0    0  0.28642543130E+02 -0.10312389982E+02 -0.38510662254E+01  0.30685035036E+02  0.00000000000E+00 0. -1.
</event>
<event>
 7    1  0.5913457E-013  0.5052886E+02  0.7816164E-02  0.1300439E+00
        -11   -1    0    0    0    0  0.00000000000E+00  0.00000000000E+00  0.45593999997E+02  0.45594000000E+02  0.51100000000E-03 0.  1.
         11   -1    0    0    0    0 -0.00000000000E+00 -0.00000000000E+00 -0.45593999997E+02  0.45594000000E+02  0.51100000000E-03 0. -1.
    9900012    2    1    2    0    0 -0.94749411515E+01 -0.14775412907E+02 -0.36675311630E+02  0.50528858106E+02  0.29999994699E+02 0.  0.
        -12    1    1    2    0    0  0.94749411515E+01  0.14775412907E+02  0.36675311630E+02  0.40659141894E+02  0.00000000000E+00 0.  1.
         11    1    3    3    0    0  0.86792660410E+00  0.47365293603E+01 -0.59764207851E+01  0.76749991943E+01  0.51100000000E-03 0.  1.
        -11    1    3    3    0    0 -0.18632578474E+01 -0.12146421635E+02 -0.28997528485E+02  0.31493871576E+02  0.51100000000E-03 0. -1.
         12    1    3    3    0    0 -0.84796099082E+01 -0.73655206324E+01 -0.17013623595E+01  0.11359987335E+02  0.00000000000E+00 0. -1.
</event>
<event>
 7    1  0.5913457E-013  0.5052886E+02  0.7816164E-02  0.1300439E+00
        -11   -1    0    0    0    0  0.00000000000E+00  0.00000000000E+00  0.45593999997E+02  0.45594000000E+02  0.51100000000E-03 0.  1.
         11   -1    0    0    0    0 -0.00000000000E+00 -0.00000000000E+00 -0.45593999997E+02  0.45594000000E+02  0.51100000000E-03 0. -1.
    9900012    2    1    2    0    0 -0.27634950484E+02  0.26397068041E+02 -0.13880569253E+02  0.50528857212E+02  0.29999991983E+02 0.  0.
        -12    1    1    2    0    0  0.27634950484E+02 -0.26397068041E+02  0.13880569253E+02  0.40659142788E+02  0.00000000000E+00 0.  1.
         11    1    3    3    0    0 -0.16194189460E+01  0.18672990710E+01 -0.10073468133E+02  0.10372274776E+02  0.51100000000E-03 0. -1.
        -11    1    3    3    0    0 -0.24358851233E+02  0.13424415007E+02  0.12519157881E+01  0.27841261557E+02  0.51100000000E-03 0.  1.
         12    1    3    3    0    0 -0.16566803050E+01  0.11105353963E+02 -0.50590169080E+01  0.12315320879E+02  0.00000000000E+00 0. -1.
</event>
<event>
 7    1  0.5913457E-013  0.5052886E+02  0.7816164E-02  0.1300439E+00
        -11   -1    0    0    0    0  0.00000000000E+00  0.00000000000E+00  0.45593999997E+02  0.45594000000E+02  0.51100000000E-03 0.  1.
         11   -1    0    0    0    0 -0.00000000000E+00 -0.00000000000E+00 -0.45593999997E+02  0.45594000000E+02  0.51100000000E-03 0. -1.
    9900012    2    1    2    0    0 -0.12030582119E+02  0.15661878585E+02 -0.35540629625E+02  0.50528859563E+02  0.29999999127E+02 0.  0.
        -12    1    1    2    0    0  0.12030582119E+02 -0.15661878585E+02  0.35540629625E+02  0.40659140437E+02  0.00000000000E+00 0.  1.
         11    1    3    3    0    0 -0.56399780346E+01 -0.13265134199E+01 -0.10040010164E+02  0.11591841719E+02  0.51100000000E-03 0. -1.
        -11    1    3    3    0    0  0.50750219507E+01  0.91333092343E+01 -0.65599271751E+00  0.10469169598E+02  0.51100000000E-03 0.  1.
         12    1    3    3    0    0 -0.11465626035E+02  0.78550827704E+01 -0.24844626743E+02  0.28467848245E+02  0.00000000000E+00 0. -1.
</event>
<event>
 7    1  0.5913457E-013  0.5052884E+02  0.7816164E-02  0.1300439E+00
        -11   -1    0    0    0    0  0.00000000000E+00  0.00000000000E+00  0.45593999997E+02  0.45594000000E+02  0.51100000000E-03 0.  1.
         11   -1    0    0    0    0 -0.00000000000E+00 -0.00000000000E+00 -0.45593999997E+02  0.45594000000E+02  0.51100000000E-03 0. -1.
    9900012    2    1    2    0    0 -0.25936201259E+02  0.20461746478E+02 -0.23702266560E+02  0.50528843039E+02  0.29999948902E+02 0.  0.
        -12    1    1    2    0    0  0.25936201259E+02 -0.20461746478E+02  0.23702266560E+02  0.40659156961E+02  0.00000000000E+00 0.  1.
         11    1    3    3    0    0 -0.49412616070E+01  0.53796780252E+01 -0.13553203344E+02  0.15396308748E+02  0.51100000000E-03 0. -1.
        -11    1    3    3    0    0 -0.21725070706E+01 -0.29137630606E+01  0.40747332435E+01  0.54601514093E+01  0.51100000000E-03 0.  1.
         12    1    3    3    0    0 -0.18822432581E+02  0.17995831514E+02 -0.14223796459E+02  0.29672382881E+02  0.00000000000E+00 0. -1.
</event>
<event>
 7    1  0.5913457E-013  0.5052886E+02  0.7816164E-02  0.1300439E+00
        -11   -1    0    0    0    0  0.00000000000E+00  0.00000000000E+00  0.45593999997E+02  0.45594000000E+02  0.51100000000E-03 0.  1.
         11   -1    0    0    0    0 -0.00000000000E+00 -0.00000000000E+00 -0.45593999997E+02  0.45594000000E+02  0.51100000000E-03 0. -1.
    9900012    2    1    2    0    0  0.14599198808E+02 -0.18521020870E+02 -0.33121006113E+02  0.50528857537E+02  0.29999992969E+02 0.  0.
        -12    1    1    2    0    0 -0.14599198808E+02  0.18521020870E+02  0.33121006113E+02  0.40659142463E+02  0.00000000000E+00 0.  1.
         11    1    3    3    0    0  0.13787843455E+02  0.35148897480E+01 -0.17930736554E+02  0.22890399531E+02  0.51100000000E-03 0. -1.
        -11    1    3    3    0    0 -0.67753504743E+00 -0.25805610622E+01 -0.48994676074E+01  0.55788110054E+01  0.51100000000E-03 0.  1.
        -12    1    3    3    0    0  0.14888904010E+01 -0.19455349556E+02 -0.10290801952E+02  0.22059647000E+02  0.00000000000E+00 0.  1.
</event>
<event>
 7    1  0.5913457E-013  0.5052885E+02  0.7816164E-02  0.1300439E+00
        -11   -1    0    0    0    0  0.00000000000E+00  0.00000000000E+00  0.45593999997E+02  0.45594000000E+02  0.51100000000E-03 0.  1.
         11   -1    0    0    0    0 -0.00000000000E+00 -0.00000000000E+00 -0.45593999997E+02  0.45594000000E+02  0.51100000000E-03 0. -1.
    9900012    2    1    2    0    0  0.27165412089E+02 -0.30247879308E+02 -0.52251387256E+00  0.50528845590E+02  0.29999956655E+02 0.  0.
        -12    1    1    2    0    0 -0.27165412089E+02  0.30247879308E+02  0.52251387256E+00  0.40659154410E+02  0.00000000000E+00 0.  1.
         11    1    3    3    0    0  0.24884507918E+01 -0.99293238619E+01  0.54753170159E+01  0.11608744824E+02  0.51100000000E-03 0.  1.
        -11    1    3    3    0    0  0.14607171670E+02 -0.14180979878E+02  0.68505006681E+01  0.21480200515E+02  0.51100000000E-03 0. -1.
        -12    1    3    3    0    0  0.10069789627E+02 -0.61375755680E+01 -0.12848331557E+02  0.17439900251E+02  0.00000000000E+00 0.  1.
</event>
<event>
 7    1  0.5913457E-013  0.5052894E+02  0.7816164E-02  0.1300439E+00
        -11   -1    0    0    0    0  0.00000000000E+00  0.00000000000E+00  0.45593999997E+02  0.45594000000E+02  0.51100000000E-03 0.  1.
         11   -1    0    0    0    0 -0.00000000000E+00 -0.00000000000E+00 -0.45593999997E+02  0.45594000000E+02  0.51100000000E-03 0. -1.
    9900012    2    1    2    0    0  0.13481863006E+02  0.18155375557E+02 -0.33790247821E+02  0.50528940253E+02  0.30000244392E+02 0.  0.
        -12    1    1    2    0    0 -0.13481863006E+02 -0.18155375557E+02  0.33790247821E+02  0.40659059747E+02  0.00000000000E+00 0.  1.
         11    1    3    3    0    0  0.13407511798E+02  0.10736555796E+02 -0.25763445135E+02  0.30964336073E+02  0.51100000000E-03 0. -1.
        -11    1    3    3    0    0 -0.32646291113E+01 -0.19999511002E+01 -0.87443809710E+01  0.95457742727E+01  0.51100000000E-03 0.  1.
         12    1    3    3    0    0  0.33389803193E+01  0.94187708613E+01  0.71757828545E+00  0.10018829907E+02  0.00000000000E+00 0. -1.
</event>
<event>
 7    1  0.5913457E-013  0.5052882E+02  0.7816164E-02  0.1300439E+00
        -11   -1    0    0    0    0  0.00000000000E+00  0.00000000000E+00  0.45593999997E+02  0.45594000000E+02  0.51100000000E-03 0. -1.
         11   -1    0    0    0    0 -0.00000000000E+00 -0.00000000000E+00 -0.45593999997E+02  0.45594000000E+02  0.51100000000E-03 0.  1.
    9900012    2    1    2    0    0  0.27550746159E+02  0.23376891329E+02  0.18645265462E+02  0.50528824083E+02  0.29999891282E+02 0.  0.
        -12    1    1    2    0    0 -0.27550746159E+02 -0.23376891329E+02 -0.18645265462E+02  0.40659175917E+02  0.00000000000E+00 0.  1.
         11    1    3    3    0    0  0.27463461728E+01  0.13814977476E+02  0.18269806140E+02  0.23069066661E+02  0.51100000000E-03 0. -1.
        -11    1    3    3    0    0  0.31448912356E+00  0.84331839624E+00 -0.11012647380E+01  0.14222776138E+01  0.51100000000E-03 0.  1.
        -12    1    3    3    0    0  0.24489910863E+02  0.87185954566E+01  0.14767240599E+01  0.26037479808E+02  0.00000000000E+00 0.  1.
</event>
<event>
 7    1  0.5913457E-013  0.5052887E+02  0.7816164E-02  0.1300439E+00
        -11   -1    0    0    0    0  0.00000000000E+00  0.00000000000E+00  0.45593999997E+02  0.45594000000E+02  0.51100000000E-03 0. -1.
         11   -1    0    0    0    0 -0.00000000000E+00 -0.00000000000E+00 -0.45593999997E+02  0.45594000000E+02  0.51100000000E-03 0.  1.
    9900012    2    1    2    0    0 -0.34480217884E+02 -0.21357528625E+02  0.28522530564E+01  0.50528870621E+02  0.30000032740E+02 0.  0.
        -12    1    1    2    0    0  0.34480217884E+02  0.21357528625E+02 -0.28522530564E+01  0.40659129379E+02  0.00000000000E+00 0.  1.
         11    1    3    3    0    0 -0.16556846499E+02 -0.16558176893E+02  0.89503854042E+00  0.23432957181E+02  0.51100000000E-03 0. -1.
        -11    1    3    3    0    0 -0.25828891549E+01 -0.32778926025E+01  0.91709554361E+01  0.10075828510E+02  0.51100000000E-03 0.  1.
        -12    1    3    3    0    0 -0.15340482230E+02 -0.15214591304E+01 -0.72137409201E+01  0.17020084930E+02  0.00000000000E+00 0.  1.
</event>
<event>
 7    1  0.5913457E-013  0.5052886E+02  0.7816164E-02  0.1300439E+00
        -11   -1    0    0    0    0  0.00000000000E+00  0.00000000000E+00  0.45593999997E+02  0.45594000000E+02  0.51100000000E-03 0.  1.
         11   -1    0    0    0    0 -0.00000000000E+00 -0.00000000000E+00 -0.45593999997E+02  0.45594000000E+02  0.51100000000E-03 0. -1.
    9900012    2    1    2    0    0 -0.24430958244E+02  0.27028493523E+02 -0.18048662229E+02  0.50528863374E+02  0.30000010713E+02 0.  0.
        -12    1    1    2    0    0  0.24430958244E+02 -0.27028493523E+02  0.18048662229E+02  0.40659136626E+02  0.00000000000E+00 0.  1.
         11    1    3    3    0    0 -0.21685852769E+01  0.12006408126E+01  0.35770593025E+01  0.43519712750E+01  0.51100000000E-03 0. -1.
        -11    1    3    3    0    0 -0.21552580597E+01 -0.31294610412E+01  0.14226636648E+01  0.40574173900E+01  0.51100000000E-03 0.  1.
        -12    1    3    3    0    0 -0.20107114907E+02  0.28957313752E+02 -0.23048385197E+02  0.42119474709E+02  0.00000000000E+00 0.  1.
</event>
<event>
 7    1  0.5913457E-013  0.5052885E+02  0.7816164E-02  0.1300439E+00
        -11   -1    0    0    0    0  0.00000000000E+00  0.00000000000E+00  0.45593999997E+02  0.45594000000E+02  0.51100000000E-03 0. -1.
         11   -1    0    0    0    0 -0.00000000000E+00 -0.00000000000E+00 -0.45593999997E+02  0.45594000000E+02  0.51100000000E-03 0.  1.
    9900012    2    1    2    0    0  0.91282539674E+01  0.34758031747E+02  0.19018948923E+02  0.50528853310E+02  0.29999980122E+02 0.  0.
        -12    1    1    2    0    0 -0.91282539674E+01 -0.34758031747E+02 -0.19018948923E+02  0.40659146690E+02  0.00000000000E+00 0.  1.
         11    1    3    3    0    0 -0.63392841904E+01  0.48979069207E+01 -0.15572504002E+01  0.81609463496E+01  0.51100000000E-03 0. -1.
        -11    1    3    3    0    0  0.37469341643E+01 -0.50930867175E+00 -0.13736520731E+00  0.37838843027E+01  0.51100000000E-03 0.  1.
         12    1    3    3    0    0  0.11720603993E+02  0.30369433498E+02  0.20713564530E+02  0.38584022658E+02  0.00000000000E+00 0. -1.
</event>
<event>
 7    1  0.5913457E-013  0.5052885E+02  0.7816164E-02  0.1300439E+00
        -11   -1    0    0    0    0  0.00000000000E+00  0.00000000000E+00  0.45593999997E+02  0.45594000000E+02  0.51100000000E-03 0.  1.
         11   -1    0    0    0    0 -0.00000000000E+00 -0.00000000000E+00 -0.45593999997E+02  0.45594000000E+02  0.51100000000E-03 0. -1.
    9900012    2    1    2    0    0  0.26015606348E+02 -0.18163621912E+02 -0.25425136525E+02  0.50528849715E+02  0.29999969193E+02 0.  0.
        -12    1    1    2    0    0 -0.26015606348E+02  0.18163621912E+02  0.25425136525E+02  0.40659150285E+02  0.00000000000E+00 0.  1.
         11    1    3    3    0    0  0.11881345966E+02 -0.28701574182E+01 -0.71731839097E+01  0.14172464614E+02  0.51100000000E-03 0. -1.
        -11    1    3    3    0    0  0.13426421229E+02  0.19548281259E+01 -0.11618991226E+02  0.17863121155E+02  0.51100000000E-03 0.  1.
         12    1    3    3    0    0  0.70783915201E+00 -0.17248292620E+02 -0.66329613890E+01  0.18493263945E+02  0.00000000000E+00 0. -1.
</event>
<event>
 7    1  0.5913457E-013  0.5052886E+02  0.7816164E-02  0.1300439E+00
        -11   -1    0    0    0    0  0.00000000000E+00  0.00000000000E+00  0.45593999997E+02  0.45594000000E+02  0.51100000000E-03 0.  1.
         11   -1    0    0    0    0 -0.00000000000E+00 -0.00000000000E+00 -0.45593999997E+02  0.45594000000E+02  0.51100000000E-03 0. -1.
    9900012    2    1    2    0    0 -0.33479479595E+01 -0.42035998193E+01 -0.40302440330E+02  0.50528859533E+02  0.29999999036E+02 0.  0.
        -12    1    1    2    0    0  0.33479479595E+01  0.42035998193E+01  0.40302440330E+02  0.40659140467E+02  0.00000000000E+00 0.  1.
         11    1    3    3    0    0 -0.13443077644E+01  0.26947763021E+01 -0.76656068538E+01  0.82359280826E+01  0.51100000000E-03 0. -1.
        -11    1    3    3    0    0 -0.13875756190E+02 -0.37982423390E+01 -0.20412432680E+02  0.24972598241E+02  0.51100000000E-03 0.  1.
        -12    1    3    3    0    0  0.11872115995E+02 -0.31001337824E+01 -0.12224400796E+02  0.17320333210E+02  0.00000000000E+00 0.  1.
</event>
<event>
 7    1  0.5913457E-013  0.5052886E+02  0.7816164E-02  0.1300439E+00
        -11   -1    0    0    0    0  0.00000000000E+00  0.00000000000E+00  0.45593999997E+02  0.45594000000E+02  0.51100000000E-03 0.  1.
         11   -1    0    0    0    0 -0.00000000000E+00 -0.00000000000E+00 -0.45593999997E+02  0.45594000000E+02  0.51100000000E-03 0. -1.
    9900012    2    1    2    0    0  0.11008210920E+02  0.36665703463E+01 -0.38968459834E+02  0.50528864402E+02  0.30000013835E+02 0.  0.
        -12    1    1    2    0    0 -0.11008210920E+02 -0.36665703463E+01  0.38968459834E+02  0.40659135598E+02  0.00000000000E+00 0.  1.
         11    1    3    3    0    0  0.94562119517E+01 -0.76691586938E+01 -0.30979953160E+02  0.33286535380E+02  0.51100000000E-03 0. -1.
        -11    1    3    3    0    0 -0.32392703035E+01  0.18241256128E+01 -0.49052125199E+01  0.61547880936E+01  0.51100000000E-03 0.  1.
        -12    1    3    3    0    0  0.47912692719E+01  0.95116034272E+01 -0.30832941547E+01  0.11087540928E+02  0.00000000000E+00 0.  1.
</event>
<event>
 7    1  0.5913457E-013  0.5052886E+02  0.7816164E-02  0.1300439E+00
        -11   -1    0    0    0    0  0.00000000000E+00  0.00000000000E+00  0.45593999997E+02  0.45594000000E+02  0.51100000000E-03 0.  1.
         11   -1    0    0    0    0 -0.00000000000E+00 -0.00000000000E+00 -0.45593999997E+02  0.45594000000E+02  0.51100000000E-03 0. -1.
    9900012    2    1    2    0    0  0.26948185601E+02 -0.94363250020E+01 -0.28946793370E+02  0.50528858554E+02  0.29999996060E+02 0.  0.
        -12    1    1    2    0    0 -0.26948185601E+02  0.94363250020E+01  0.28946793370E+02  0.40659141446E+02  0.00000000000E+00 0.  1.
         11    1    3    3    0    0 -0.23203542624E+01  0.15210477824E+01 -0.48949599435E+00  0.28173102152E+01  0.51100000000E-03 0. -1.
        -11    1    3    3    0    0  0.86658954957E+01 -0.12807780694E+02 -0.45967862173E+01  0.16132806167E+02  0.51100000000E-03 0.  1.
         12    1    3    3    0    0  0.20602644368E+02  0.18504079095E+01 -0.23860511159E+02  0.31578742171E+02  0.00000000000E+00 0. -1.
</event>
<event>
 7    1  0.5913457E-013  0.5052886E+02  0.7816164E-02  0.1300439E+00
        -11   -1    0    0    0    0  0.00000000000E+00  0.00000000000E+00  0.45593999997E+02  0.45594000000E+02  0.51100000000E-03 0.  1.
         11   -1    0    0    0    0 -0.00000000000E+00 -0.00000000000E+00 -0.45593999997E+02  0.45594000000E+02  0.51100000000E-03 0. -1.
    9900012    2    1    2    0    0 -0.20673940344E+02 -0.18708313678E+02 -0.29593125782E+02  0.50528857073E+02  0.29999991558E+02 0.  0.
        -12    1    1    2    0    0  0.20673940344E+02  0.18708313678E+02  0.29593125782E+02  0.40659142927E+02  0.00000000000E+00 0.  1.
         11    1    3    3    0    0 -0.13342575145E+01 -0.10846687110E+02 -0.75947854514E+01  0.13308329373E+02  0.51100000000E-03 0. -1.
        -11    1    3    3    0    0 -0.18503232135E+02 -0.14279400501E+02 -0.18833061029E+02  0.30015913548E+02  0.51100000000E-03 0.  1.
        -12    1    3    3    0    0 -0.83645069470E+00  0.64177739331E+01 -0.31652793011E+01  0.72046141517E+01  0.00000000000E+00 0.  1.
</event>
<event>
 7    1  0.8197287E-013  0.5052886E+02  0.7816164E-02  0.1300439E+00
        -11   -1    0    0    0    0  0.00000000000E+00  0.00000000000E+00  0.45593999997E+02  0.45594000000E+02  0.51100000000E-03 0. -1.
         11   -1    0    0    0    0 -0.00000000000E+00 -0.00000000000E+00 -0.45593999997E+02  0.45594000000E+02  0.51100000000E-03 0.  1.
    9900012    2    1    2    0    0  0.65535365055E+01 -0.18341670585E+02  0.35690331348E+02  0.50528862376E+02  0.30000007679E+02 0.  0.
        -12    1    1    2    0    0 -0.65535365055E+01  0.18341670585E+02 -0.35690331348E+02  0.40659137624E+02  0.00000000000E+00 0.  1.
         11    1    3    3    0    0 -0.39892240653E+01 -0.12241811087E+02  0.26083445307E+02  0.29088175719E+02  0.51100000000E-03 0. -1.
        -11    1    3    3    0    0  0.76159328874E+01 -0.27202176576E+01  0.13350886529E+02  0.15609234101E+02  0.51100000000E-03 0.  1.
        -12    1    3    3    0    0  0.29268276835E+01 -0.33796418407E+01 -0.37440004881E+01  0.58314525562E+01  0.00000000000E+00 0.  1.
</event>
<event>
 7    1  0.5913457E-013  0.5052888E+02  0.7816164E-02  0.1300439E+00
        -11   -1    0    0    0    0  0.00000000000E+00  0.00000000000E+00  0.45593999997E+02  0.45594000000E+02  0.51100000000E-03 0.  1.
         11   -1    0    0    0    0 -0.00000000000E+00 -0.00000000000E+00 -0.45593999997E+02  0.45594000000E+02  0.51100000000E-03 0. -1.
    9900012    2    1    2    0    0 -0.31313942057E+02 -0.25724318020E+02  0.32955276607E+01  0.50528880392E+02  0.30000062440E+02 0.  0.
        -12    1    1    2    0    0  0.31313942057E+02  0.25724318020E+02 -0.32955276607E+01  0.40659119608E+02  0.00000000000E+00 0.  1.
         11    1    3    3    0    0 -0.40843322563E+01 -0.11731479101E+02 -0.74132980990E+01  0.14466041644E+02  0.51100000000E-03 0. -1.
        -11    1    3    3    0    0  0.39582986167E+00  0.85087128079E+00 -0.20121321209E+01  0.22202115100E+01  0.51100000000E-03 0.  1.
        -12    1    3    3    0    0 -0.27625439662E+02 -0.14843710200E+02  0.12720957881E+02  0.33842627239E+02  0.00000000000E+00 0.  1.
</event>
<event>
 7    1  0.5913457E-013  0.5052884E+02  0.7816164E-02  0.1300439E+00
        -11   -1    0    0    0    0  0.00000000000E+00  0.00000000000E+00  0.45593999997E+02  0.45594000000E+02  0.51100000000E-03 0. -1.
         11   -1    0    0    0    0 -0.00000000000E+00 -0.00000000000E+00 -0.45593999997E+02  0.45594000000E+02  0.51100000000E-03 0.  1.
    9900012    2    1    2    0    0 -0.31713058269E+02  0.14274713615E+02  0.21063760389E+02  0.50528837253E+02  0.29999931314E+02 0.  0.
        -12    1    1    2    0    0  0.31713058269E+02 -0.14274713615E+02 -0.21063760389E+02  0.40659162747E+02  0.00000000000E+00 0.  1.
         11    1    3    3    0    0 -0.43549433712E+01 -0.17880033026E+01  0.65631005260E+01  0.80769286460E+01  0.51100000000E-03 0. -1.
        -11    1    3    3    0    0 -0.15045324948E+02 -0.26713544280E+01  0.12863425985E+02  0.19974124902E+02  0.51100000000E-03 0.  1.
         12    1    3    3    0    0 -0.12312789950E+02  0.18734071345E+02  0.16372338785E+01  0.22477783705E+02  0.00000000000E+00 0. -1.
</event>
<event>
 7    1  0.5913457E-013  0.5052886E+02  0.7816164E-02  0.1300439E+00
        -11   -1    0    0    0    0  0.00000000000E+00  0.00000000000E+00  0.45593999997E+02  0.45594000000E+02  0.51100000000E-03 0.  1.
         11   -1    0    0    0    0 -0.00000000000E+00 -0.00000000000E+00 -0.45593999997E+02  0.45594000000E+02  0.51100000000E-03 0. -1.
    9900012    2    1    2    0    0 -0.78581046479E+01  0.27953229924E+02 -0.28461079037E+02  0.50528857218E+02  0.29999991998E+02 0.  0.
        -12    1    1    2    0    0  0.78581046479E+01 -0.27953229924E+02  0.28461079037E+02  0.40659142782E+02  0.00000000000E+00 0.  1.
         11    1    3    3    0    0  0.79422570783E+01  0.28747950514E+01 -0.10631091427E+01  0.85131718764E+01  0.51100000000E-03 0. -1.
        -11    1    3    3    0    0  0.93118265144E+00  0.92813507923E+00 -0.47247953725E+01  0.49043070284E+01  0.51100000000E-03 0.  1.
         12    1    3    3    0    0 -0.16731544378E+02  0.24150299794E+02 -0.22673174522E+02  0.37111378313E+02  0.00000000000E+00 0. -1.
</event>
<event>
 7    1  0.5913457E-013  0.5052887E+02  0.7816164E-02  0.1300439E+00
        -11   -1    0    0    0    0  0.00000000000E+00  0.00000000000E+00  0.45593999997E+02  0.45594000000E+02  0.51100000000E-03 0.  1.
         11   -1    0    0    0    0 -0.00000000000E+00 -0.00000000000E+00 -0.45593999997E+02  0.45594000000E+02  0.51100000000E-03 0. -1.
    9900012    2    1    2    0    0 -0.35808378009E+02  0.69996394794E+01 -0.17942403292E+02  0.50528871574E+02  0.30000035636E+02 0.  0.
        -12    1    1    2    0    0  0.35808378009E+02 -0.69996394794E+01  0.17942403292E+02  0.40659128426E+02  0.00000000000E+00 0.  1.
         11    1    3    3    0    0 -0.12835105565E+02  0.13825814352E+02 -0.98849642824E+01  0.21298018605E+02  0.51100000000E-03 0. -1.
        -11    1    3    3    0    0  0.12864042628E+00  0.66073638894E+00 -0.46613773757E+01  0.47097303781E+01  0.51100000000E-03 0.  1.
        -12    1    3    3    0    0 -0.23101912870E+02 -0.74869112618E+01 -0.33960616337E+01  0.24521122591E+02  0.00000000000E+00 0.  1.
</event>
<event>
 7    1  0.5913457E-013  0.5052887E+02  0.7816164E-02  0.1300439E+00
        -11   -1    0    0    0    0  0.00000000000E+00  0.00000000000E+00  0.45593999997E+02  0.45594000000E+02  0.51100000000E-03 0. -1.
         11   -1    0    0    0    0 -0.00000000000E+00 -0.00000000000E+00 -0.45593999997E+02  0.45594000000E+02  0.51100000000E-03 0.  1.
    9900012    2    1    2    0    0 -0.43645398833E+01  0.37094784534E+02  0.16065267387E+02  0.50528867394E+02  0.30000022932E+02 0.  0.
        -12    1    1    2    0    0  0.43645398833E+01 -0.37094784534E+02 -0.16065267387E+02  0.40659132606E+02  0.00000000000E+00 0.  1.
         11    1    3    3    0    0  0.30148921549E+00 -0.27320381586E+01  0.10232119859E+01  0.29328981019E+01  0.51100000000E-03 0. -1.
        -11    1    3    3    0    0  0.75045299192E+01  0.75214911896E+01  0.31233277905E+01  0.11074564360E+02  0.51100000000E-03 0.  1.
         12    1    3    3    0    0 -0.12170559018E+02  0.32305331503E+02  0.11918727611E+02  0.36521404932E+02  0.00000000000E+00 0. -1.
</event>
<event>
 7    1  0.5913457E-013  0.5052884E+02  0.7816164E-02  0.1300439E+00
        -11   -1    0    0    0    0  0.00000000000E+00  0.00000000000E+00  0.45593999997E+02  0.45594000000E+02  0.51100000000E-03 0.  1.
         11   -1    0    0    0    0 -0.00000000000E+00 -0.00000000000E+00 -0.45593999997E+02  0.45594000000E+02  0.51100000000E-03 0. -1.
    9900012    2    1    2    0    0 -0.16620919672E+02  0.36478063792E+02 -0.68017167630E+01  0.50528837937E+02  0.29999933392E+02 0.  0.
        -12    1    1    2    0    0  0.16620919672E+02 -0.36478063792E+02  0.68017167630E+01  0.40659162063E+02  0.00000000000E+00 0.  1.
         11    1    3    3    0    0 -0.90762975349E+01  0.10958755097E+02 -0.52423908125E+01  0.15164305191E+02  0.51100000000E-03 0.  1.
        -11    1    3    3    0    0 -0.13549668621E+02  0.78031953784E+01 -0.48504968437E+01  0.16371032275E+02  0.51100000000E-03 0. -1.
         12    1    3    3    0    0  0.60050464833E+01  0.17716113316E+02  0.32911708932E+01  0.18993500471E+02  0.00000000000E+00 0. -1.
</event>
<event>
 7    1  0.5913457E-013  0.5052886E+02  0.7816164E-02  0.1300439E+00
        -11   -1    0    0    0    0  0.00000000000E+00  0.00000000000E+00  0.45593999997E+02  0.45594000000E+02  0.51100000000E-03 0.  1.
         11   -1    0    0    0    0 -0.00000000000E+00 -0.00000000000E+00 -0.45593999997E+02  0.45594000000E+02  0.51100000000E-03 0. -1.
    9900012    2    1    2    0    0 -0.36537042061E+02  0.13721798395E+02  0.11398357772E+02  0.50528858916E+02  0.29999997161E+02 0.  0.
        -12    1    1    2    0    0  0.36537042061E+02 -0.13721798395E+02 -0.11398357772E+02  0.40659141084E+02  0.00000000000E+00 0.  1.
         11    1    3    3    0    0  0.15468862879E+00  0.35979051196E+01 -0.62961541999E-01  0.36017793156E+01  0.51100000000E-03 0. -1.
        -11    1    3    3    0    0 -0.28540838365E+01  0.16863686714E+01 -0.67973642737E+01  0.75626579436E+01  0.51100000000E-03 0.  1.
        -12    1    3    3    0    0 -0.33837646854E+02  0.84375246039E+01  0.18258683587E+02  0.39364421657E+02  0.00000000000E+00 0.  1.
</event>
<event>
 7    1  0.5913457E-013  0.5052886E+02  0.7816164E-02  0.1300439E+00
        -11   -1    0    0    0    0  0.00000000000E+00  0.00000000000E+00  0.45593999997E+02  0.45594000000E+02  0.51100000000E-03 0.  1.
         11   -1    0    0    0    0 -0.00000000000E+00 -0.00000000000E+00 -0.45593999997E+02  0.45594000000E+02  0.51100000000E-03 0. -1.
    9900012    2    1    2    0    0  0.14821311433E+02 -0.24726610438E+02 -0.28672095020E+02  0.50528861185E+02  0.30000004057E+02 0.  0.
        -12    1    1    2    0    0 -0.14821311433E+02  0.24726610438E+02  0.28672095020E+02  0.40659138815E+02  0.00000000000E+00 0.  1.
         11    1    3    3    0    0  0.10935886855E+02 -0.10238033374E+02  0.34186353112E+00  0.14984252388E+02  0.51100000000E-03 0. -1.
        -11    1    3    3    0    0  0.79689408517E+01 -0.33817330081E+01 -0.13397609031E+02  0.15951052142E+02  0.51100000000E-03 0.  1.
         12    1    3    3    0    0 -0.40835162743E+01 -0.11106844056E+02 -0.15616349521E+02  0.19593556655E+02  0.00000000000E+00 0. -1.
</event>
<event>
 7    1  0.5913457E-013  0.5052885E+02  0.7816164E-02  0.1300439E+00
        -11   -1    0    0    0    0  0.00000000000E+00  0.00000000000E+00  0.45593999997E+02  0.45594000000E+02  0.51100000000E-03 0. -1.
         11   -1    0    0    0    0 -0.00000000000E+00 -0.00000000000E+00 -0.45593999997E+02  0.45594000000E+02  0.51100000000E-03 0.  1.
    9900012    2    1    2    0    0 -0.17875812515E+02  0.27039762841E+02  0.24545319710E+02  0.50528853830E+02  0.29999981703E+02 0.  0.
        -12    1    1    2    0    0  0.17875812515E+02 -0.27039762841E+02 -0.24545319710E+02  0.40659146170E+02  0.00000000000E+00 0.  1.
         11    1    3    3    0    0 -0.54983874554E+01  0.55872323255E+01  0.61888655244E+01  0.99875665910E+01  0.51100000000E-03 0. -1.
        -11    1    3    3    0    0 -0.23912349713E+00  0.17647747817E+02  0.21120212083E+02  0.27523872216E+02  0.51100000000E-03 0.  1.
        -12    1    3    3    0    0 -0.12138301562E+02  0.38047826984E+01 -0.27637578964E+01  0.13017415024E+02  0.00000000000E+00 0.  1.
</event>
<event>
 7    1  0.5913457E-013  0.5052885E+02  0.7816164E-02  0.1300439E+00
        -11   -1    0    0    0    0  0.00000000000E+00  0.00000000000E+00  0.45593999997E+02  0.45594000000E+02  0.51100000000E-03 0.  1.
         11   -1    0    0    0    0 -0.00000000000E+00 -0.00000000000E+00 -0.45593999997E+02  0.45594000000E+02  0.51100000000E-03 0. -1.
    9900012    2    1    2    0    0 -0.31630183522E+01 -0.34184484099E+02 -0.21784914822E+02  0.50528854017E+02  0.29999982271E+02 0.  0.
        -12    1    1    2    0    0  0.31630183522E+01  0.34184484099E+02  0.21784914822E+02  0.40659145983E+02  0.00000000000E+00 0.  1.
         11    1    3    3    0    0 -0.71913887380E+01 -0.15284306411E+02 -0.19181690086E+02  0.25559016595E+02  0.51100000000E-03 0. -1.
        -11    1    3    3    0    0 -0.56069059622E+01 -0.64638609730E+01 -0.34236628286E+01  0.92163094877E+01  0.51100000000E-03 0.  1.
         12    1    3    3    0    0  0.96352763480E+01 -0.12436316715E+02  0.82043809300E+00  0.15753527935E+02  0.00000000000E+00 0. -1.
</event>
<event>
 7    1  0.5913457E-013  0.5052886E+02  0.7816164E-02  0.1300439E+00
        -11   -1    0    0    0    0  0.00000000000E+00  0.00000000000E+00  0.45593999997E+02  0.45594000000E+02  0.51100000000E-03 0. -1.
         11   -1    0    0    0    0 -0.00000000000E+00 -0.00000000000E+00 -0.45593999997E+02  0.45594000000E+02  0.51100000000E-03 0.  1.
    9900012    2    1    2    0    0  0.39923377544E+00 -0.33772909863E+02  0.22636189599E+02  0.50528857021E+02  0.29999991402E+02 0.  0.
        -12    1    1    2    0    0 -0.39923377544E+00  0.33772909863E+02 -0.22636189599E+02  0.40659142979E+02  0.00000000000E+00 0.  1.
         11    1    3    3    0    0  0.75093395346E+01 -0.25563316629E+02  0.85123954085E+01  0.27970237989E+02  0.51100000000E-03 0. -1.
        -11    1    3    3    0    0  0.35137145715E+01 -0.38834900546E+01  0.13867298011E+01  0.54176290844E+01  0.51100000000E-03 0.  1.
        -12    1    3    3    0    0 -0.10623820331E+02 -0.43261031789E+01  0.12737064389E+02  0.17140989948E+02  0.00000000000E+00 0.  1.
</event>
<event>
 7    1  0.5913457E-013  0.5052886E+02  0.7816164E-02  0.1300439E+00
        -11   -1    0    0    0    0  0.00000000000E+00  0.00000000000E+00  0.45593999997E+02  0.45594000000E+02  0.51100000000E-03 0.  1.
         11   -1    0    0    0    0 -0.00000000000E+00 -0.00000000000E+00 -0.45593999997E+02  0.45594000000E+02  0.51100000000E-03 0. -1.
    9900012    2    1    2    0    0 -0.17844619088E+02  0.28542490098E+02 -0.22804848346E+02  0.50528864748E+02  0.30000014887E+02 0.  0.
        -12    1    1    2    0    0  0.17844619088E+02 -0.28542490098E+02  0.22804848346E+02  0.40659135252E+02  0.00000000000E+00 0.  1.
         11    1    3    3    0    0 -0.75657418490E+01  0.74683741090E+01  0.77884570566E+00  0.10659440063E+02  0.51100000000E-03 0. -1.
        -11    1    3    3    0    0  0.57370392425E+01  0.20797715640E+01 -0.79190965692E+00  0.61535510232E+01  0.51100000000E-03 0.  1.
         12    1    3    3    0    0 -0.16015916481E+02  0.18994344425E+02 -0.22791784394E+02  0.33715873662E+02  0.00000000000E+00 0. -1.
</event>
<event>
 7    1  0.5913457E-013  0.5052886E+02  0.7816164E-02  0.1300439E+00
        -11   -1    0    0    0    0  0.00000000000E+00  0.00000000000E+00  0.45593999997E+02  0.45594000000E+02  0.51100000000E-03 0. -1.
         11   -1    0    0    0    0 -0.00000000000E+00 -0.00000000000E+00 -0.45593999997E+02  0.45594000000E+02  0.51100000000E-03 0.  1.
    9900012    2    1    2    0    0  0.18351492989E+02  0.14282013725E+02  0.33352846555E+02  0.50528861000E+02  0.30000003494E+02 0.  0.
        -12    1    1    2    0    0 -0.18351492989E+02 -0.14282013725E+02 -0.33352846555E+02  0.40659139000E+02  0.00000000000E+00 0.  1.
         11    1    3    3    0    0  0.49333962773E+00  0.46181395060E+01  0.11728411806E+02  0.12614524971E+02  0.51100000000E-03 0. -1.
        -11    1    3    3    0    0  0.12360489088E+02  0.20926144904E+01  0.25000165096E+02  0.27967284119E+02  0.51100000000E-03 0.  1.
         12    1    3    3    0    0  0.54976642732E+01  0.75712597281E+01 -0.33757303469E+01  0.99470519103E+01  0.00000000000E+00 0. -1.
</event>
<event>
 7    1  0.5913457E-013  0.5052886E+02  0.7816164E-02  0.1300439E+00
        -11   -1    0    0    0    0  0.00000000000E+00  0.00000000000E+00  0.45593999997E+02  0.45594000000E+02  0.51100000000E-03 0.  1.
         11   -1    0    0    0    0 -0.00000000000E+00 -0.00000000000E+00 -0.45593999997E+02  0.45594000000E+02  0.51100000000E-03 0. -1.
    9900012    2    1    2    0    0 -0.28037729976E+02  0.21269996305E+02 -0.20362680796E+02  0.50528858171E+02  0.29999994898E+02 0.  0.
        -12    1    1    2    0    0  0.28037729976E+02 -0.21269996305E+02  0.20362680796E+02  0.40659141829E+02  0.00000000000E+00 0.  1.
         11    1    3    3    0    0  0.18488356693E+00  0.86827883500E+00 -0.47610194441E+00  0.10073546502E+01  0.51100000000E-03 0. -1.
        -11    1    3    3    0    0 -0.31858549216E+02  0.15127045343E+02 -0.82216346364E+01  0.36213118277E+02  0.51100000000E-03 0.  1.
        -12    1    3    3    0    0  0.36359356733E+01  0.52746721274E+01 -0.11664944215E+02  0.13308385245E+02  0.00000000000E+00 0.  1.
</event>
<event>
 7    1  0.5913457E-013  0.5052886E+02  0.7816164E-02  0.1300439E+00
        -11   -1    0    0    0    0  0.00000000000E+00  0.00000000000E+00  0.45593999997E+02  0.45594000000E+02  0.51100000000E-03 0.  1.
         11   -1    0    0    0    0 -0.00000000000E+00 -0.00000000000E+00 -0.45593999997E+02  0.45594000000E+02  0.51100000000E-03 0. -1.
    9900012    2    1    2    0    0  0.15740122961E+02 -0.35420803357E+02 -0.12279276199E+02  0.50528863201E+02  0.30000010185E+02 0.  0.
        -12    1    1    2    0    0 -0.15740122961E+02  0.35420803357E+02  0.12279276199E+02  0.40659136799E+02  0.00000000000E+00 0.  1.
         11    1    3    3    0    0  0.16301915800E+02 -0.15248794999E+02 -0.86803239622E+01  0.23950495444E+02  0.51100000000E-03 0. -1.
        -11    1    3    3    0    0  0.71102222559E+01 -0.77817535493E+01 -0.54867411015E+01  0.11883403427E+02  0.51100000000E-03 0.  1.
        -12    1    3    3    0    0 -0.76720150947E+01 -0.12390254809E+02  0.18877888651E+01  0.14694964330E+02  0.00000000000E+00 0.  1.
</event>
<event>
 7    1  0.5913457E-013  0.5052897E+02  0.7816164E-02  0.1300438E+00
        -11   -1    0    0    0    0  0.00000000000E+00  0.00000000000E+00  0.45593999997E+02  0.45594000000E+02  0.51100000000E-03 0.  1.
         11   -1    0    0    0    0 -0.00000000000E+00 -0.00000000000E+00 -0.45593999997E+02  0.45594000000E+02  0.51100000000E-03 0. -1.
    9900012    2    1    2    0    0 -0.10034962003E+02  0.72993675835E+01 -0.38719184203E+02  0.50528973267E+02  0.30000344741E+02 0.  0.
        -12    1    1    2    0    0  0.10034962003E+02 -0.72993675835E+01  0.38719184203E+02  0.40659026733E+02  0.00000000000E+00 0.  1.
         11    1    3    3    0    0  0.44577695444E+01 -0.29173033218E+01 -0.83852523763E-01  0.53281703698E+01  0.51100000000E-03 0. -1.
        -11    1    3    3    0    0 -0.21278066016E+01 -0.40291913044E+01 -0.86159801205E+01  0.97466433812E+01  0.51100000000E-03 0.  1.
        -12    1    3    3    0    0 -0.12364924945E+02  0.14245862210E+02 -0.30019351559E+02  0.35454159516E+02  0.00000000000E+00 0.  1.
</event>
<event>
 7    1  0.5913457E-013  0.5052884E+02  0.7816164E-02  0.1300439E+00
        -11   -1    0    0    0    0  0.00000000000E+00  0.00000000000E+00  0.45593999997E+02  0.45594000000E+02  0.51100000000E-03 0. -1.
         11   -1    0    0    0    0 -0.00000000000E+00 -0.00000000000E+00 -0.45593999997E+02  0.45594000000E+02  0.51100000000E-03 0.  1.
    9900012    2    1    2    0    0  0.38448398812E+02  0.12953992731E+02 -0.26611548154E+01  0.50528843051E+02  0.29999948938E+02 0.  0.
        -12    1    1    2    0    0 -0.38448398812E+02 -0.12953992731E+02  0.26611548154E+01  0.40659156949E+02  0.00000000000E+00 0.  1.
         11    1    3    3    0    0  0.36088901382E+02  0.22717659294E+01 -0.18805820290E+01  0.36209202041E+02  0.51100000000E-03 0. -1.
        -11    1    3    3    0    0 -0.27027414014E+01  0.58031021634E+00  0.87532733258E+00  0.28996153590E+01  0.51100000000E-03 0.  1.
        -12    1    3    3    0    0  0.50622388308E+01  0.10101916585E+02 -0.16559001190E+01  0.11420025651E+02  0.00000000000E+00 0.  1.
</event>
<event>
 7    1  0.5913457E-013  0.5052885E+02  0.7816164E-02  0.1300439E+00
        -11   -1    0    0    0    0  0.00000000000E+00  0.00000000000E+00  0.45593999997E+02  0.45594000000E+02  0.51100000000E-03 0. -1.
         11   -1    0    0    0    0 -0.00000000000E+00 -0.00000000000E+00 -0.45593999997E+02  0.45594000000E+02  0.51100000000E-03 0.  1.
    9900012    2    1    2    0    0  0.23725784136E+02  0.76736617495E+01 -0.32114928923E+02  0.50528848789E+02  0.29999966378E+02 0.  0.
        -12    1    1    2    0    0 -0.23725784136E+02 -0.76736617495E+01  0.32114928923E+02  0.40659151211E+02  0.00000000000E+00 0.  1.
         11    1    3    3    0    0  0.10751033191E+02  0.11221853276E+01  0.72899627995E+00  0.10833995128E+02  0.51100000000E-03 0. -1.
        -11    1    3    3    0    0  0.75877204690E+01  0.11470022730E+02 -0.14653397772E+02  0.20096193417E+02  0.51100000000E-03 0.  1.
        -12    1    3    3    0    0  0.53870304755E+01 -0.49185463079E+01 -0.18190527431E+02  0.19598660244E+02  0.00000000000E+00 0.  1.
</event>
<event>
 7    1  0.5913457E-013  0.5052886E+02  0.7816164E-02  0.1300439E+00
        -11   -1    0    0    0    0  0.00000000000E+00  0.00000000000E+00  0.45593999997E+02  0.45594000000E+02  0.51100000000E-03 0.  1.
         11   -1    0    0    0    0 -0.00000000000E+00 -0.00000000000E+00 -0.45593999997E+02  0.45594000000E+02  0.51100000000E-03 0. -1.
    9900012    2    1    2    0    0  0.21964348476E+02 -0.15735706693E+02 -0.30382893971E+02  0.50528864309E+02  0.30000013553E+02 0.  0.
        -12    1    1    2    0    0 -0.21964348476E+02  0.15735706693E+02  0.30382893971E+02  0.40659135691E+02  0.00000000000E+00 0.  1.
         11    1    3    3    0    0  0.43785531515E+01  0.25914393821E+01 -0.12184791605E+01  0.52318235346E+01  0.51100000000E-03 0. -1.
        -11    1    3    3    0    0 -0.10362049986E+00  0.34585656182E+01  0.14633081133E+01  0.37568183665E+01  0.51100000000E-03 0.  1.
         12    1    3    3    0    0  0.17689415824E+02 -0.21785711693E+02 -0.30627722924E+02  0.41540222408E+02  0.00000000000E+00 0. -1.
</event>
<event>
 7    1  0.5913457E-013  0.5052885E+02  0.7816164E-02  0.1300439E+00
        -11   -1    0    0    0    0  0.00000000000E+00  0.00000000000E+00  0.45593999997E+02  0.45594000000E+02  0.51100000000E-03 0. -1.
         11   -1    0    0    0    0 -0.00000000000E+00 -0.00000000000E+00 -0.45593999997E+02  0.45594000000E+02  0.51100000000E-03 0.  1.
    9900012    2    1    2    0    0 -0.29650622488E+02  0.27776653364E+02 -0.15698176082E+01  0.50528853264E+02  0.29999979980E+02 0.  0.
        -12    1    1    2    0    0  0.29650622488E+02 -0.27776653364E+02  0.15698176082E+01  0.40659146736E+02  0.00000000000E+00 0.  1.
         11    1    3    3    0    0 -0.20871247726E+02  0.50128525015E+01 -0.60994198330E+01  0.22314582551E+02  0.51100000000E-03 0. -1.
        -11    1    3    3    0    0 -0.15958180481E+01  0.78134965236E+01 -0.46757553851E+01  0.92444606035E+01  0.51100000000E-03 0.  1.
        -12    1    3    3    0    0 -0.71835567136E+01  0.14950304338E+02  0.92053576099E+01  0.18969810110E+02  0.00000000000E+00 0.  1.
</event>
<event>
 7    1  0.5913457E-013  0.5052882E+02  0.7816164E-02  0.1300439E+00
        -11   -1    0    0    0    0  0.00000000000E+00  0.00000000000E+00  0.45593999997E+02  0.45594000000E+02  0.51100000000E-03 0. -1.
         11   -1    0    0    0    0 -0.00000000000E+00 -0.00000000000E+00 -0.45593999997E+02  0.45594000000E+02  0.51100000000E-03 0.  1.
    9900012    2    1    2    0    0  0.58318728785E+01 -0.38943633094E+02  0.10126761699E+02  0.50528823885E+02  0.29999890681E+02 0.  0.
        -12    1    1    2    0    0 -0.58318728785E+01  0.38943633094E+02 -0.10126761699E+02  0.40659176115E+02  0.00000000000E+00 0.  1.
         11    1    3    3    0    0  0.72405675085E+01 -0.57795615881E+01 -0.17187702657E+01  0.94224901955E+01  0.51100000000E-03 0. -1.
        -11    1    3    3    0    0  0.48115978262E+01 -0.14125939768E+02 -0.41332874643E+01  0.15484757457E+02  0.51100000000E-03 0.  1.
         12    1    3    3    0    0 -0.62202924562E+01 -0.19038131738E+02  0.15978819429E+02  0.25621576233E+02  0.00000000000E+00 0. -1.
</event>
<event>
 7    1  0.5913457E-013  0.5052887E+02  0.7816164E-02  0.1300439E+00
        -11   -1    0    0    0    0  0.00000000000E+00  0.00000000000E+00  0.45593999997E+02  0.45594000000E+02  0.51100000000E-03 0. -1.
         11   -1    0    0    0    0 -0.00000000000E+00 -0.00000000000E+00 -0.45593999997E+02  0.45594000000E+02  0.51100000000E-03 0.  1.
    9900012    2    1    2    0    0 -0.10970766381E+02  0.35979163878E+02  0.15437189607E+02  0.50528870997E+02  0.30000033882E+02 0.  0.
        -12    1    1    2    0    0  0.10970766381E+02 -0.35979163878E+02 -0.15437189607E+02  0.40659129003E+02  0.00000000000E+00 0.  1.
         11    1    3    3    0    0  0.40388454936E+01  0.84138542425E+01  0.83288496079E+01  0.12508994851E+02  0.51100000000E-03 0. -1.
        -11    1    3    3    0    0  0.38910018272E+01  0.74300027654E+01  0.61257535120E+01  0.10386033539E+02  0.51100000000E-03 0.  1.
        -12    1    3    3    0    0 -0.18900613702E+02  0.20135306870E+02  0.98258648704E+00  0.27633842607E+02  0.00000000000E+00 0.  1.
</event>
<event>
 7    1  0.5913457E-013  0.5052887E+02  0.7816164E-02  0.1300439E+00
        -11   -1    0    0    0    0  0.00000000000E+00  0.00000000000E+00  0.45593999997E+02  0.45594000000E+02  0.51100000000E-03 0. -1.
         11   -1    0    0    0    0 -0.00000000000E+00 -0.00000000000E+00 -0.45593999997E+02  0.45594000000E+02  0.51100000000E-03 0.  1.
    9900012    2    1    2    0    0 -0.23101834833E+02  0.33096284269E+02  0.49098241456E+01  0.50528865993E+02  0.30000018672E+02 0.  0.
        -12    1    1    2    0    0  0.23101834833E+02 -0.33096284269E+02 -0.49098241456E+01  0.40659134007E+02  0.00000000000E+00 0.  1.
         11    1    3    3    0    0 -0.13061289149E+02  0.58589813196E+01 -0.49037363012E+01  0.15131806446E+02  0.51100000000E-03 0. -1.
        -11    1    3    3    0    0 -0.11307780727E+01  0.68064262203E+01 -0.50989735198E+01  0.85793722474E+01  0.51100000000E-03 0.  1.
         12    1    3    3    0    0 -0.89097676108E+01  0.20430876729E+02  0.14912533967E+02  0.26817687300E+02  0.00000000000E+00 0. -1.
</event>
<event>
 7    1  0.5913457E-013  0.5052886E+02  0.7816164E-02  0.1300439E+00
        -11   -1    0    0    0    0  0.00000000000E+00  0.00000000000E+00  0.45593999997E+02  0.45594000000E+02  0.51100000000E-03 0.  1.
         11   -1    0    0    0    0 -0.00000000000E+00 -0.00000000000E+00 -0.45593999997E+02  0.45594000000E+02  0.51100000000E-03 0. -1.
    9900012    2    1    2    0    0  0.90802148294E+01 -0.38562772250E+02 -0.91448213409E+01  0.50528862499E+02  0.30000008052E+02 0.  0.
        -12    1    1    2    0    0 -0.90802148294E+01  0.38562772250E+02  0.91448213409E+01  0.40659137501E+02  0.00000000000E+00 0.  1.
         11    1    3    3    0    0  0.45398172899E+00 -0.36624142073E+01 -0.47255571785E+01  0.59958542464E+01  0.51100000000E-03 0. -1.
        -11    1    3    3    0    0  0.53181667558E+01 -0.18231444178E+02 -0.15271243260E+02  0.24369639419E+02  0.51100000000E-03 0.  1.
        -12    1    3    3    0    0  0.33080663446E+01 -0.16668913865E+02  0.10851979098E+02  0.20163368833E+02  0.00000000000E+00 0.  1.
</event>
<event>
 7    1  0.5913457E-013  0.5052891E+02  0.7816164E-02  0.1300439E+00
        -11   -1    0    0    0    0  0.00000000000E+00  0.00000000000E+00  0.45593999997E+02  0.45594000000E+02  0.51100000000E-03 0.  1.
         11   -1    0    0    0    0 -0.00000000000E+00 -0.00000000000E+00 -0.45593999997E+02  0.45594000000E+02  0.51100000000E-03 0. -1.
    9900012    2    1    2    0    0  0.31358892531E+02 -0.25050194372E+02 -0.65014842006E+01  0.50528909065E+02  0.30000149594E+02 0.  0.
        -12    1    1    2    0    0 -0.31358892531E+02  0.25050194372E+02  0.65014842006E+01  0.40659090935E+02  0.00000000000E+00 0.  1.
         11    1    3    3    0    0  0.34264459091E+01 -0.82242814522E+01 -0.85107481173E+00  0.89500651154E+01  0.51100000000E-03 0. -1.
        -11    1    3    3    0    0  0.26392866317E+02 -0.19125340240E+02  0.27738588341E+01  0.32711715406E+02  0.51100000000E-03 0.  1.
         12    1    3    3    0    0  0.15395803044E+01  0.22994273201E+01 -0.84242682231E+01  0.88671285436E+01  0.00000000000E+00 0. -1.
</event>
<event>
 7    1  0.5913457E-013  0.5052886E+02  0.7816164E-02  0.1300439E+00
        -11   -1    0    0    0    0  0.00000000000E+00  0.00000000000E+00  0.45593999997E+02  0.45594000000E+02  0.51100000000E-03 0. -1.
         11   -1    0    0    0    0 -0.00000000000E+00 -0.00000000000E+00 -0.45593999997E+02  0.45594000000E+02  0.51100000000E-03 0.  1.
    9900012    2    1    2    0    0 -0.14330954362E+02 -0.32547282119E+02  0.19709485591E+02  0.50528860210E+02  0.30000001093E+02 0.  0.
        -12    1    1    2    0    0  0.14330954362E+02  0.32547282119E+02 -0.19709485591E+02  0.40659139790E+02  0.00000000000E+00 0.  1.
         11    1    3    3    0    0 -0.79335078406E+01 -0.20981007171E+01  0.14215029054E+02  0.16413702341E+02  0.51100000000E-03 0. -1.
        -11    1    3    3    0    0 -0.75661465329E+01 -0.12086245293E+02  0.65356823696E+01  0.15685631735E+02  0.51100000000E-03 0.  1.
        -12    1    3    3    0    0  0.11687000113E+01 -0.18362936109E+02 -0.10412258330E+01  0.18429526133E+02  0.00000000000E+00 0.  1.
</event>
<event>
 7    1  0.5913457E-013  0.5052886E+02  0.7816164E-02  0.1300439E+00
        -11   -1    0    0    0    0  0.00000000000E+00  0.00000000000E+00  0.45593999997E+02  0.45594000000E+02  0.51100000000E-03 0.  1.
         11   -1    0    0    0    0 -0.00000000000E+00 -0.00000000000E+00 -0.45593999997E+02  0.45594000000E+02  0.51100000000E-03 0. -1.
    9900012    2    1    2    0    0 -0.20585752155E+02  0.16252022606E+02 -0.31068697583E+02  0.50528863264E+02  0.30000010378E+02 0.  0.
        -12    1    1    2    0    0  0.20585752155E+02 -0.16252022606E+02  0.31068697583E+02  0.40659136736E+02  0.00000000000E+00 0.  1.
         11    1    3    3    0    0 -0.19989423051E+02  0.12037581950E+02 -0.20504891420E+02  0.31063338287E+02  0.51100000000E-03 0. -1.
        -11    1    3    3    0    0 -0.64910717160E+01  0.60938391521E+00 -0.10728161561E+02  0.12553836526E+02  0.51100000000E-03 0.  1.
        -12    1    3    3    0    0  0.58947426119E+01  0.36050567408E+01  0.16435539715E+00  0.69116884523E+01  0.00000000000E+00 0.  1.
</event>
<event>
 7    1  0.5913457E-013  0.5052886E+02  0.7816164E-02  0.1300439E+00
        -11   -1    0    0    0    0  0.00000000000E+00  0.00000000000E+00  0.45593999997E+02  0.45594000000E+02  0.51100000000E-03 0. -1.
         11   -1    0    0    0    0 -0.00000000000E+00 -0.00000000000E+00 -0.45593999997E+02  0.45594000000E+02  0.51100000000E-03 0.  1.
    9900012    2    1    2    0    0  0.28339959788E+02 -0.65604679996E+01  0.28407264178E+02  0.50528859340E+02  0.29999998449E+02 0.  0.
        -12    1    1    2    0    0 -0.28339959788E+02  0.65604679996E+01 -0.28407264178E+02  0.40659140660E+02  0.00000000000E+00 0.  1.
         11    1    3    3    0    0 -0.40817688199E+01  0.82251408220E-02  0.71950051487E+01  0.82721825236E+01  0.51100000000E-03 0. -1.
        -11    1    3    3    0    0  0.14434295243E+02  0.13168238350E+01  0.16685455925E+02  0.22101749792E+02  0.51100000000E-03 0.  1.
         12    1    3    3    0    0  0.17987433364E+02 -0.78855169754E+01  0.45268031044E+01  0.20154927024E+02  0.00000000000E+00 0. -1.
</event>
<event>
 7    1  0.5913457E-013  0.5052886E+02  0.7816164E-02  0.1300439E+00
        -11   -1    0    0    0    0  0.00000000000E+00  0.00000000000E+00  0.45593999997E+02  0.45594000000E+02  0.51100000000E-03 0.  1.
         11   -1    0    0    0    0 -0.00000000000E+00 -0.00000000000E+00 -0.45593999997E+02  0.45594000000E+02  0.51100000000E-03 0. -1.
    9900012    2    1    2    0    0 -0.15773716984E+02  0.19013612575E+02 -0.32293003605E+02  0.50528859669E+02  0.29999999449E+02 0.  0.
        -12    1    1    2    0    0  0.15773716984E+02 -0.19013612575E+02  0.32293003605E+02  0.40659140331E+02  0.00000000000E+00 0.  1.
         11    1    3    3    0    0 -0.40425887180E+01  0.16834531338E+02 -0.16817905667E+02  0.24136816696E+02  0.51100000000E-03 0. -1.
        -11    1    3    3    0    0 -0.58010134901E+00  0.83052156575E+01 -0.84326133538E+01  0.11849982824E+02  0.51100000000E-03 0.  1.
        -12    1    3    3    0    0 -0.11151026917E+02 -0.61261344212E+01 -0.70424845849E+01  0.14542060149E+02  0.00000000000E+00 0.  1.
</event>
<event>
 7    1  0.5913457E-013  0.5052886E+02  0.7816164E-02  0.1300439E+00
        -11   -1    0    0    0    0  0.00000000000E+00  0.00000000000E+00  0.45593999997E+02  0.45594000000E+02  0.51100000000E-03 0. -1.
         11   -1    0    0    0    0 -0.00000000000E+00 -0.00000000000E+00 -0.45593999997E+02  0.45594000000E+02  0.51100000000E-03 0.  1.
    9900012    2    1    2    0    0  0.28218630170E+02 -0.24353986320E+02  0.16240627824E+02  0.50528859202E+02  0.29999998029E+02 0.  0.
        -12    1    1    2    0    0 -0.28218630170E+02  0.24353986320E+02 -0.16240627824E+02  0.40659140798E+02  0.00000000000E+00 0.  1.
         11    1    3    3    0    0  0.19958579919E+02 -0.65913589256E+01  0.14690770461E+02  0.25643901065E+02  0.51100000000E-03 0. -1.
        -11    1    3    3    0    0  0.59222765135E+01 -0.14130363746E+02  0.78742015577E+01  0.17226247099E+02  0.51100000000E-03 0.  1.
        -12    1    3    3    0    0  0.23377737381E+01 -0.36322636481E+01 -0.63243441943E+01  0.76587110370E+01  0.00000000000E+00 0.  1.
</event>
<event>
 7    1  0.5913457E-013  0.5052887E+02  0.7816164E-02  0.1300439E+00
        -11   -1    0    0    0    0  0.00000000000E+00  0.00000000000E+00  0.45593999997E+02  0.45594000000E+02  0.51100000000E-03 0.  1.
         11   -1    0    0    0    0 -0.00000000000E+00 -0.00000000000E+00 -0.45593999997E+02  0.45594000000E+02  0.51100000000E-03 0. -1.
    9900012    2    1    2    0    0 -0.17875850500E+02  0.15229534393E+02 -0.33191572187E+02  0.50528865563E+02  0.30000017366E+02 0.  0.
        -12    1    1    2    0    0  0.17875850500E+02 -0.15229534393E+02  0.33191572187E+02  0.40659134437E+02  0.00000000000E+00 0.  1.
         11    1    3    3    0    0  0.94799465744E+00  0.72454975079E+01 -0.16801612900E+02  0.18321848278E+02  0.51100000000E-03 0. -1.
        -11    1    3    3    0    0 -0.91496047958E+00  0.89035274499E+01 -0.93464388379E+01  0.12940860595E+02  0.51100000000E-03 0.  1.
        -12    1    3    3    0    0 -0.17908884678E+02 -0.91949056453E+00 -0.70435204482E+01  0.19266156690E+02  0.00000000000E+00 0.  1.
</event>
<event>
 7    1  0.5913457E-013  0.5052887E+02  0.7816164E-02  0.1300439E+00
        -11   -1    0    0    0    0  0.00000000000E+00  0.00000000000E+00  0.45593999997E+02  0.45594000000E+02  0.51100000000E-03 0.  1.
         11   -1    0    0    0    0 -0.00000000000E+00 -0.00000000000E+00 -0.45593999997E+02  0.45594000000E+02  0.51100000000E-03 0. -1.
    9900012    2    1    2    0    0 -0.29990290892E+00 -0.14515875492E+02 -0.37978472440E+02  0.50528868775E+02  0.30000027130E+02 0.  0.
        -12    1    1    2    0    0  0.29990290892E+00  0.14515875492E+02  0.37978472440E+02  0.40659131225E+02  0.00000000000E+00 0.  1.
         11    1    3    3    0    0  0.24211534459E+01  0.11482641195E+01 -0.26936272110E+01  0.37994897433E+01  0.51100000000E-03 0. -1.
        -11    1    3    3    0    0  0.85789551028E+01 -0.23254754593E+01 -0.19667859607E+01  0.91035462345E+01  0.51100000000E-03 0.  1.
         12    1    3    3    0    0 -0.11300011458E+02 -0.13338664152E+02 -0.33318059268E+02  0.37625832798E+02  0.00000000000E+00 0. -1.
</event>
<event>
 7    1  0.5913457E-013  0.5052886E+02  0.7816164E-02  0.1300439E+00
        -11   -1    0    0    0    0  0.00000000000E+00  0.00000000000E+00  0.45593999997E+02  0.45594000000E+02  0.51100000000E-03 0.  1.
         11   -1    0    0    0    0 -0.00000000000E+00 -0.00000000000E+00 -0.45593999997E+02  0.45594000000E+02  0.51100000000E-03 0. -1.
    9900012    2    1    2    0    0 -0.15139384716E+01 -0.14742240465E+02 -0.37862118369E+02  0.50528859932E+02  0.30000000250E+02 0.  0.
        -12    1    1    2    0    0  0.15139384716E+01  0.14742240465E+02  0.37862118369E+02  0.40659140068E+02  0.00000000000E+00 0.  1.
         11    1    3    3    0    0  0.88475308473E-01 -0.10460726468E+02 -0.65477918315E+01  0.12341321009E+02  0.51100000000E-03 0. -1.
        -11    1    3    3    0    0  0.11152476467E+01  0.54145838427E+01 -0.25222994079E+00  0.55339963595E+01  0.51100000000E-03 0.  1.
         12    1    3    3    0    0 -0.27176614268E+01 -0.96960978404E+01 -0.31062096597E+02  0.32653542564E+02  0.00000000000E+00 0. -1.
</event>
<event>
 7    1  0.5913457E-013  0.5052886E+02  0.7816164E-02  0.1300439E+00
        -11   -1    0    0    0    0  0.00000000000E+00  0.00000000000E+00  0.45593999997E+02  0.45594000000E+02  0.51100000000E-03 0. -1.
         11   -1    0    0    0    0 -0.00000000000E+00 -0.00000000000E+00 -0.45593999997E+02  0.45594000000E+02  0.51100000000E-03 0.  1.
    9900012    2    1    2    0    0  0.33366842688E+02 -0.96425737651E-01 -0.23233815197E+02  0.50528860099E+02  0.30000000757E+02 0.  0.
        -12    1    1    2    0    0 -0.33366842688E+02  0.96425737651E-01  0.23233815197E+02  0.40659139901E+02  0.00000000000E+00 0.  1.
         11    1    3    3    0    0  0.91915061062E+01  0.19230126965E+01 -0.20328629807E+02  0.22392743298E+02  0.51100000000E-03 0.  1.
        -11    1    3    3    0    0  0.60978505995E-01 -0.10522378542E+01  0.30934130259E+01  0.32680464027E+01  0.51100000000E-03 0. -1.
        -12    1    3    3    0    0  0.24114358076E+02 -0.96720057999E+00 -0.59985984164E+01  0.24868070398E+02  0.00000000000E+00 0.  1.
</event>
<event>
 7    1  0.5913457E-013  0.5052885E+02  0.7816164E-02  0.1300439E+00
        -11   -1    0    0    0    0  0.00000000000E+00  0.00000000000E+00  0.45593999997E+02  0.45594000000E+02  0.51100000000E-03 0. -1.
         11   -1    0    0    0    0 -0.00000000000E+00 -0.00000000000E+00 -0.45593999997E+02  0.45594000000E+02  0.51100000000E-03 0.  1.
    9900012    2    1    2    0    0  0.61283769693E+01 -0.37974533107E+02  0.13173635174E+02  0.50528845647E+02  0.29999956829E+02 0.  0.
        -12    1    1    2    0    0 -0.61283769693E+01  0.37974533107E+02 -0.13173635174E+02  0.40659154353E+02  0.00000000000E+00 0.  1.
         11    1    3    3    0    0 -0.85846892208E+01 -0.23315944424E+02  0.90820467274E+01  0.26453992637E+02  0.51100000000E-03 0. -1.
        -11    1    3    3    0    0  0.23687198132E+01 -0.10364327479E+02  0.13074156669E+01  0.10711650369E+02  0.51100000000E-03 0.  1.
        -12    1    3    3    0    0  0.12344346377E+02 -0.42942612042E+01  0.27841727794E+01  0.13363202641E+02  0.00000000000E+00 0.  1.
</event>
<event>
 7    1  0.5913457E-013  0.5052884E+02  0.7816164E-02  0.1300439E+00
        -11   -1    0    0    0    0  0.00000000000E+00  0.00000000000E+00  0.45593999997E+02  0.45594000000E+02  0.51100000000E-03 0.  1.
         11   -1    0    0    0    0 -0.00000000000E+00 -0.00000000000E+00 -0.45593999997E+02  0.45594000000E+02  0.51100000000E-03 0. -1.
    9900012    2    1    2    0    0 -0.23578836804E+01 -0.11609835324E+02 -0.38894976899E+02  0.50528842118E+02  0.29999946103E+02 0.  0.
        -12    1    1    2    0    0  0.23578836804E+01  0.11609835324E+02  0.38894976899E+02  0.40659157882E+02  0.00000000000E+00 0.  1.
         11    1    3    3    0    0  0.34356754793E+01  0.19964960234E+01 -0.70922032240E+01  0.81295269975E+01  0.51100000000E-03 0. -1.
        -11    1    3    3    0    0  0.92985903759E+00  0.57051864912E+01 -0.14510325035E+02  0.15619325326E+02  0.51100000000E-03 0.  1.
         12    1    3    3    0    0 -0.67234181973E+01 -0.19311517839E+02 -0.17292448639E+02  0.26779989795E+02  0.00000000000E+00 0. -1.
</event>
<event>
 7    1  0.5913457E-013  0.5052885E+02  0.7816164E-02  0.1300439E+00
        -11   -1    0    0    0    0  0.00000000000E+00  0.00000000000E+00  0.45593999997E+02  0.45594000000E+02  0.51100000000E-03 0.  1.
         11   -1    0    0    0    0 -0.00000000000E+00 -0.00000000000E+00 -0.45593999997E+02  0.45594000000E+02  0.51100000000E-03 0. -1.
    9900012    2    1    2    0    0 -0.29326750173E+02 -0.95165360228E+01  0.26505534756E+02  0.50528854580E+02  0.29999983982E+02 0.  0.
        -12    1    1    2    0    0  0.29326750173E+02  0.95165360228E+01 -0.26505534756E+02  0.40659145420E+02  0.00000000000E+00 0.  1.
         11    1    3    3    0    0  0.14694622979E+01  0.46699979005E+01  0.25820936375E+01  0.55349261648E+01  0.51100000000E-03 0. -1.
        -11    1    3    3    0    0 -0.26038667806E+01 -0.12923106986E+01  0.11050339322E+02  0.11426293736E+02  0.51100000000E-03 0.  1.
         12    1    3    3    0    0 -0.28192345690E+02 -0.12894223225E+02  0.12873101796E+02  0.33567634679E+02  0.00000000000E+00 0. -1.
</event>
<event>
 7    1  0.5913457E-013  0.5052886E+02  0.7816164E-02  0.1300439E+00
        -11   -1    0    0    0    0  0.00000000000E+00  0.00000000000E+00  0.45593999997E+02  0.45594000000E+02  0.51100000000E-03 0. -1.
         11   -1    0    0    0    0 -0.00000000000E+00 -0.00000000000E+00 -0.45593999997E+02  0.45594000000E+02  0.51100000000E-03 0.  1.
    9900012    2    1    2    0    0  0.12604084915E+02  0.34570362678E+02  0.17297199155E+02  0.50528855508E+02  0.29999986802E+02 0.  0.
        -12    1    1    2    0    0 -0.12604084915E+02 -0.34570362678E+02 -0.17297199155E+02  0.40659144492E+02  0.00000000000E+00 0.  1.
         11    1    3    3    0    0  0.18284304998E+01 -0.27682740445E+00  0.20290500952E+01  0.27453298626E+01  0.51100000000E-03 0. -1.
        -11    1    3    3    0    0 -0.39210358346E+01 -0.13497698960E+01  0.65555046782E+01  0.77569995897E+01  0.51100000000E-03 0.  1.
         12    1    3    3    0    0  0.14696690249E+02  0.36196959978E+02  0.87126443818E+01  0.40026526056E+02  0.00000000000E+00 0. -1.
</event>
<event>
 7    1  0.5913457E-013  0.5052886E+02  0.7816164E-02  0.1300439E+00
        -11   -1    0    0    0    0  0.00000000000E+00  0.00000000000E+00  0.45593999997E+02  0.45594000000E+02  0.51100000000E-03 0.  1.
         11   -1    0    0    0    0 -0.00000000000E+00 -0.00000000000E+00 -0.45593999997E+02  0.45594000000E+02  0.51100000000E-03 0. -1.
    9900012    2    1    2    0    0  0.32825673525E+02 -0.17474702319E+02 -0.16440072703E+02  0.50528855223E+02  0.29999985936E+02 0.  0.
        -12    1    1    2    0    0 -0.32825673525E+02  0.17474702319E+02  0.16440072703E+02  0.40659144777E+02  0.00000000000E+00 0.  1.
         11    1    3    3    0    0  0.15782863489E+02 -0.66472334302E+01 -0.13165309883E+02  0.21601154524E+02  0.51100000000E-03 0. -1.
        -11    1    3    3    0    0  0.21162353298E+02 -0.72181334702E+01  0.34578697736E+00  0.22362160379E+02  0.51100000000E-03 0.  1.
        -12    1    3    3    0    0 -0.41195432626E+01 -0.36093354182E+01 -0.36205497974E+01  0.65655403196E+01  0.00000000000E+00 0.  1.
</event>
<event>
 7    1  0.5913457E-013  0.5052886E+02  0.7816164E-02  0.1300439E+00
        -11   -1    0    0    0    0  0.00000000000E+00  0.00000000000E+00  0.45593999997E+02  0.45594000000E+02  0.51100000000E-03 0.  1.
         11   -1    0    0    0    0 -0.00000000000E+00 -0.00000000000E+00 -0.45593999997E+02  0.45594000000E+02  0.51100000000E-03 0. -1.
    9900012    2    1    2    0    0  0.86955137919E+01 -0.55270632979E+01 -0.39331985041E+02  0.50528862822E+02  0.30000009033E+02 0.  0.
        -12    1    1    2    0    0 -0.86955137919E+01  0.55270632979E+01  0.39331985041E+02  0.40659137178E+02  0.00000000000E+00 0.  1.
         11    1    3    3    0    0  0.14406675998E+02 -0.69470683694E+01 -0.16983605593E+02  0.23329314852E+02  0.51100000000E-03 0. -1.
        -11    1    3    3    0    0 -0.19680920514E+01 -0.59162823168E+01 -0.49884914694E+01  0.79850378945E+01  0.51100000000E-03 0.  1.
         12    1    3    3    0    0 -0.37430701547E+01  0.73362873883E+01 -0.17359887978E+02  0.19214510076E+02  0.00000000000E+00 0. -1.
</event>
<event>
 7    1  0.5913457E-013  0.5052886E+02  0.7816164E-02  0.1300439E+00
        -11   -1    0    0    0    0  0.00000000000E+00  0.00000000000E+00  0.45593999997E+02  0.45594000000E+02  0.51100000000E-03 0.  1.
         11   -1    0    0    0    0 -0.00000000000E+00 -0.00000000000E+00 -0.45593999997E+02  0.45594000000E+02  0.51100000000E-03 0. -1.
    9900012    2    1    2    0    0 -0.15496128919E+02  0.23137176664E+02 -0.29626114487E+02  0.50528860621E+02  0.30000002343E+02 0.  0.
        -12    1    1    2    0    0  0.15496128919E+02 -0.23137176664E+02  0.29626114487E+02  0.40659139379E+02  0.00000000000E+00 0.  1.
         11    1    3    3    0    0 -0.28190318167E+00  0.14737479671E+02 -0.11572892961E+02  0.18740454322E+02  0.51100000000E-03 0.  1.
        -11    1    3    3    0    0 -0.94698645999E+01  0.74650061596E+01  0.77299299821E+00  0.12083135807E+02  0.51100000000E-03 0. -1.
         12    1    3    3    0    0 -0.57443611370E+01  0.93469083394E+00 -0.18826214524E+02  0.19705270491E+02  0.00000000000E+00 0. -1.
</event>
<event>
 7    1  0.5913457E-013  0.5052886E+02  0.7816164E-02  0.1300439E+00
        -11   -1    0    0    0    0  0.00000000000E+00  0.00000000000E+00  0.45593999997E+02  0.45594000000E+02  0.51100000000E-03 0.  1.
         11   -1    0    0    0    0 -0.00000000000E+00 -0.00000000000E+00 -0.45593999997E+02  0.45594000000E+02  0.51100000000E-03 0. -1.
    9900012    2    1    2    0    0 -0.19429507564E+02 -0.31591225752E+02 -0.16662966374E+02  0.50528858874E+02  0.29999997034E+02 0.  0.
        -12    1    1    2    0    0  0.19429507564E+02  0.31591225752E+02  0.16662966374E+02  0.40659141126E+02  0.00000000000E+00 0.  1.
         11    1    3    3    0    0 -0.50119153557E+01 -0.35496709945E+01  0.30658490542E+01  0.68643200964E+01  0.51100000000E-03 0. -1.
        -11    1    3    3    0    0 -0.12142672259E+02 -0.17487287359E+02 -0.13164534800E+00  0.21290069035E+02  0.51100000000E-03 0.  1.
         12    1    3    3    0    0 -0.22749199498E+01 -0.10554267399E+02 -0.19597170080E+02  0.22374469743E+02  0.00000000000E+00 0. -1.
</event>
<event>
 7    1  0.5913457E-013  0.5052886E+02  0.7816164E-02  0.1300439E+00
        -11   -1    0    0    0    0  0.00000000000E+00  0.00000000000E+00  0.45593999997E+02  0.45594000000E+02  0.51100000000E-03 0.  1.
         11   -1    0    0    0    0 -0.00000000000E+00 -0.00000000000E+00 -0.45593999997E+02  0.45594000000E+02  0.51100000000E-03 0. -1.
    9900012    2    1    2    0    0  0.33680203241E+02 -0.15333648654E+02 -0.16843054988E+02  0.50528863601E+02  0.30000011401E+02 0.  0.
        -12    1    1    2    0    0 -0.33680203241E+02  0.15333648654E+02  0.16843054988E+02  0.40659136399E+02  0.00000000000E+00 0.  1.
         11    1    3    3    0    0  0.25764941784E+02 -0.95026675513E+01 -0.90519904808E+01  0.28914900098E+02  0.51100000000E-03 0. -1.
        -11    1    3    3    0    0  0.31526726479E+01 -0.55486062290E+01  0.49063804364E+01  0.80497791993E+01  0.51100000000E-03 0.  1.
         12    1    3    3    0    0  0.47625888091E+01 -0.28237487341E+00 -0.12697444943E+02  0.13564184304E+02  0.00000000000E+00 0. -1.
</event>
<event>
 7    1  0.5913457E-013  0.5052887E+02  0.7816164E-02  0.1300439E+00
        -11   -1    0    0    0    0  0.00000000000E+00  0.00000000000E+00  0.45593999997E+02  0.45594000000E+02  0.51100000000E-03 0.  1.
         11   -1    0    0    0    0 -0.00000000000E+00 -0.00000000000E+00 -0.45593999997E+02  0.45594000000E+02  0.51100000000E-03 0. -1.
    9900012    2    1    2    0    0  0.11949628838E+02 -0.35275426122E+02 -0.16309985575E+02  0.50528868837E+02  0.30000027317E+02 0.  0.
        -12    1    1    2    0    0 -0.11949628838E+02  0.35275426122E+02  0.16309985575E+02  0.40659131163E+02  0.00000000000E+00 0.  1.
         11    1    3    3    0    0  0.92341894559E+01 -0.28341577783E+02 -0.11592109203E+02  0.31982687226E+02  0.51100000000E-03 0. -1.
        -11    1    3    3    0    0  0.95477998477E+01 -0.51863540673E+01 -0.32689891086E+01  0.11346587174E+02  0.51100000000E-03 0.  1.
        -12    1    3    3    0    0 -0.68323604652E+01 -0.17474942713E+01 -0.14488872636E+01  0.71995944371E+01  0.00000000000E+00 0.  1.
</event>
<event>
 7    1  0.5913457E-013  0.5052886E+02  0.7816164E-02  0.1300439E+00
        -11   -1    0    0    0    0  0.00000000000E+00  0.00000000000E+00  0.45593999997E+02  0.45594000000E+02  0.51100000000E-03 0. -1.
         11   -1    0    0    0    0 -0.00000000000E+00 -0.00000000000E+00 -0.45593999997E+02  0.45594000000E+02  0.51100000000E-03 0.  1.
    9900012    2    1    2    0    0 -0.18870619931E+02  0.35654339393E+02  0.50826720528E+01  0.50528858724E+02  0.29999996578E+02 0.  0.
        -12    1    1    2    0    0  0.18870619931E+02 -0.35654339393E+02 -0.50826720528E+01  0.40659141276E+02  0.00000000000E+00 0.  1.
         11    1    3    3    0    0 -0.15598070168E+02  0.17920694053E+02 -0.56251061999E+01  0.24415013584E+02  0.51100000000E-03 0. -1.
        -11    1    3    3    0    0 -0.38534096440E+01  0.17433041329E+02  0.26733973856E+01  0.18052887573E+02  0.51100000000E-03 0.  1.
         12    1    3    3    0    0  0.58085988089E+00  0.30060400984E+00  0.80343808671E+01  0.80609575666E+01  0.00000000000E+00 0. -1.
</event>
<event>
 7    1  0.5913457E-013  0.5052881E+02  0.7816164E-02  0.1300439E+00
        -11   -1    0    0    0    0  0.00000000000E+00  0.00000000000E+00  0.45593999997E+02  0.45594000000E+02  0.51100000000E-03 0. -1.
         11   -1    0    0    0    0 -0.00000000000E+00 -0.00000000000E+00 -0.45593999997E+02  0.45594000000E+02  0.51100000000E-03 0.  1.
    9900012    2    1    2    0    0  0.34322323972E+02 -0.17402946874E+02  0.13125761936E+02  0.50528805355E+02  0.29999834357E+02 0.  0.
        -12    1    1    2    0    0 -0.34322323972E+02  0.17402946874E+02 -0.13125761936E+02  0.40659194645E+02  0.00000000000E+00 0.  1.
         11    1    3    3    0    0  0.19661150162E+01 -0.97930420079E+01  0.86618352271E+01  0.13221069162E+02  0.51100000000E-03 0. -1.
        -11    1    3    3    0    0  0.67182270851E+01 -0.61537781832E+01  0.70200849411E+01  0.11501528330E+02  0.51100000000E-03 0.  1.
         12    1    3    3    0    0  0.25637981871E+02 -0.14561266830E+01 -0.25561582317E+01  0.25806207862E+02  0.00000000000E+00 0. -1.
</event>
<event>
 7    1  0.5913457E-013  0.5052886E+02  0.7816164E-02  0.1300439E+00
        -11   -1    0    0    0    0  0.00000000000E+00  0.00000000000E+00  0.45593999997E+02  0.45594000000E+02  0.51100000000E-03 0. -1.
         11   -1    0    0    0    0 -0.00000000000E+00 -0.00000000000E+00 -0.45593999997E+02  0.45594000000E+02  0.51100000000E-03 0.  1.
    9900012    2    1    2    0    0  0.32307043257E+02  0.12193390296E+02  0.21464906255E+02  0.50528855746E+02  0.29999987525E+02 0.  0.
        -12    1    1    2    0    0 -0.32307043257E+02 -0.12193390296E+02 -0.21464906255E+02  0.40659144254E+02  0.00000000000E+00 0.  1.
         11    1    3    3    0    0 -0.48438698747E+00 -0.15851218082E+01  0.78443519018E+00  0.18337340945E+01  0.51100000000E-03 0.  1.
        -11    1    3    3    0    0  0.10817887431E+02 -0.61379330942E+01  0.13144195624E+02  0.18096154011E+02  0.51100000000E-03 0. -1.
        -12    1    3    3    0    0  0.21973542813E+02  0.19916445198E+02  0.75362754408E+01  0.30598967640E+02  0.00000000000E+00 0.  1.
</event>
<event>
 7    1  0.5913457E-013  0.5052882E+02  0.7816164E-02  0.1300439E+00
        -11   -1    0    0    0    0  0.00000000000E+00  0.00000000000E+00  0.45593999997E+02  0.45594000000E+02  0.51100000000E-03 0.  1.
         11   -1    0    0    0    0 -0.00000000000E+00 -0.00000000000E+00 -0.45593999997E+02  0.45594000000E+02  0.51100000000E-03 0. -1.
    9900012    2    1    2    0    0  0.20953213369E+02 -0.23276524772E+02 -0.25929421211E+02  0.50528823418E+02  0.29999889261E+02 0.  0.
        -12    1    1    2    0    0 -0.20953213369E+02  0.23276524772E+02  0.25929421211E+02  0.40659176582E+02  0.00000000000E+00 0.  1.
         11    1    3    3    0    0  0.26461181136E+01 -0.84397863309E+01 -0.15951432826E+02  0.18239521481E+02  0.51100000000E-03 0. -1.
        -11    1    3    3    0    0  0.19158338811E+02 -0.14323697193E+02 -0.17318972478E+01  0.23983530091E+02  0.51100000000E-03 0.  1.
         12    1    3    3    0    0 -0.85124355566E+00 -0.51304124821E+00 -0.82460911373E+01  0.83057718460E+01  0.00000000000E+00 0. -1.
</event>
<event>
 7    1  0.5913457E-013  0.5052886E+02  0.7816164E-02  0.1300439E+00
        -11   -1    0    0    0    0  0.00000000000E+00  0.00000000000E+00  0.45593999997E+02  0.45594000000E+02  0.51100000000E-03 0.  1.
         11   -1    0    0    0    0 -0.00000000000E+00 -0.00000000000E+00 -0.45593999997E+02  0.45594000000E+02  0.51100000000E-03 0. -1.
    9900012    2    1    2    0    0  0.10635053703E+02 -0.10913502439E+02 -0.37695574939E+02  0.50528864830E+02  0.30000015138E+02 0.  0.
        -12    1    1    2    0    0 -0.10635053703E+02  0.10913502439E+02  0.37695574939E+02  0.40659135170E+02  0.00000000000E+00 0.  1.
         11    1    3    3    0    0  0.90424053752E+01 -0.16805504639E+01 -0.14783274725E+02  0.17410759796E+02  0.51100000000E-03 0. -1.
        -11    1    3    3    0    0  0.11130350825E+02 -0.22473020476E+01 -0.71637863579E+01  0.13425904484E+02  0.51100000000E-03 0.  1.
        -12    1    3    3    0    0 -0.95377024964E+01 -0.69856499278E+01 -0.15748513856E+02  0.19692200550E+02  0.00000000000E+00 0.  1.
</event>
<event>
 7    1  0.5913457E-013  0.5052886E+02  0.7816164E-02  0.1300439E+00
        -11   -1    0    0    0    0  0.00000000000E+00  0.00000000000E+00  0.45593999997E+02  0.45594000000E+02  0.51100000000E-03 0.  1.
         11   -1    0    0    0    0 -0.00000000000E+00 -0.00000000000E+00 -0.45593999997E+02  0.45594000000E+02  0.51100000000E-03 0. -1.
    9900012    2    1    2    0    0  0.30488906334E+02 -0.62425300805E-01 -0.26899599076E+02  0.50528859124E+02  0.29999997793E+02 0.  0.
        -12    1    1    2    0    0 -0.30488906334E+02  0.62425300805E-01  0.26899599076E+02  0.40659140876E+02  0.00000000000E+00 0.  1.
         11    1    3    3    0    0  0.51744685848E+01  0.54491745514E+01 -0.86337454550E+01  0.11445968254E+02  0.51100000000E-03 0. -1.
        -11    1    3    3    0    0 -0.32410641871E+01  0.52493671439E-02 -0.73241347167E+01  0.80092118358E+01  0.51100000000E-03 0.  1.
        -12    1    3    3    0    0  0.28555501936E+02 -0.55168492193E+01 -0.10941718904E+02  0.31073679034E+02  0.00000000000E+00 0.  1.
</event>
<event>
 7    1  0.5913457E-013  0.5052886E+02  0.7816164E-02  0.1300439E+00
        -11   -1    0    0    0    0  0.00000000000E+00  0.00000000000E+00  0.45593999997E+02  0.45594000000E+02  0.51100000000E-03 0.  1.
         11   -1    0    0    0    0 -0.00000000000E+00 -0.00000000000E+00 -0.45593999997E+02  0.45594000000E+02  0.51100000000E-03 0. -1.
    9900012    2    1    2    0    0 -0.24555844735E+02 -0.41608323604E+01 -0.32138191882E+02  0.50528863093E+02  0.30000009859E+02 0.  0.
        -12    1    1    2    0    0  0.24555844735E+02  0.41608323604E+01  0.32138191882E+02  0.40659136907E+02  0.00000000000E+00 0.  1.
         11    1    3    3    0    0 -0.26169120243E+01 -0.43717413610E+01 -0.27670221961E+01  0.57979964786E+01  0.51100000000E-03 0. -1.
        -11    1    3    3    0    0 -0.15066331697E+02 -0.12231818822E+02 -0.15107356370E+02  0.24593575569E+02  0.51100000000E-03 0.  1.
        -12    1    3    3    0    0 -0.68726010133E+01  0.12442727823E+02 -0.14263813315E+02  0.20137291046E+02  0.00000000000E+00 0.  1.
</event>
<event>
 7    1  0.5913457E-013  0.5052886E+02  0.7816164E-02  0.1300439E+00
        -11   -1    0    0    0    0  0.00000000000E+00  0.00000000000E+00  0.45593999997E+02  0.45594000000E+02  0.51100000000E-03 0.  1.
         11   -1    0    0    0    0 -0.00000000000E+00 -0.00000000000E+00 -0.45593999997E+02  0.45594000000E+02  0.51100000000E-03 0. -1.
    9900012    2    1    2    0    0 -0.31482550841E+01 -0.22799570734E+02 -0.33517665862E+02  0.50528857602E+02  0.29999993166E+02 0.  0.
        -12    1    1    2    0    0  0.31482550841E+01  0.22799570734E+02  0.33517665862E+02  0.40659142398E+02  0.00000000000E+00 0.  1.
         11    1    3    3    0    0 -0.57420271885E+01 -0.20283794409E+02 -0.25509661665E+02  0.33092990654E+02  0.51100000000E-03 0. -1.
        -11    1    3    3    0    0 -0.24643454209E+01 -0.77539035987E+01 -0.33951608905E+01  0.88160726576E+01  0.51100000000E-03 0.  1.
         12    1    3    3    0    0  0.50581175253E+01  0.52381272740E+01 -0.46128433065E+01  0.86197942904E+01  0.00000000000E+00 0. -1.
</event>
<event>
 7    1  0.5913457E-013  0.5052885E+02  0.7816164E-02  0.1300439E+00
        -11   -1    0    0    0    0  0.00000000000E+00  0.00000000000E+00  0.45593999997E+02  0.45594000000E+02  0.51100000000E-03 0. -1.
         11   -1    0    0    0    0 -0.00000000000E+00 -0.00000000000E+00 -0.45593999997E+02  0.45594000000E+02  0.51100000000E-03 0.  1.
    9900012    2    1    2    0    0  0.18291850220E+02 -0.33638968014E+02  0.13674595938E+02  0.50528849400E+02  0.29999968235E+02 0.  0.
        -12    1    1    2    0    0 -0.18291850220E+02  0.33638968014E+02 -0.13674595938E+02  0.40659150600E+02  0.00000000000E+00 0.  1.
         11    1    3    3    0    0  0.58507740417E+01 -0.97712243735E+00  0.57724448379E+01  0.82769224240E+01  0.51100000000E-03 0. -1.
        -11    1    3    3    0    0  0.13840675057E+02 -0.24969688267E+02 -0.31408952421E+01  0.28721330773E+02  0.51100000000E-03 0.  1.
         12    1    3    3    0    0 -0.13995988789E+01 -0.76921573091E+01  0.11043046342E+02  0.13530596203E+02  0.00000000000E+00 0. -1.
</event>
<event>
 7    1  0.5913457E-013  0.5052886E+02  0.7816164E-02  0.1300439E+00
        -11   -1    0    0    0    0  0.00000000000E+00  0.00000000000E+00  0.45593999997E+02  0.45594000000E+02  0.51100000000E-03 0.  1.
         11   -1    0    0    0    0 -0.00000000000E+00 -0.00000000000E+00 -0.45593999997E+02  0.45594000000E+02  0.51100000000E-03 0. -1.
    9900012    2    1    2    0    0  0.26533765913E+02 -0.73954603976E+01 -0.29907060572E+02  0.50528857854E+02  0.29999993934E+02 0.  0.
        -12    1    1    2    0    0 -0.26533765913E+02  0.73954603976E+01  0.29907060572E+02  0.40659142146E+02  0.00000000000E+00 0.  1.
         11    1    3    3    0    0  0.72134020345E+01  0.66516501020E+01 -0.37516037414E+01  0.10504863106E+02  0.51100000000E-03 0. -1.
        -11    1    3    3    0    0  0.63073752555E+01 -0.85429783116E+01 -0.37514519665E+00  0.10625732691E+02  0.51100000000E-03 0.  1.
         12    1    3    3    0    0  0.13012988623E+02 -0.55041321880E+01 -0.25780311633E+02  0.29398262057E+02  0.00000000000E+00 0. -1.
</event>
<event>
 7    1  0.5913457E-013  0.5052886E+02  0.7816164E-02  0.1300439E+00
        -11   -1    0    0    0    0  0.00000000000E+00  0.00000000000E+00  0.45593999997E+02  0.45594000000E+02  0.51100000000E-03 0.  1.
         11   -1    0    0    0    0 -0.00000000000E+00 -0.00000000000E+00 -0.45593999997E+02  0.45594000000E+02  0.51100000000E-03 0. -1.
    9900012    2    1    2    0    0 -0.15732037623E+02  0.33426468462E+02 -0.16980582562E+02  0.50528856062E+02  0.29999988487E+02 0.  0.
        -12    1    1    2    0    0  0.15732037623E+02 -0.33426468462E+02  0.16980582562E+02  0.40659143938E+02  0.00000000000E+00 0.  1.
         11    1    3    3    0    0 -0.96241333411E+01  0.18765412266E+02 -0.12853821712E+00  0.21089835523E+02  0.51100000000E-03 0. -1.
        -11    1    3    3    0    0  0.20783878201E+00  0.16977297526E+02 -0.94281780579E+01  0.19420668629E+02  0.51100000000E-03 0.  1.
        -12    1    3    3    0    0 -0.63157430635E+01 -0.23162413298E+01 -0.74238662873E+01  0.10018351910E+02  0.00000000000E+00 0.  1.
</event>
<event>
 7    1  0.5913457E-013  0.5052884E+02  0.7816164E-02  0.1300439E+00
        -11   -1    0    0    0    0  0.00000000000E+00  0.00000000000E+00  0.45593999997E+02  0.45594000000E+02  0.51100000000E-03 0. -1.
         11   -1    0    0    0    0 -0.00000000000E+00 -0.00000000000E+00 -0.45593999997E+02  0.45594000000E+02  0.51100000000E-03 0.  1.
    9900012    2    1    2    0    0  0.18543861605E+02  0.15322016303E+02  0.32779999511E+02  0.50528839228E+02  0.29999937316E+02 0.  0.
        -12    1    1    2    0    0 -0.18543861605E+02 -0.15322016303E+02 -0.32779999511E+02  0.40659160772E+02  0.00000000000E+00 0.  1.
         11    1    3    3    0    0  0.17755406071E+02  0.44393111334E+01  0.33382000536E+01  0.18603911093E+02  0.51100000000E-03 0. -1.
        -11    1    3    3    0    0  0.16032862222E+01  0.55266808069E+00  0.21918597406E+01  0.27713206421E+01  0.51100000000E-03 0.  1.
        -12    1    3    3    0    0 -0.81483068858E+00  0.10330037089E+02  0.27249939716E+02  0.29153607493E+02  0.00000000000E+00 0.  1.
</event>
<event>
 7    1  0.5913457E-013  0.5052888E+02  0.7816164E-02  0.1300439E+00
        -11   -1    0    0    0    0  0.00000000000E+00  0.00000000000E+00  0.45593999997E+02  0.45594000000E+02  0.51100000000E-03 0. -1.
         11   -1    0    0    0    0 -0.00000000000E+00 -0.00000000000E+00 -0.45593999997E+02  0.45594000000E+02  0.51100000000E-03 0.  1.
    9900012    2    1    2    0    0 -0.37589211825E+02  0.15389028116E+02 -0.18420665633E+01  0.50528877516E+02  0.30000053697E+02 0.  0.
        -12    1    1    2    0    0  0.37589211825E+02 -0.15389028116E+02  0.18420665633E+01  0.40659122484E+02  0.00000000000E+00 0.  1.
         11    1    3    3    0    0 -0.29909163889E+02  0.10690156627E+02 -0.57100713243E+01  0.32271387451E+02  0.51100000000E-03 0. -1.
        -11    1    3    3    0    0 -0.65516897463E+01 -0.14979984366E+01 -0.42731160632E+01  0.79641797442E+01  0.51100000000E-03 0.  1.
        -12    1    3    3    0    0 -0.11283581896E+01  0.61968699256E+01  0.81411208243E+01  0.10293310321E+02  0.00000000000E+00 0.  1.
</event>
<event>
 7    1  0.5913457E-013  0.5052886E+02  0.7816164E-02  0.1300439E+00
        -11   -1    0    0    0    0  0.00000000000E+00  0.00000000000E+00  0.45593999997E+02  0.45594000000E+02  0.51100000000E-03 0.  1.
         11   -1    0    0    0    0 -0.00000000000E+00 -0.00000000000E+00 -0.45593999997E+02  0.45594000000E+02  0.51100000000E-03 0. -1.
    9900012    2    1    2    0    0 -0.10303404548E+02 -0.99273395737E+00 -0.39319460657E+02  0.50528860162E+02  0.30000000948E+02 0.  0.
        -12    1    1    2    0    0  0.10303404548E+02  0.99273395737E+00  0.39319460657E+02  0.40659139838E+02  0.00000000000E+00 0.  1.
         11    1    3    3    0    0 -0.22077454802E+01  0.19040456799E+01 -0.23626851491E+02  0.23806042125E+02  0.51100000000E-03 0.  1.
        -11    1    3    3    0    0 -0.12942388099E+02 -0.72339691297E+01 -0.12867238159E+02  0.19631646319E+02  0.51100000000E-03 0. -1.
        -12    1    3    3    0    0  0.48467290315E+01  0.43371894924E+01 -0.28253710074E+01  0.70911717175E+01  0.00000000000E+00 0.  1.
</event>
<event>
 7    1  0.5913457E-013  0.5052886E+02  0.7816164E-02  0.1300439E+00
        -11   -1    0    0    0    0  0.00000000000E+00  0.00000000000E+00  0.45593999997E+02  0.45594000000E+02  0.51100000000E-03 0.  1.
         11   -1    0    0    0    0 -0.00000000000E+00 -0.00000000000E+00 -0.45593999997E+02  0.45594000000E+02  0.51100000000E-03 0. -1.
    9900012    2    1    2    0    0  0.23796241880E+02  0.18207354583E+01 -0.32917914614E+02  0.50528864400E+02  0.30000013829E+02 0.  0.
        -12    1    1    2    0    0 -0.23796241880E+02 -0.18207354583E+01  0.32917914614E+02  0.40659135600E+02  0.00000000000E+00 0.  1.
         11    1    3    3    0    0  0.17666094654E+02  0.40016141225E+01 -0.18279200796E+02  0.25733888123E+02  0.51100000000E-03 0. -1.
        -11    1    3    3    0    0  0.98754204514E+01  0.55008672741E+01 -0.98801170061E+01  0.15013333480E+02  0.51100000000E-03 0.  1.
         12    1    3    3    0    0 -0.37452732255E+01 -0.76817459382E+01 -0.47585968119E+01  0.97816427972E+01  0.00000000000E+00 0. -1.
</event>
<event>
 7    1  0.5913457E-013  0.5052887E+02  0.7816164E-02  0.1300439E+00
        -11   -1    0    0    0    0  0.00000000000E+00  0.00000000000E+00  0.45593999997E+02  0.45594000000E+02  0.51100000000E-03 0.  1.
         11   -1    0    0    0    0 -0.00000000000E+00 -0.00000000000E+00 -0.45593999997E+02  0.45594000000E+02  0.51100000000E-03 0. -1.
    9900012    2    1    2    0    0  0.28258031364E+02  0.17649526557E+02 -0.23305425003E+02  0.50528868691E+02  0.30000026872E+02 0.  0.
        -12    1    1    2    0    0 -0.28258031364E+02 -0.17649526557E+02  0.23305425003E+02  0.40659131309E+02  0.00000000000E+00 0.  1.
         11    1    3    3    0    0  0.18566991445E+02  0.23260197909E+01 -0.18590554094E+02  0.26377115862E+02  0.51100000000E-03 0. -1.
        -11    1    3    3    0    0 -0.35330089857E+01  0.35221900015E+00 -0.17472491361E+01  0.39571568735E+01  0.51100000000E-03 0.  1.
         12    1    3    3    0    0  0.13224048904E+02  0.14971287766E+02 -0.29676217729E+01  0.20194595955E+02  0.00000000000E+00 0. -1.
</event>
<event>
 7    1  0.5913457E-013  0.5052892E+02  0.7816164E-02  0.1300439E+00
        -11   -1    0    0    0    0  0.00000000000E+00  0.00000000000E+00  0.45593999997E+02  0.45594000000E+02  0.51100000000E-03 0. -1.
         11   -1    0    0    0    0 -0.00000000000E+00 -0.00000000000E+00 -0.45593999997E+02  0.45594000000E+02  0.51100000000E-03 0.  1.
    9900012    2    1    2    0    0  0.34370837996E+02 -0.18076412958E+02  0.12043636599E+02  0.50528924845E+02  0.30000197557E+02 0.  0.
        -12    1    1    2    0    0 -0.34370837996E+02  0.18076412958E+02 -0.12043636599E+02  0.40659075155E+02  0.00000000000E+00 0.  1.
         11    1    3    3    0    0  0.18447719469E+02  0.30845122330E+01  0.17443642129E+01  0.18784977405E+02  0.51100000000E-03 0. -1.
        -11    1    3    3    0    0  0.38540634939E+01  0.16585144493E+01  0.10796794723E+01  0.43324569955E+01  0.51100000000E-03 0.  1.
         12    1    3    3    0    0  0.12069055033E+02 -0.22819439640E+02  0.92195929134E+01  0.27411490444E+02  0.00000000000E+00 0. -1.
</event>
<event>
 7    1  0.5913457E-013  0.5052886E+02  0.7816164E-02  0.1300439E+00
        -11   -1    0    0    0    0  0.00000000000E+00  0.00000000000E+00  0.45593999997E+02  0.45594000000E+02  0.51100000000E-03 0.  1.
         11   -1    0    0    0    0 -0.00000000000E+00 -0.00000000000E+00 -0.45593999997E+02  0.45594000000E+02  0.51100000000E-03 0. -1.
    9900012    2    1    2    0    0  0.19227862282E+02  0.15756841341E+02 -0.32174171320E+02  0.50528855431E+02  0.29999986567E+02 0.  0.
        -12    1    1    2    0    0 -0.19227862282E+02 -0.15756841341E+02  0.32174171320E+02  0.40659144569E+02  0.00000000000E+00 0.  1.
         11    1    3    3    0    0  0.10223582521E+02  0.12926479420E+02 -0.10440917907E+02  0.19509696993E+02  0.51100000000E-03 0. -1.
        -11    1    3    3    0    0  0.17256788652E+01  0.66187926003E+01  0.94226407180E+00  0.69046538562E+01  0.51100000000E-03 0.  1.
         12    1    3    3    0    0  0.72786008954E+01 -0.37884306791E+01 -0.22675517485E+02  0.24114504581E+02  0.00000000000E+00 0. -1.
</event>
<event>
 7    1  0.5913457E-013  0.5052887E+02  0.7816164E-02  0.1300439E+00
        -11   -1    0    0    0    0  0.00000000000E+00  0.00000000000E+00  0.45593999997E+02  0.45594000000E+02  0.51100000000E-03 0. -1.
         11   -1    0    0    0    0 -0.00000000000E+00 -0.00000000000E+00 -0.45593999997E+02  0.45594000000E+02  0.51100000000E-03 0.  1.
    9900012    2    1    2    0    0  0.14102085618E+02 -0.29344776336E+02  0.24355287535E+02  0.50528871285E+02  0.30000034757E+02 0.  0.
        -12    1    1    2    0    0 -0.14102085618E+02  0.29344776336E+02 -0.24355287535E+02  0.40659128715E+02  0.00000000000E+00 0.  1.
         11    1    3    3    0    0  0.40632855171E+01 -0.13131091341E+01  0.41153620411E+01  0.59304932158E+01  0.51100000000E-03 0. -1.
        -11    1    3    3    0    0  0.18600583858E+02 -0.23708291007E+02  0.14813908970E+02  0.33578515178E+02  0.51100000000E-03 0.  1.
        -12    1    3    3    0    0 -0.85617837571E+01 -0.43233761947E+01  0.54260165236E+01  0.11019862891E+02  0.00000000000E+00 0.  1.
</event>
<event>
 7    1  0.5913457E-013  0.5052890E+02  0.7816164E-02  0.1300439E+00
        -11   -1    0    0    0    0  0.00000000000E+00  0.00000000000E+00  0.45593999997E+02  0.45594000000E+02  0.51100000000E-03 0.  1.
         11   -1    0    0    0    0 -0.00000000000E+00 -0.00000000000E+00 -0.45593999997E+02  0.45594000000E+02  0.51100000000E-03 0. -1.
    9900012    2    1    2    0    0  0.94621832427E+00  0.25721918416E+02 -0.31474589214E+02  0.50528902834E+02  0.30000130655E+02 0.  0.
        -12    1    1    2    0    0 -0.94621832427E+00 -0.25721918416E+02  0.31474589214E+02  0.40659097166E+02  0.00000000000E+00 0.  1.
         11    1    3    3    0    0 -0.47896458267E+00  0.16525593729E+02 -0.26666298481E+02  0.31375406453E+02  0.51100000000E-03 0. -1.
        -11    1    3    3    0    0 -0.58949401445E+01  0.30713462162E+01  0.25317659905E+01  0.71128985778E+01  0.51100000000E-03 0.  1.
        -12    1    3    3    0    0  0.73201230514E+01  0.61249784706E+01 -0.73400567243E+01  0.12040597804E+02  0.00000000000E+00 0.  1.
</event>
<event>
 7    1  0.5913457E-013  0.5052885E+02  0.7816164E-02  0.1300439E+00
        -11   -1    0    0    0    0  0.00000000000E+00  0.00000000000E+00  0.45593999997E+02  0.45594000000E+02  0.51100000000E-03 0.  1.
         11   -1    0    0    0    0 -0.00000000000E+00 -0.00000000000E+00 -0.45593999997E+02  0.45594000000E+02  0.51100000000E-03 0. -1.
    9900012    2    1    2    0    0  0.14758324695E+02 -0.96400938888E+01 -0.36639142199E+02  0.50528852210E+02  0.29999976776E+02 0.  0.
        -12    1    1    2    0    0 -0.14758324695E+02  0.96400938888E+01  0.36639142199E+02  0.40659147790E+02  0.00000000000E+00 0.  1.
         11    1    3    3    0    0  0.90035190277E-01 -0.72408669765E+01 -0.22054654306E+01  0.75698308392E+01  0.51100000000E-03 0. -1.
        -11    1    3    3    0    0  0.28621906976E+01 -0.56124544943E+01  0.12176305886E+00  0.63013179211E+01  0.51100000000E-03 0.  1.
         12    1    3    3    0    0  0.11806098807E+02  0.32132275820E+01 -0.34555439827E+02  0.36657703449E+02  0.00000000000E+00 0. -1.
</event>
<event>
 7    1  0.5913457E-013  0.5052885E+02  0.7816164E-02  0.1300439E+00
        -11   -1    0    0    0    0  0.00000000000E+00  0.00000000000E+00  0.45593999997E+02  0.45594000000E+02  0.51100000000E-03 0.  1.
         11   -1    0    0    0    0 -0.00000000000E+00 -0.00000000000E+00 -0.45593999997E+02  0.45594000000E+02  0.51100000000E-03 0. -1.
    9900012    2    1    2    0    0 -0.15800686195E+02 -0.16715017698E+02 -0.33527791331E+02  0.50528852291E+02  0.29999977023E+02 0.  0.
        -12    1    1    2    0    0  0.15800686195E+02  0.16715017698E+02  0.33527791331E+02  0.40659147709E+02  0.00000000000E+00 0.  1.
         11    1    3    3    0    0 -0.15781616551E+02 -0.40673831967E+01 -0.19735663846E+02  0.25594910719E+02  0.51100000000E-03 0. -1.
        -11    1    3    3    0    0 -0.81395517837E+01 -0.50176652648E+01 -0.53712878648E+01  0.10967223967E+02  0.51100000000E-03 0.  1.
        -12    1    3    3    0    0  0.81204821398E+01 -0.76299692365E+01 -0.84208396207E+01  0.13966717605E+02  0.00000000000E+00 0.  1.
</event>
<event>
 7    1  0.5913457E-013  0.5052885E+02  0.7816164E-02  0.1300439E+00
        -11   -1    0    0    0    0  0.00000000000E+00  0.00000000000E+00  0.45593999997E+02  0.45594000000E+02  0.51100000000E-03 0.  1.
         11   -1    0    0    0    0 -0.00000000000E+00 -0.00000000000E+00 -0.45593999997E+02  0.45594000000E+02  0.51100000000E-03 0. -1.
    9900012    2    1    2    0    0 -0.27158627826E+02 -0.56721660902E+01 -0.29722076350E+02  0.50528851508E+02  0.29999974645E+02 0.  0.
        -12    1    1    2    0    0  0.27158627826E+02  0.56721660902E+01  0.29722076350E+02  0.40659148492E+02  0.00000000000E+00 0.  1.
         11    1    3    3    0    0 -0.74026634657E+01 -0.10199591152E+02 -0.10732178418E+02  0.16553269765E+02  0.51100000000E-03 0.  1.
        -11    1    3    3    0    0 -0.53052126802E+01 -0.26231871376E+01 -0.16666235739E+02  0.17685864590E+02  0.51100000000E-03 0. -1.
        -12    1    3    3    0    0 -0.14450751680E+02  0.71506121999E+01 -0.23236621932E+01  0.16289717153E+02  0.00000000000E+00 0.  1.
</event>
<event>
 7    1  0.5913457E-013  0.5052887E+02  0.7816164E-02  0.1300439E+00
        -11   -1    0    0    0    0  0.00000000000E+00  0.00000000000E+00  0.45593999997E+02  0.45594000000E+02  0.51100000000E-03 0.  1.
         11   -1    0    0    0    0 -0.00000000000E+00 -0.00000000000E+00 -0.45593999997E+02  0.45594000000E+02  0.51100000000E-03 0. -1.
    9900012    2    1    2    0    0 -0.31036956738E+02  0.11661350267E+02 -0.23534766162E+02  0.50528868284E+02  0.30000025637E+02 0.  0.
        -12    1    1    2    0    0  0.31036956738E+02 -0.11661350267E+02  0.23534766162E+02  0.40659131716E+02  0.00000000000E+00 0.  1.
         11    1    3    3    0    0 -0.16486004377E+02  0.15580318153E+02 -0.21074448654E+02  0.30962348754E+02  0.51100000000E-03 0. -1.
        -11    1    3    3    0    0 -0.42476300057E+01 -0.34118883940E+01 -0.65058345975E+01  0.84858250718E+01  0.51100000000E-03 0.  1.
        -12    1    3    3    0    0 -0.10303322355E+02 -0.50707949247E+00  0.40455170887E+01  0.11080694458E+02  0.00000000000E+00 0.  1.
</event>
<event>
 7    1  0.5913457E-013  0.5052886E+02  0.7816164E-02  0.1300439E+00
        -11   -1    0    0    0    0  0.00000000000E+00  0.00000000000E+00  0.45593999997E+02  0.45594000000E+02  0.51100000000E-03 0.  1.
         11   -1    0    0    0    0 -0.00000000000E+00 -0.00000000000E+00 -0.45593999997E+02  0.45594000000E+02  0.51100000000E-03 0. -1.
    9900012    2    1    2    0    0  0.44684623213E+01  0.30314263240E+02 -0.26725336016E+02  0.50528864538E+02  0.30000014250E+02 0.  0.
        -12    1    1    2    0    0 -0.44684623213E+01 -0.30314263240E+02  0.26725336016E+02  0.40659135462E+02  0.00000000000E+00 0.  1.
         11    1    3    3    0    0  0.21406075439E+01  0.50637139751E+01 -0.55946437054E+00  0.55259750743E+01  0.51100000000E-03 0. -1.
        -11    1    3    3    0    0  0.69083323286E+01  0.33543328594E+01  0.30009936933E+01  0.82451542073E+01  0.51100000000E-03 0.  1.
         12    1    3    3    0    0 -0.45804775511E+01  0.21896216406E+02 -0.29166865339E+02  0.36757735257E+02  0.00000000000E+00 0. -1.
</event>
<event>
 7    1  0.5913457E-013  0.5052886E+02  0.7816164E-02  0.1300439E+00
        -11   -1    0    0    0    0  0.00000000000E+00  0.00000000000E+00  0.45593999997E+02  0.45594000000E+02  0.51100000000E-03 0. -1.
         11   -1    0    0    0    0 -0.00000000000E+00 -0.00000000000E+00 -0.45593999997E+02  0.45594000000E+02  0.51100000000E-03 0.  1.
    9900012    2    1    2    0    0  0.24453124598E+02  0.76481916504E+01  0.31570800480E+02  0.50528861038E+02  0.30000003612E+02 0.  0.
        -12    1    1    2    0    0 -0.24453124598E+02 -0.76481916504E+01 -0.31570800480E+02  0.40659138962E+02  0.00000000000E+00 0.  1.
         11    1    3    3    0    0 -0.21852030354E+01  0.13686724082E+01  0.27001370118E+00  0.25925439489E+01  0.51100000000E-03 0. -1.
        -11    1    3    3    0    0  0.96016552778E+01  0.11342443016E+02  0.40514721481E+01  0.15403156315E+02  0.51100000000E-03 0.  1.
        -12    1    3    3    0    0  0.17036672356E+02 -0.50629237740E+01  0.27249314631E+02  0.32533160774E+02  0.00000000000E+00 0.  1.
</event>
<event>
 7    1  0.5913457E-013  0.5052883E+02  0.7816164E-02  0.1300439E+00
        -11   -1    0    0    0    0  0.00000000000E+00  0.00000000000E+00  0.45593999997E+02  0.45594000000E+02  0.51100000000E-03 0.  1.
         11   -1    0    0    0    0 -0.00000000000E+00 -0.00000000000E+00 -0.45593999997E+02  0.45594000000E+02  0.51100000000E-03 0. -1.
    9900012    2    1    2    0    0 -0.12919159021E+02  0.31159365171E+02 -0.22701479271E+02  0.50528832907E+02  0.29999918103E+02 0.  0.
        -12    1    1    2    0    0  0.12919159021E+02 -0.31159365171E+02  0.22701479271E+02  0.40659167093E+02  0.00000000000E+00 0.  1.
         11    1    3    3    0    0  0.25456961157E+01 -0.22460406229E+00  0.10749510260E+01  0.27724602193E+01  0.51100000000E-03 0. -1.
        -11    1    3    3    0    0  0.86259439234E+00  0.53673366754E+01  0.36745658385E+01  0.65616161451E+01  0.51100000000E-03 0.  1.
         12    1    3    3    0    0 -0.16327449529E+02  0.26016632557E+02 -0.27450996135E+02  0.41194756542E+02  0.00000000000E+00 0. -1.
</event>
<event>
 7    1  0.5913457E-013  0.5052886E+02  0.7816164E-02  0.1300439E+00
        -11   -1    0    0    0    0  0.00000000000E+00  0.00000000000E+00  0.45593999997E+02  0.45594000000E+02  0.51100000000E-03 0. -1.
         11   -1    0    0    0    0 -0.00000000000E+00 -0.00000000000E+00 -0.45593999997E+02  0.45594000000E+02  0.51100000000E-03 0.  1.
    9900012    2    1    2    0    0 -0.14114329812E+02  0.37949281647E+02  0.37153023963E+01  0.50528858895E+02  0.29999997096E+02 0.  0.
        -12    1    1    2    0    0  0.14114329812E+02 -0.37949281647E+02 -0.37153023963E+01  0.40659141105E+02  0.00000000000E+00 0.  1.
         11    1    3    3    0    0 -0.58784770663E+01  0.17561940536E+01 -0.51712002517E+00  0.61569573293E+01  0.51100000000E-03 0. -1.
        -11    1    3    3    0    0 -0.16850642785E+01 -0.28812618447E+01 -0.25182627395E+01  0.41812389225E+01  0.51100000000E-03 0.  1.
         12    1    3    3    0    0 -0.65507884671E+01  0.39074349438E+02  0.67506851610E+01  0.40190662643E+02  0.00000000000E+00 0. -1.
</event>
<event>
 7    1  0.5913457E-013  0.5052887E+02  0.7816164E-02  0.1300439E+00
        -11   -1    0    0    0    0  0.00000000000E+00  0.00000000000E+00  0.45593999997E+02  0.45594000000E+02  0.51100000000E-03 0.  1.
         11   -1    0    0    0    0 -0.00000000000E+00 -0.00000000000E+00 -0.45593999997E+02  0.45594000000E+02  0.51100000000E-03 0. -1.
    9900012    2    1    2    0    0 -0.17073522836E+02 -0.35622647623E+02 -0.96273964216E+01  0.50528868584E+02  0.30000026547E+02 0.  0.
        -12    1    1    2    0    0  0.17073522836E+02  0.35622647623E+02  0.96273964216E+01  0.40659131416E+02  0.00000000000E+00 0.  1.
         11    1    3    3    0    0 -0.18728690636E+02 -0.10198665138E+02 -0.39665465176E+01  0.21691245125E+02  0.51100000000E-03 0. -1.
        -11    1    3    3    0    0 -0.13498883893E+00 -0.15199830640E+02 -0.93219330147E+01  0.17831194824E+02  0.51100000000E-03 0.  1.
        -12    1    3    3    0    0  0.17901566388E+01 -0.10224151845E+02  0.36610831108E+01  0.11006428635E+02  0.00000000000E+00 0.  1.
</event>
<event>
 7    1  0.5913457E-013  0.5052886E+02  0.7816164E-02  0.1300439E+00
        -11   -1    0    0    0    0  0.00000000000E+00  0.00000000000E+00  0.45593999997E+02  0.45594000000E+02  0.51100000000E-03 0. -1.
         11   -1    0    0    0    0 -0.00000000000E+00 -0.00000000000E+00 -0.45593999997E+02  0.45594000000E+02  0.51100000000E-03 0.  1.
    9900012    2    1    2    0    0 -0.36286275662E+02 -0.47651811105E+01 -0.17713411461E+02  0.50528859601E+02  0.29999999243E+02 0.  0.
        -12    1    1    2    0    0  0.36286275662E+02  0.47651811105E+01  0.17713411461E+02  0.40659140399E+02  0.00000000000E+00 0.  1.
         11    1    3    3    0    0 -0.88544206492E+01  0.20062827625E+01  0.26051823161E+01  0.94452586369E+01  0.51100000000E-03 0. -1.
        -11    1    3    3    0    0 -0.58351747065E+01 -0.70208239147E+01  0.26988067040E+01  0.95197053623E+01  0.51100000000E-03 0.  1.
         12    1    3    3    0    0 -0.21596680306E+02  0.24936004173E+00 -0.23017400481E+02  0.31563895602E+02  0.00000000000E+00 0. -1.
</event>
<event>
 7    1  0.5913457E-013  0.5052885E+02  0.7816164E-02  0.1300439E+00
        -11   -1    0    0    0    0  0.00000000000E+00  0.00000000000E+00  0.45593999997E+02  0.45594000000E+02  0.51100000000E-03 0. -1.
         11   -1    0    0    0    0 -0.00000000000E+00 -0.00000000000E+00 -0.45593999997E+02  0.45594000000E+02  0.51100000000E-03 0.  1.
    9900012    2    1    2    0    0  0.39052033465E+02 -0.88040716478E+01  0.71129066113E+01  0.50528850528E+02  0.29999971666E+02 0.  0.
        -12    1    1    2    0    0 -0.39052033465E+02  0.88040716478E+01 -0.71129066113E+01  0.40659149472E+02  0.00000000000E+00 0.  1.
         11    1    3    3    0    0  0.12299179021E+02 -0.31021059361E+01  0.10004307525E+02  0.16154845562E+02  0.51100000000E-03 0. -1.
        -11    1    3    3    0    0  0.90685936239E+01  0.61284609375E+01  0.45225004285E+01  0.11842737613E+02  0.51100000000E-03 0.  1.
         12    1    3    3    0    0  0.17684260820E+02 -0.11830426649E+02 -0.74139013418E+01  0.22531267354E+02  0.00000000000E+00 0. -1.
</event>
<event>
 7    1  0.8066700E-013  0.5052886E+02  0.7816164E-02  0.1300439E+00
        -11   -1    0    0    0    0  0.00000000000E+00  0.00000000000E+00  0.45593999997E+02  0.45594000000E+02  0.51100000000E-03 0.  1.
         11   -1    0    0    0    0 -0.00000000000E+00 -0.00000000000E+00 -0.45593999997E+02  0.45594000000E+02  0.51100000000E-03 0. -1.
    9900012    2    1    2    0    0  0.30783932175E+02  0.24776420606E+02 -0.95731080450E+01  0.50528857168E+02  0.29999991847E+02 0.  0.
        -12    1    1    2    0    0 -0.30783932175E+02 -0.24776420606E+02  0.95731080450E+01  0.40659142832E+02  0.00000000000E+00 0.  1.
         11    1    3    3    0    0  0.22726132577E+02  0.72455464164E+01 -0.49207414081E+01  0.24355466348E+02  0.51100000000E-03 0. -1.
        -11    1    3    3    0    0  0.26010360936E+01  0.47509877408E+01  0.64242120781E+01  0.84028432307E+01  0.51100000000E-03 0.  1.
        -12    1    3    3    0    0  0.54567635048E+01  0.12779886448E+02 -0.11076578715E+02  0.17770547589E+02  0.00000000000E+00 0.  1.
</event>
<event>
 7    1  0.5913457E-013  0.5052887E+02  0.7816164E-02  0.1300439E+00
        -11   -1    0    0    0    0  0.00000000000E+00  0.00000000000E+00  0.45593999997E+02  0.45594000000E+02  0.51100000000E-03 0.  1.
         11   -1    0    0    0    0 -0.00000000000E+00 -0.00000000000E+00 -0.45593999997E+02  0.45594000000E+02  0.51100000000E-03 0. -1.
    9900012    2    1    2    0    0  0.25401073865E+02 -0.14457645802E+02 -0.28265299435E+02  0.50528865383E+02  0.30000016818E+02 0.  0.
        -12    1    1    2    0    0 -0.25401073865E+02  0.14457645802E+02  0.28265299435E+02  0.40659134617E+02  0.00000000000E+00 0.  1.
         11    1    3    3    0    0  0.15141071047E+01  0.60993430021E+01 -0.53362312084E+01  0.82443840978E+01  0.51100000000E-03 0. -1.
        -11    1    3    3    0    0  0.14545388955E+02 -0.19784983886E+01 -0.83486364149E+01  0.16887348103E+02  0.51100000000E-03 0.  1.
         12    1    3    3    0    0  0.93415778058E+01 -0.18578490415E+02 -0.14580431812E+02  0.25397133182E+02  0.00000000000E+00 0. -1.
</event>
<event>
 7    1  0.5913457E-013  0.5052884E+02  0.7816164E-02  0.1300439E+00
        -11   -1    0    0    0    0  0.00000000000E+00  0.00000000000E+00  0.45593999997E+02  0.45594000000E+02  0.51100000000E-03 0.  1.
         11   -1    0    0    0    0 -0.00000000000E+00 -0.00000000000E+00 -0.45593999997E+02  0.45594000000E+02  0.51100000000E-03 0. -1.
    9900012    2    1    2    0    0 -0.32532610136E+02  0.19472672017E+02 -0.14683720863E+02  0.50528839456E+02  0.29999938011E+02 0.  0.
        -12    1    1    2    0    0  0.32532610136E+02 -0.19472672017E+02  0.14683720863E+02  0.40659160544E+02  0.00000000000E+00 0.  1.
         11    1    3    3    0    0 -0.41924983788E+01 -0.14031826580E+01 -0.52494175785E+00  0.44521375021E+01  0.51100000000E-03 0. -1.
        -11    1    3    3    0    0 -0.26516470811E+02  0.42522221085E+01 -0.11183130996E+02  0.29090669230E+02  0.51100000000E-03 0.  1.
        -12    1    3    3    0    0 -0.18236409460E+01  0.16623632567E+02 -0.29756481093E+01  0.16986032724E+02  0.00000000000E+00 0.  1.
</event>
<event>
 7    1  0.5913457E-013  0.5052886E+02  0.7816164E-02  0.1300439E+00
        -11   -1    0    0    0    0  0.00000000000E+00  0.00000000000E+00  0.45593999997E+02  0.45594000000E+02  0.51100000000E-03 0.  1.
         11   -1    0    0    0    0 -0.00000000000E+00 -0.00000000000E+00 -0.45593999997E+02  0.45594000000E+02  0.51100000000E-03 0. -1.
    9900012    2    1    2    0    0 -0.37755953882E+02 -0.58272479723E+01 -0.13917495302E+02  0.50528861446E+02  0.30000004851E+02 0.  0.
        -12    1    1    2    0    0  0.37755953882E+02  0.58272479723E+01  0.13917495302E+02  0.40659138554E+02  0.00000000000E+00 0.  1.
         11    1    3    3    0    0 -0.20733647782E+02  0.40149017972E+01 -0.12078595628E+01  0.21153309712E+02  0.51100000000E-03 0. -1.
        -11    1    3    3    0    0 -0.13539057547E+02  0.23637642779E+01 -0.57354736122E+01  0.14892586029E+02  0.51100000000E-03 0.  1.
         12    1    3    3    0    0 -0.34832485528E+01 -0.12205914048E+02 -0.69741621271E+01  0.14482965704E+02  0.00000000000E+00 0. -1.
</event>
<event>
 7    1  0.5913457E-013  0.5052885E+02  0.7816164E-02  0.1300439E+00
        -11   -1    0    0    0    0  0.00000000000E+00  0.00000000000E+00  0.45593999997E+02  0.45594000000E+02  0.51100000000E-03 0. -1.
         11   -1    0    0    0    0 -0.00000000000E+00 -0.00000000000E+00 -0.45593999997E+02  0.45594000000E+02  0.51100000000E-03 0.  1.
    9900012    2    1    2    0    0  0.27842255958E+02  0.21824553682E+02 -0.20041552479E+02  0.50528853600E+02  0.29999981003E+02 0.  0.
        -12    1    1    2    0    0 -0.27842255958E+02 -0.21824553682E+02  0.20041552479E+02  0.40659146400E+02  0.00000000000E+00 0.  1.
         11    1    3    3    0    0  0.84832539418E+01 -0.66022569322E+01 -0.48049525658E+01  0.11774674665E+02  0.51100000000E-03 0. -1.
        -11    1    3    3    0    0  0.40257129094E+01  0.98501382997E+00 -0.24768126399E+01  0.48281691963E+01  0.51100000000E-03 0.  1.
        -12    1    3    3    0    0  0.15333289106E+02  0.27441796784E+02 -0.12759787273E+02  0.33926009739E+02  0.00000000000E+00 0.  1.
</event>
<event>
 7    1  0.5913457E-013  0.5052887E+02  0.7816164E-02  0.1300439E+00
        -11   -1    0    0    0    0  0.00000000000E+00  0.00000000000E+00  0.45593999997E+02  0.45594000000E+02  0.51100000000E-03 0.  1.
         11   -1    0    0    0    0 -0.00000000000E+00 -0.00000000000E+00 -0.45593999997E+02  0.45594000000E+02  0.51100000000E-03 0. -1.
    9900012    2    1    2    0    0 -0.19746949575E+02 -0.57263711103E+01 -0.35077511547E+02  0.50528866217E+02  0.30000019354E+02 0.  0.
        -12    1    1    2    0    0  0.19746949575E+02  0.57263711103E+01  0.35077511547E+02  0.40659133783E+02  0.00000000000E+00 0.  1.
         11    1    3    3    0    0 -0.39384016885E+01 -0.55087791777E+01 -0.76873842934E+01  0.10244683178E+02  0.51100000000E-03 0. -1.
        -11    1    3    3    0    0 -0.16189058636E+02  0.64155682526E-01 -0.37222735111E+01  0.16611594018E+02  0.51100000000E-03 0.  1.
         12    1    3    3    0    0  0.38051074937E+00 -0.28174761508E+00 -0.23667853743E+02  0.23672589021E+02  0.00000000000E+00 0. -1.
</event>
<event>
 7    1  0.5913457E-013  0.5052883E+02  0.7816164E-02  0.1300439E+00
        -11   -1    0    0    0    0  0.00000000000E+00  0.00000000000E+00  0.45593999997E+02  0.45594000000E+02  0.51100000000E-03 0.  1.
         11   -1    0    0    0    0 -0.00000000000E+00 -0.00000000000E+00 -0.45593999997E+02  0.45594000000E+02  0.51100000000E-03 0. -1.
    9900012    2    1    2    0    0 -0.21570501817E+02  0.14621199860E+02 -0.31210611739E+02  0.50528827368E+02  0.29999901269E+02 0.  0.
        -12    1    1    2    0    0  0.21570501817E+02 -0.14621199860E+02  0.31210611739E+02  0.40659172632E+02  0.00000000000E+00 0.  1.
         11    1    3    3    0    0 -0.20605495463E+02  0.60934465493E+01 -0.87567624919E+01  0.23203392505E+02  0.51100000000E-03 0. -1.
        -11    1    3    3    0    0 -0.30825705585E+01  0.61469987841E+01 -0.28161287096E+01  0.74309095318E+01  0.51100000000E-03 0.  1.
         12    1    3    3    0    0  0.21175642046E+01  0.23807545262E+01 -0.19637720537E+02  0.19894525332E+02  0.00000000000E+00 0. -1.
</event>
<event>
 7    1  0.5913457E-013  0.5052887E+02  0.7816164E-02  0.1300439E+00
        -11   -1    0    0    0    0  0.00000000000E+00  0.00000000000E+00  0.45593999997E+02  0.45594000000E+02  0.51100000000E-03 0.  1.
         11   -1    0    0    0    0 -0.00000000000E+00 -0.00000000000E+00 -0.45593999997E+02  0.45594000000E+02  0.51100000000E-03 0. -1.
    9900012    2    1    2    0    0 -0.47945261034E+01 -0.24497602811E+02 -0.32094317051E+02  0.50528865589E+02  0.30000017444E+02 0.  0.
        -12    1    1    2    0    0  0.47945261034E+01  0.24497602811E+02  0.32094317051E+02  0.40659134411E+02  0.00000000000E+00 0.  1.
         11    1    3    3    0    0 -0.42570694806E+01 -0.79480581062E+01 -0.32098664731E+01  0.95706588727E+01  0.51100000000E-03 0. -1.
        -11    1    3    3    0    0 -0.11205450627E+02 -0.28028011579E+01 -0.13100186222E+02  0.17465185295E+02  0.51100000000E-03 0.  1.
        -12    1    3    3    0    0  0.10667994004E+02 -0.13746743547E+02 -0.15784264356E+02  0.23493021421E+02  0.00000000000E+00 0.  1.
</event>
<event>
 7    1  0.5913457E-013  0.5052887E+02  0.7816164E-02  0.1300439E+00
        -11   -1    0    0    0    0  0.00000000000E+00  0.00000000000E+00  0.45593999997E+02  0.45594000000E+02  0.51100000000E-03 0.  1.
         11   -1    0    0    0    0 -0.00000000000E+00 -0.00000000000E+00 -0.45593999997E+02  0.45594000000E+02  0.51100000000E-03 0. -1.
    9900012    2    1    2    0    0 -0.40155864053E+02 -0.60072278042E+01 -0.21411686091E+01  0.50528870561E+02  0.30000032558E+02 0.  0.
        -12    1    1    2    0    0  0.40155864053E+02  0.60072278042E+01  0.21411686091E+01  0.40659129439E+02  0.00000000000E+00 0.  1.
         11    1    3    3    0    0 -0.66154729374E+01  0.35787526762E+00 -0.30646615832E+01  0.72996375097E+01  0.51100000000E-03 0. -1.
        -11    1    3    3    0    0 -0.97720784025E+01  0.13134491810E+01 -0.11652322963E+02  0.15264183429E+02  0.51100000000E-03 0.  1.
        -12    1    3    3    0    0 -0.23768312713E+02 -0.76785522528E+01  0.12575815937E+02  0.27965049623E+02  0.00000000000E+00 0.  1.
</event>
<event>
 7    1  0.5913457E-013  0.5052883E+02  0.7816164E-02  0.1300439E+00
        -11   -1    0    0    0    0  0.00000000000E+00  0.00000000000E+00  0.45593999997E+02  0.45594000000E+02  0.51100000000E-03 0.  1.
         11   -1    0    0    0    0 -0.00000000000E+00 -0.00000000000E+00 -0.45593999997E+02  0.45594000000E+02  0.51100000000E-03 0. -1.
    9900012    2    1    2    0    0 -0.26664052486E+02 -0.16820020098E+02  0.25676518629E+02  0.50528826619E+02  0.29999898992E+02 0.  0.
        -12    1    1    2    0    0  0.26664052486E+02  0.16820020098E+02 -0.25676518629E+02  0.40659173381E+02  0.00000000000E+00 0.  1.
         11    1    3    3    0    0  0.27452760448E+01 -0.22196757804E+01 -0.68971272256E+00  0.35971106506E+01  0.51100000000E-03 0.  1.
        -11    1    3    3    0    0  0.51182226266E+00 -0.67411535018E+01  0.96081499915E+01  0.11748261960E+02  0.51100000000E-03 0. -1.
         12    1    3    3    0    0 -0.29921150793E+02 -0.78591908157E+01  0.16758081361E+02  0.35183454009E+02  0.00000000000E+00 0. -1.
</event>
<event>
 7    1  0.5913457E-013  0.5052885E+02  0.7816164E-02  0.1300439E+00
        -11   -1    0    0    0    0  0.00000000000E+00  0.00000000000E+00  0.45593999997E+02  0.45594000000E+02  0.51100000000E-03 0.  1.
         11   -1    0    0    0    0 -0.00000000000E+00 -0.00000000000E+00 -0.45593999997E+02  0.45594000000E+02  0.51100000000E-03 0. -1.
    9900012    2    1    2    0    0 -0.38244431226E+02 -0.20211691370E-01 -0.13803248172E+02  0.50528848651E+02  0.29999965960E+02 0.  0.
        -12    1    1    2    0    0  0.38244431226E+02  0.20211691370E-01  0.13803248172E+02  0.40659151349E+02  0.00000000000E+00 0.  1.
         11    1    3    3    0    0 -0.22574942751E+02  0.49668586547E+01 -0.87096898866E+01  0.24701344564E+02  0.51100000000E-03 0. -1.
        -11    1    3    3    0    0 -0.63909874974E+01 -0.31439983071E+01 -0.12110268462E+02  0.14049485721E+02  0.51100000000E-03 0.  1.
         12    1    3    3    0    0 -0.92785009778E+01 -0.18430720390E+01  0.70167101761E+01  0.11778018366E+02  0.00000000000E+00 0. -1.
</event>
<event>
 7    1  0.5913457E-013  0.5052885E+02  0.7816164E-02  0.1300439E+00
        -11   -1    0    0    0    0  0.00000000000E+00  0.00000000000E+00  0.45593999997E+02  0.45594000000E+02  0.51100000000E-03 0.  1.
         11   -1    0    0    0    0 -0.00000000000E+00 -0.00000000000E+00 -0.45593999997E+02  0.45594000000E+02  0.51100000000E-03 0. -1.
    9900012    2    1    2    0    0  0.20059278887E+02 -0.33703396065E+02  0.10717876211E+02  0.50528850399E+02  0.29999971274E+02 0.  0.
        -12    1    1    2    0    0 -0.20059278887E+02  0.33703396065E+02 -0.10717876211E+02  0.40659149601E+02  0.00000000000E+00 0.  1.
         11    1    3    3    0    0  0.21389715038E+02 -0.20442754478E+02  0.74290655027E+01  0.30506018005E+02  0.51100000000E-03 0. -1.
        -11    1    3    3    0    0  0.24404798451E+01 -0.11247026740E+02  0.77258902942E+01  0.13861491026E+02  0.51100000000E-03 0.  1.
         12    1    3    3    0    0 -0.37709159966E+01 -0.20136148472E+01 -0.44370795855E+01  0.61613413681E+01  0.00000000000E+00 0. -1.
</event>
<event>
 7    1  0.5913457E-013  0.5052886E+02  0.7816164E-02  0.1300439E+00
        -11   -1    0    0    0    0  0.00000000000E+00  0.00000000000E+00  0.45593999997E+02  0.45594000000E+02  0.51100000000E-03 0.  1.
         11   -1    0    0    0    0 -0.00000000000E+00 -0.00000000000E+00 -0.45593999997E+02  0.45594000000E+02  0.51100000000E-03 0. -1.
    9900012    2    1    2    0    0  0.32225479611E+01  0.32750865460E+02 -0.23878051906E+02  0.50528863676E+02  0.30000011631E+02 0.  0.
        -12    1    1    2    0    0 -0.32225479611E+01 -0.32750865460E+02  0.23878051906E+02  0.40659136324E+02  0.00000000000E+00 0.  1.
         11    1    3    3    0    0  0.89882474143E+01  0.80400786068E+01 -0.12752853986E+02  0.17551830122E+02  0.51100000000E-03 0. -1.
        -11    1    3    3    0    0  0.47901304198E+01  0.13028063597E+02 -0.32663546888E+00  0.13884613121E+02  0.51100000000E-03 0.  1.
        -12    1    3    3    0    0 -0.10555829873E+02  0.11682723256E+02 -0.10798562451E+02  0.19092420433E+02  0.00000000000E+00 0.  1.
</event>
<event>
 7    1  0.5913457E-013  0.5052886E+02  0.7816164E-02  0.1300439E+00
        -11   -1    0    0    0    0  0.00000000000E+00  0.00000000000E+00  0.45593999997E+02  0.45594000000E+02  0.51100000000E-03 0. -1.
         11   -1    0    0    0    0 -0.00000000000E+00 -0.00000000000E+00 -0.45593999997E+02  0.45594000000E+02  0.51100000000E-03 0.  1.
    9900012    2    1    2    0    0 -0.28888117045E+01 -0.38165766154E+02 -0.13718413523E+02  0.50528858238E+02  0.29999995101E+02 0.  0.
        -12    1    1    2    0    0  0.28888117045E+01  0.38165766154E+02  0.13718413523E+02  0.40659141762E+02  0.00000000000E+00 0.  1.
         11    1    3    3    0    0  0.77402124631E+01 -0.16965017711E+02  0.22144355573E+01  0.18778350301E+02  0.51100000000E-03 0. -1.
        -11    1    3    3    0    0 -0.69592303477E+01 -0.15514519432E+02 -0.31592283771E+01  0.17294852541E+02  0.51100000000E-03 0.  1.
        -12    1    3    3    0    0 -0.36697938199E+01 -0.56862290112E+01 -0.12773620704E+02  0.14455655396E+02  0.00000000000E+00 0.  1.
</event>
<event>
 7    1  0.5913457E-013  0.5052889E+02  0.7816164E-02  0.1300439E+00
        -11   -1    0    0    0    0  0.00000000000E+00  0.00000000000E+00  0.45593999997E+02  0.45594000000E+02  0.51100000000E-03 0.  1.
         11   -1    0    0    0    0 -0.00000000000E+00 -0.00000000000E+00 -0.45593999997E+02  0.45594000000E+02  0.51100000000E-03 0. -1.
    9900012    2    1    2    0    0 -0.25129819199E+02 -0.25937975306E+02  0.18678245509E+02  0.50528889935E+02  0.30000091448E+02 0.  0.
        -12    1    1    2    0    0  0.25129819199E+02  0.25937975306E+02 -0.18678245509E+02  0.40659110065E+02  0.00000000000E+00 0.  1.
         11    1    3    3    0    0 -0.33241879627E+01 -0.81468813892E+01  0.65231839703E+01  0.10953256655E+02  0.51100000000E-03 0. -1.
        -11    1    3    3    0    0 -0.61785105636E+01 -0.18670491980E+02  0.13518628877E+02  0.23864504825E+02  0.51100000000E-03 0.  1.
         12    1    3    3    0    0 -0.15627120672E+02  0.87939806284E+00 -0.13635673382E+01  0.15711128456E+02  0.00000000000E+00 0. -1.
</event>
<event>
 7    1  0.5913457E-013  0.5052886E+02  0.7816164E-02  0.1300439E+00
        -11   -1    0    0    0    0  0.00000000000E+00  0.00000000000E+00  0.45593999997E+02  0.45594000000E+02  0.51100000000E-03 0.  1.
         11   -1    0    0    0    0 -0.00000000000E+00 -0.00000000000E+00 -0.45593999997E+02  0.45594000000E+02  0.51100000000E-03 0. -1.
    9900012    2    1    2    0    0  0.17967422233E+02  0.32403288984E+02  0.16744084054E+02  0.50528858968E+02  0.29999997319E+02 0.  0.
        -12    1    1    2    0    0 -0.17967422233E+02 -0.32403288984E+02 -0.16744084054E+02  0.40659141032E+02  0.00000000000E+00 0.  1.
         11    1    3    3    0    0 -0.55941599927E+00 -0.19219080194E+01  0.24777823657E+01  0.31852915735E+01  0.51100000000E-03 0. -1.
        -11    1    3    3    0    0 -0.89990564640E+00 -0.29479585342E+01  0.14093732098E+01  0.33891920567E+01  0.51100000000E-03 0.  1.
         12    1    3    3    0    0  0.19426743878E+02  0.37273155537E+02  0.12856928479E+02  0.43954375338E+02  0.00000000000E+00 0. -1.
</event>
<event>
 7    1  0.5913457E-013  0.5052888E+02  0.7816164E-02  0.1300439E+00
        -11   -1    0    0    0    0  0.00000000000E+00  0.00000000000E+00  0.45593999997E+02  0.45594000000E+02  0.51100000000E-03 0.  1.
         11   -1    0    0    0    0 -0.00000000000E+00 -0.00000000000E+00 -0.45593999997E+02  0.45594000000E+02  0.51100000000E-03 0. -1.
    9900012    2    1    2    0    0  0.24347556088E+02  0.18346490711E+02 -0.26902911732E+02  0.50528882098E+02  0.30000067625E+02 0.  0.
        -12    1    1    2    0    0 -0.24347556088E+02 -0.18346490711E+02  0.26902911732E+02  0.40659117902E+02  0.00000000000E+00 0.  1.
         11    1    3    3    0    0  0.16125688327E+02 -0.32910224433E+01 -0.13010973698E+02  0.20979849608E+02  0.51100000000E-03 0. -1.
        -11    1    3    3    0    0 -0.76302793605E+00  0.62296216819E+01  0.94695985214E+00  0.63472144405E+01  0.51100000000E-03 0.  1.
        -12    1    3    3    0    0  0.89848956974E+01  0.15407891472E+02 -0.14838897886E+02  0.23201818049E+02  0.00000000000E+00 0.  1.
</event>
<event>
 7    1  0.5913457E-013  0.5052886E+02  0.7816164E-02  0.1300439E+00
        -11   -1    0    0    0    0  0.00000000000E+00  0.00000000000E+00  0.45593999997E+02  0.45594000000E+02  0.51100000000E-03 0.  1.
         11   -1    0    0    0    0 -0.00000000000E+00 -0.00000000000E+00 -0.45593999997E+02  0.45594000000E+02  0.51100000000E-03 0. -1.
    9900012    2    1    2    0    0  0.38973820332E+02 -0.81876329284E+01  0.81956880314E+01  0.50528864414E+02  0.30000013873E+02 0.  0.
        -12    1    1    2    0    0 -0.38973820332E+02  0.81876329284E+01 -0.81956880314E+01  0.40659135586E+02  0.00000000000E+00 0.  1.
         11    1    3    3    0    0  0.53024785869E+01  0.19632366132E+01  0.36665828971E+00  0.56661288131E+01  0.51100000000E-03 0. -1.
        -11    1    3    3    0    0  0.31299837273E+02  0.95876665308E+00  0.45219483820E+00  0.31317782924E+02  0.51100000000E-03 0.  1.
         12    1    3    3    0    0  0.23715044723E+01 -0.11109636195E+02  0.73768349035E+01  0.13544952677E+02  0.00000000000E+00 0. -1.
</event>
<event>
 7    1  0.5913457E-013  0.5052888E+02  0.7816164E-02  0.1300439E+00
        -11   -1    0    0    0    0  0.00000000000E+00  0.00000000000E+00  0.45593999997E+02  0.45594000000E+02  0.51100000000E-03 0.  1.
         11   -1    0    0    0    0 -0.00000000000E+00 -0.00000000000E+00 -0.45593999997E+02  0.45594000000E+02  0.51100000000E-03 0. -1.
    9900012    2    1    2    0    0 -0.15897660365E+01 -0.26259334226E+02 -0.31001361616E+02  0.50528875414E+02  0.30000047309E+02 0.  0.
        -12    1    1    2    0    0  0.15897660365E+01  0.26259334226E+02  0.31001361616E+02  0.40659124586E+02  0.00000000000E+00 0.  1.
         11    1    3    3    0    0 -0.29093654297E+01 -0.27992151024E+02 -0.30412994156E+02  0.41436398733E+02  0.51100000000E-03 0. -1.
        -11    1    3    3    0    0 -0.38612907982E+00 -0.34663600285E+01 -0.93102906330E+00  0.36099256074E+01  0.51100000000E-03 0.  1.
        -12    1    3    3    0    0  0.17057284731E+01  0.51991768271E+01  0.34266160323E+00  0.54825510738E+01  0.00000000000E+00 0.  1.
</event>
<event>
 7    1  0.5913457E-013  0.5052886E+02  0.7816164E-02  0.1300439E+00
        -11   -1    0    0    0    0  0.00000000000E+00  0.00000000000E+00  0.45593999997E+02  0.45594000000E+02  0.51100000000E-03 0. -1.
         11   -1    0    0    0    0 -0.00000000000E+00 -0.00000000000E+00 -0.45593999997E+02  0.45594000000E+02  0.51100000000E-03 0.  1.
    9900012    2    1    2    0    0 -0.21712094939E+02 -0.19562336390E+02  0.28267748891E+02  0.50528859588E+02  0.29999999202E+02 0.  0.
        -12    1    1    2    0    0  0.21712094939E+02  0.19562336390E+02 -0.28267748891E+02  0.40659140412E+02  0.00000000000E+00 0.  1.
         11    1    3    3    0    0 -0.11360737126E+02 -0.17108431838E+02  0.16204277325E+02  0.26159957796E+02  0.51100000000E-03 0. -1.
        -11    1    3    3    0    0 -0.13887482301E+02 -0.12045588383E+01  0.25874526787E+01  0.14177730364E+02  0.51100000000E-03 0.  1.
         12    1    3    3    0    0  0.35361244875E+01 -0.12493457137E+01  0.94760188879E+01  0.10191171428E+02  0.00000000000E+00 0. -1.
</event>
<event>
 7    1  0.5913457E-013  0.5052885E+02  0.7816164E-02  0.1300439E+00
        -11   -1    0    0    0    0  0.00000000000E+00  0.00000000000E+00  0.45593999997E+02  0.45594000000E+02  0.51100000000E-03 0.  1.
         11   -1    0    0    0    0 -0.00000000000E+00 -0.00000000000E+00 -0.45593999997E+02  0.45594000000E+02  0.51100000000E-03 0. -1.
    9900012    2    1    2    0    0 -0.25438777995E+02 -0.27242835792E+02 -0.16243861017E+02  0.50528849140E+02  0.29999967447E+02 0.  0.
        -12    1    1    2    0    0  0.25438777995E+02  0.27242835792E+02  0.16243861017E+02  0.40659150860E+02  0.00000000000E+00 0.  1.
         11    1    3    3    0    0 -0.23057960364E+02 -0.22351431280E+02 -0.19578764379E+02  0.37610956267E+02  0.51100000000E-03 0. -1.
        -11    1    3    3    0    0 -0.82865678115E+00 -0.54252277263E+01 -0.30820449746E+01  0.62943442415E+01  0.51100000000E-03 0.  1.
        -12    1    3    3    0    0 -0.15521608496E+01  0.53382321401E+00  0.64169483368E+01  0.66235486323E+01  0.00000000000E+00 0.  1.
</event>
<event>
 7    1  0.5913457E-013  0.5052884E+02  0.7816164E-02  0.1300439E+00
        -11   -1    0    0    0    0  0.00000000000E+00  0.00000000000E+00  0.45593999997E+02  0.45594000000E+02  0.51100000000E-03 0.  1.
         11   -1    0    0    0    0 -0.00000000000E+00 -0.00000000000E+00 -0.45593999997E+02  0.45594000000E+02  0.51100000000E-03 0. -1.
    9900012    2    1    2    0    0  0.32787771992E+00 -0.40239810165E+02  0.58152744456E+01  0.50528840604E+02  0.29999941499E+02 0.  0.
        -12    1    1    2    0    0 -0.32787771992E+00  0.40239810165E+02 -0.58152744456E+01  0.40659159396E+02  0.00000000000E+00 0.  1.
         11    1    3    3    0    0 -0.52417018805E+01 -0.32973420650E+01 -0.75616767069E+01  0.97737842302E+01  0.51100000000E-03 0. -1.
        -11    1    3    3    0    0 -0.20937749043E+01 -0.13395329304E+02  0.28864238334E+01  0.13861824675E+02  0.51100000000E-03 0.  1.
        -12    1    3    3    0    0  0.76633545047E+01 -0.23547138797E+02  0.10490527319E+02  0.26893231699E+02  0.00000000000E+00 0.  1.
</event>
<event>
 7    1  0.5913457E-013  0.5052887E+02  0.7816164E-02  0.1300439E+00
        -11   -1    0    0    0    0  0.00000000000E+00  0.00000000000E+00  0.45593999997E+02  0.45594000000E+02  0.51100000000E-03 0.  1.
         11   -1    0    0    0    0 -0.00000000000E+00 -0.00000000000E+00 -0.45593999997E+02  0.45594000000E+02  0.51100000000E-03 0. -1.
    9900012    2    1    2    0    0  0.10443000385E+02  0.38309614469E+02 -0.87454226874E+01  0.50528865285E+02  0.30000016520E+02 0.  0.
        -12    1    1    2    0    0 -0.10443000385E+02 -0.38309614469E+02  0.87454226874E+01  0.40659134715E+02  0.00000000000E+00 0.  1.
         11    1    3    3    0    0 -0.31815639049E+01  0.18155357514E+02 -0.12985215547E+02  0.22546733210E+02  0.51100000000E-03 0. -1.
        -11    1    3    3    0    0  0.39854034583E+01 -0.32094083473E+00  0.35406612795E+01  0.53406672151E+01  0.51100000000E-03 0.  1.
        -12    1    3    3    0    0  0.96391608318E+01  0.20475197789E+02  0.69913158040E+00  0.22641464860E+02  0.00000000000E+00 0.  1.
</event>
<event>
 7    1  0.5913457E-013  0.5052884E+02  0.7816164E-02  0.1300439E+00
        -11   -1    0    0    0    0  0.00000000000E+00  0.00000000000E+00  0.45593999997E+02  0.45594000000E+02  0.51100000000E-03 0.  1.
         11   -1    0    0    0    0 -0.00000000000E+00 -0.00000000000E+00 -0.45593999997E+02  0.45594000000E+02  0.51100000000E-03 0. -1.
    9900012    2    1    2    0    0  0.20322751709E+02  0.32121992529E+02  0.14433656977E+02  0.50528842424E+02  0.29999947032E+02 0.  0.
        -12    1    1    2    0    0 -0.20322751709E+02 -0.32121992529E+02 -0.14433656977E+02  0.40659157576E+02  0.00000000000E+00 0.  1.
         11    1    3    3    0    0  0.16195768221E+02  0.12024531444E+02  0.77232720296E+01  0.21599564714E+02  0.51100000000E-03 0. -1.
        -11    1    3    3    0    0  0.77543243443E+01  0.11330069129E+02  0.11852036747E+02  0.18137551870E+02  0.51100000000E-03 0.  1.
         12    1    3    3    0    0 -0.36273408568E+01  0.87673919553E+01 -0.51416517993E+01  0.10791725840E+02  0.00000000000E+00 0. -1.
</event>
<event>
 7    1  0.5913457E-013  0.5052889E+02  0.7816164E-02  0.1300439E+00
        -11   -1    0    0    0    0  0.00000000000E+00  0.00000000000E+00  0.45593999997E+02  0.45594000000E+02  0.51100000000E-03 0.  1.
         11   -1    0    0    0    0 -0.00000000000E+00 -0.00000000000E+00 -0.45593999997E+02  0.45594000000E+02  0.51100000000E-03 0. -1.
    9900012    2    1    2    0    0  0.66914493538E+01  0.55756622378E+01 -0.39715230122E+02  0.50528892687E+02  0.30000099812E+02 0.  0.
        -12    1    1    2    0    0 -0.66914493538E+01 -0.55756622378E+01  0.39715230122E+02  0.40659107313E+02  0.00000000000E+00 0.  1.
         11    1    3    3    0    0  0.70316305672E+01  0.10727556497E+02 -0.32634122216E+02  0.35064372658E+02  0.51100000000E-03 0. -1.
        -11    1    3    3    0    0  0.95973488864E-01  0.38156092872E+01 -0.49255042262E+01  0.62312661062E+01  0.51100000000E-03 0.  1.
        -12    1    3    3    0    0 -0.43615470228E+00 -0.89675035465E+01 -0.21556036797E+01  0.92332539229E+01  0.00000000000E+00 0.  1.
</event>
<event>
 7    1  0.5913457E-013  0.5052887E+02  0.7816164E-02  0.1300439E+00
        -11   -1    0    0    0    0  0.00000000000E+00  0.00000000000E+00  0.45593999997E+02  0.45594000000E+02  0.51100000000E-03 0.  1.
         11   -1    0    0    0    0 -0.00000000000E+00 -0.00000000000E+00 -0.45593999997E+02  0.45594000000E+02  0.51100000000E-03 0. -1.
    9900012    2    1    2    0    0 -0.21840458327E+02  0.28495365452E+02 -0.19083335424E+02  0.50528866179E+02  0.30000019238E+02 0.  0.
        -12    1    1    2    0    0  0.21840458327E+02 -0.28495365452E+02  0.19083335424E+02  0.40659133821E+02  0.00000000000E+00 0.  1.
         11    1    3    3    0    0 -0.10174952039E+01  0.37790894755E+01  0.21009439978E+00  0.39193052537E+01  0.51100000000E-03 0. -1.
        -11    1    3    3    0    0  0.39749787411E+00  0.18606545823E+02 -0.23144033842E+01  0.18754146617E+02  0.51100000000E-03 0.  1.
         12    1    3    3    0    0 -0.21220460997E+02  0.61097301528E+01 -0.16979026440E+02  0.27855414309E+02  0.00000000000E+00 0. -1.
</event>
<event>
 7    1  0.5913457E-013  0.5052886E+02  0.7816164E-02  0.1300439E+00
        -11   -1    0    0    0    0  0.00000000000E+00  0.00000000000E+00  0.45593999997E+02  0.45594000000E+02  0.51100000000E-03 0.  1.
         11   -1    0    0    0    0 -0.00000000000E+00 -0.00000000000E+00 -0.45593999997E+02  0.45594000000E+02  0.51100000000E-03 0. -1.
    9900012    2    1    2    0    0  0.47080801226E+01  0.68538395569E+01 -0.39799809143E+02  0.50528856588E+02  0.29999990086E+02 0.  0.
        -12    1    1    2    0    0 -0.47080801226E+01 -0.68538395569E+01  0.39799809143E+02  0.40659143412E+02  0.00000000000E+00 0.  1.
         11    1    3    3    0    0 -0.58529229539E+01  0.50531804393E+01 -0.11892506732E+02  0.14185311286E+02  0.51100000000E-03 0. -1.
        -11    1    3    3    0    0 -0.18095392618E+01  0.87974255921E+01 -0.92932158823E+01  0.12924124384E+02  0.51100000000E-03 0.  1.
         12    1    3    3    0    0  0.12370542338E+02 -0.69967664746E+01 -0.18614086530E+02  0.23419420919E+02  0.00000000000E+00 0. -1.
</event>
<event>
 7    1  0.5913457E-013  0.5052886E+02  0.7816164E-02  0.1300439E+00
        -11   -1    0    0    0    0  0.00000000000E+00  0.00000000000E+00  0.45593999997E+02  0.45594000000E+02  0.51100000000E-03 0.  1.
         11   -1    0    0    0    0 -0.00000000000E+00 -0.00000000000E+00 -0.45593999997E+02  0.45594000000E+02  0.51100000000E-03 0. -1.
    9900012    2    1    2    0    0  0.39929621775E+02 -0.34381207634E+01  0.68534834473E+01  0.50528860747E+02  0.30000002726E+02 0.  0.
        -12    1    1    2    0    0 -0.39929621775E+02  0.34381207634E+01 -0.68534834473E+01  0.40659139253E+02  0.00000000000E+00 0.  1.
         11    1    3    3    0    0  0.14818746513E+02  0.18498816798E+01  0.77830987178E+01  0.16840247514E+02  0.51100000000E-03 0. -1.
        -11    1    3    3    0    0  0.10054062864E+02 -0.37442242777E+01  0.10276250342E+02  0.14856133981E+02  0.51100000000E-03 0.  1.
        -12    1    3    3    0    0  0.15056812398E+02 -0.15437781655E+01 -0.11205865613E+02  0.18832479251E+02  0.00000000000E+00 0.  1.
</event>
<event>
 7    1  0.5913457E-013  0.5052885E+02  0.7816164E-02  0.1300439E+00
        -11   -1    0    0    0    0  0.00000000000E+00  0.00000000000E+00  0.45593999997E+02  0.45594000000E+02  0.51100000000E-03 0. -1.
         11   -1    0    0    0    0 -0.00000000000E+00 -0.00000000000E+00 -0.45593999997E+02  0.45594000000E+02  0.51100000000E-03 0.  1.
    9900012    2    1    2    0    0  0.28232220633E+02  0.25058427606E+02  0.15105736470E+02  0.50528851580E+02  0.29999974863E+02 0.  0.
        -12    1    1    2    0    0 -0.28232220633E+02 -0.25058427606E+02 -0.15105736470E+02  0.40659148420E+02  0.00000000000E+00 0.  1.
         11    1    3    3    0    0  0.22803551751E+02  0.20864164471E+02  0.84611388279E+01  0.32045377233E+02  0.51100000000E-03 0. -1.
        -11    1    3    3    0    0  0.89933397143E+01  0.52420228907E+01 -0.50958038926E+00  0.10422026465E+02  0.51100000000E-03 0.  1.
        -12    1    3    3    0    0 -0.35646708326E+01 -0.10477597550E+01  0.71541780310E+01  0.80614478817E+01  0.00000000000E+00 0.  1.
</event>
<event>
 7    1  0.5913457E-013  0.5052886E+02  0.7816164E-02  0.1300439E+00
        -11   -1    0    0    0    0  0.00000000000E+00  0.00000000000E+00  0.45593999997E+02  0.45594000000E+02  0.51100000000E-03 0.  1.
         11   -1    0    0    0    0 -0.00000000000E+00 -0.00000000000E+00 -0.45593999997E+02  0.45594000000E+02  0.51100000000E-03 0. -1.
    9900012    2    1    2    0    0 -0.38354284774E+02 -0.69717977719E+01 -0.11554605614E+02  0.50528855449E+02  0.29999986624E+02 0.  0.
        -12    1    1    2    0    0  0.38354284774E+02  0.69717977719E+01  0.11554605614E+02  0.40659144551E+02  0.00000000000E+00 0.  1.
         11    1    3    3    0    0 -0.12316501992E+02  0.47692230564E+00 -0.71503694476E+01  0.14249612616E+02  0.51100000000E-03 0. -1.
        -11    1    3    3    0    0 -0.19446558812E+00  0.63388622418E+01  0.12062977821E+01  0.64555515632E+01  0.51100000000E-03 0.  1.
        -12    1    3    3    0    0 -0.25843317193E+02 -0.13787582319E+02 -0.56105339483E+01  0.29823691270E+02  0.00000000000E+00 0.  1.
</event>
<event>
 7    1  0.5913457E-013  0.5052886E+02  0.7816164E-02  0.1300439E+00
        -11   -1    0    0    0    0  0.00000000000E+00  0.00000000000E+00  0.45593999997E+02  0.45594000000E+02  0.51100000000E-03 0.  1.
         11   -1    0    0    0    0 -0.00000000000E+00 -0.00000000000E+00 -0.45593999997E+02  0.45594000000E+02  0.51100000000E-03 0. -1.
    9900012    2    1    2    0    0 -0.29187502164E+02  0.11506280537E+02 -0.25862348579E+02  0.50528857752E+02  0.29999993623E+02 0.  0.
        -12    1    1    2    0    0  0.29187502164E+02 -0.11506280537E+02  0.25862348579E+02  0.40659142248E+02  0.00000000000E+00 0.  1.
         11    1    3    3    0    0  0.11188277778E+01  0.96710757213E+01 -0.61871786921E+01  0.11535279001E+02  0.51100000000E-03 0. -1.
        -11    1    3    3    0    0 -0.16222082311E+01  0.20214146539E+01  0.18043615606E+01  0.31580686583E+01  0.51100000000E-03 0.  1.
        -12    1    3    3    0    0 -0.28684121711E+02 -0.18620983835E+00 -0.21479531447E+02  0.35835510093E+02  0.00000000000E+00 0.  1.
</event>
<event>
 7    1  0.5913457E-013  0.5052883E+02  0.7816164E-02  0.1300439E+00
        -11   -1    0    0    0    0  0.00000000000E+00  0.00000000000E+00  0.45593999997E+02  0.45594000000E+02  0.51100000000E-03 0. -1.
         11   -1    0    0    0    0 -0.00000000000E+00 -0.00000000000E+00 -0.45593999997E+02  0.45594000000E+02  0.51100000000E-03 0.  1.
    9900012    2    1    2    0    0  0.54484541645E+01  0.34268268030E+02 -0.21193584374E+02  0.50528832951E+02  0.29999918237E+02 0.  0.
        -12    1    1    2    0    0 -0.54484541645E+01 -0.34268268030E+02  0.21193584374E+02  0.40659167049E+02  0.00000000000E+00 0.  1.
         11    1    3    3    0    0  0.99205321431E+01  0.78882734995E+01 -0.10252681903E+02  0.16302125729E+02  0.51100000000E-03 0. -1.
        -11    1    3    3    0    0 -0.35726061906E+01  0.16706000403E+02 -0.15882833717E+02  0.23326345012E+02  0.51100000000E-03 0.  1.
         12    1    3    3    0    0 -0.89947178799E+00  0.96739941269E+01  0.49419312467E+01  0.10900362210E+02  0.00000000000E+00 0. -1.
</event>
<event>
 7    1  0.5913457E-013  0.5052883E+02  0.7816164E-02  0.1300439E+00
        -11   -1    0    0    0    0  0.00000000000E+00  0.00000000000E+00  0.45593999997E+02  0.45594000000E+02  0.51100000000E-03 0.  1.
         11   -1    0    0    0    0 -0.00000000000E+00 -0.00000000000E+00 -0.45593999997E+02  0.45594000000E+02  0.51100000000E-03 0. -1.
    9900012    2    1    2    0    0 -0.23795859448E+02 -0.37473849419E+01 -0.32754885007E+02  0.50528827449E+02  0.29999901513E+02 0.  0.
        -12    1    1    2    0    0  0.23795859448E+02  0.37473849419E+01  0.32754885007E+02  0.40659172551E+02  0.00000000000E+00 0.  1.
         11    1    3    3    0    0 -0.38796170241E+01 -0.73892778585E+01 -0.13352114076E+02  0.15745850440E+02  0.51100000000E-03 0. -1.
        -11    1    3    3    0    0 -0.17337306825E+02  0.57153996796E+01 -0.23345593785E+02  0.29635531898E+02  0.51100000000E-03 0.  1.
        -12    1    3    3    0    0 -0.25789355979E+01 -0.20735067630E+01  0.39428228535E+01  0.51474451108E+01  0.00000000000E+00 0.  1.
</event>
<event>
 7    1  0.5913457E-013  0.5052888E+02  0.7816164E-02  0.1300439E+00
        -11   -1    0    0    0    0  0.00000000000E+00  0.00000000000E+00  0.45593999997E+02  0.45594000000E+02  0.51100000000E-03 0.  1.
         11   -1    0    0    0    0 -0.00000000000E+00 -0.00000000000E+00 -0.45593999997E+02  0.45594000000E+02  0.51100000000E-03 0. -1.
    9900012    2    1    2    0    0 -0.21927444137E+02 -0.13982006925E+02 -0.31254669886E+02  0.50528884002E+02  0.30000073413E+02 0.  0.
        -12    1    1    2    0    0  0.21927444137E+02  0.13982006925E+02  0.31254669886E+02  0.40659115998E+02  0.00000000000E+00 0.  1.
         11    1    3    3    0    0 -0.14905398021E+02 -0.84133889137E+01 -0.29440849736E+02  0.34054656606E+02  0.51100000000E-03 0. -1.
        -11    1    3    3    0    0 -0.24478592385E+01  0.29790217073E+01 -0.49595603632E+01  0.62820239128E+01  0.51100000000E-03 0.  1.
        -12    1    3    3    0    0 -0.45741868773E+01 -0.85476397188E+01  0.31457402123E+01  0.10192203483E+02  0.00000000000E+00 0.  1.
</event>
<event>
 7    1  0.5913457E-013  0.5052886E+02  0.7816164E-02  0.1300439E+00
        -11   -1    0    0    0    0  0.00000000000E+00  0.00000000000E+00  0.45593999997E+02  0.45594000000E+02  0.51100000000E-03 0.  1.
         11   -1    0    0    0    0 -0.00000000000E+00 -0.00000000000E+00 -0.45593999997E+02  0.45594000000E+02  0.51100000000E-03 0. -1.
    9900012    2    1    2    0    0 -0.34586807418E+02  0.19889645513E+02  0.78307301824E+01  0.50528861037E+02  0.30000003609E+02 0.  0.
        -12    1    1    2    0    0  0.34586807418E+02 -0.19889645513E+02 -0.78307301824E+01  0.40659138963E+02  0.00000000000E+00 0.  1.
         11    1    3    3    0    0  0.20481249830E+01  0.44256075942E+01  0.24231083907E+01  0.54453900740E+01  0.51100000000E-03 0. -1.
        -11    1    3    3    0    0 -0.18410789129E+01 -0.16788280689E+01  0.57797495981E+01  0.62939288943E+01  0.51100000000E-03 0.  1.
         12    1    3    3    0    0 -0.34793853488E+02  0.17142865987E+02 -0.37212780643E+00  0.38789542069E+02  0.00000000000E+00 0. -1.
</event>
<event>
 7    1  0.5913457E-013  0.5052886E+02  0.7816164E-02  0.1300439E+00
        -11   -1    0    0    0    0  0.00000000000E+00  0.00000000000E+00  0.45593999997E+02  0.45594000000E+02  0.51100000000E-03 0.  1.
         11   -1    0    0    0    0 -0.00000000000E+00 -0.00000000000E+00 -0.45593999997E+02  0.45594000000E+02  0.51100000000E-03 0. -1.
    9900012    2    1    2    0    0 -0.19115934385E+01 -0.16046323102E+02 -0.37309877462E+02  0.50528860427E+02  0.30000001754E+02 0.  0.
        -12    1    1    2    0    0  0.19115934385E+01  0.16046323102E+02  0.37309877462E+02  0.40659139573E+02  0.00000000000E+00 0.  1.
         11    1    3    3    0    0 -0.60658686110E+01 -0.19596534335E+01 -0.28169655409E+02  0.28881905922E+02  0.51100000000E-03 0. -1.
        -11    1    3    3    0    0 -0.30465229736E+01 -0.24946543515E+01  0.16307307322E+01  0.42619110202E+01  0.51100000000E-03 0.  1.
        -12    1    3    3    0    0  0.72007981462E+01 -0.11592015317E+02 -0.10770952786E+02  0.17385043485E+02  0.00000000000E+00 0.  1.
</event>
<event>
 7    1  0.5913457E-013  0.5052875E+02  0.7816164E-02  0.1300439E+00
        -11   -1    0    0    0    0  0.00000000000E+00  0.00000000000E+00  0.45593999997E+02  0.45594000000E+02  0.51100000000E-03 0.  1.
         11   -1    0    0    0    0 -0.00000000000E+00 -0.00000000000E+00 -0.45593999997E+02  0.45594000000E+02  0.51100000000E-03 0. -1.
    9900012    2    1    2    0    0 -0.37022496735E+01 -0.67320291316E+01 -0.39926779101E+02  0.50528750643E+02  0.29999668053E+02 0.  0.
        -12    1    1    2    0    0  0.37022496735E+01  0.67320291316E+01  0.39926779101E+02  0.40659249357E+02  0.00000000000E+00 0.  1.
         11    1    3    3    0    0  0.61328578641E+01 -0.47608961854E+01 -0.24789557691E+01  0.81500490818E+01  0.51100000000E-03 0. -1.
        -11    1    3    3    0    0  0.11396415034E+01  0.80777668909E+00  0.13622288264E+01  0.19511416074E+01  0.51100000000E-03 0.  1.
         12    1    3    3    0    0 -0.10974749041E+02 -0.27789096353E+01 -0.38810052159E+02  0.40427559954E+02  0.00000000000E+00 0. -1.
</event>
<event>
 7    1  0.5913457E-013  0.5052886E+02  0.7816164E-02  0.1300439E+00
        -11   -1    0    0    0    0  0.00000000000E+00  0.00000000000E+00  0.45593999997E+02  0.45594000000E+02  0.51100000000E-03 0.  1.
         11   -1    0    0    0    0 -0.00000000000E+00 -0.00000000000E+00 -0.45593999997E+02  0.45594000000E+02  0.51100000000E-03 0. -1.
    9900012    2    1    2    0    0  0.14915209857E+02  0.17726066670E+02 -0.33413901759E+02  0.50528858894E+02  0.29999997095E+02 0.  0.
        -12    1    1    2    0    0 -0.14915209857E+02 -0.17726066670E+02  0.33413901759E+02  0.40659141106E+02  0.00000000000E+00 0.  1.
         11    1    3    3    0    0  0.84240462558E+01  0.95263040165E+01 -0.19245167365E+02  0.23067108416E+02  0.51100000000E-03 0. -1.
        -11    1    3    3    0    0 -0.59246050040E+01 -0.31053803650E+01 -0.48025265620E+01  0.82345973372E+01  0.51100000000E-03 0.  1.
         12    1    3    3    0    0  0.12415768606E+02  0.11305143019E+02 -0.93662078322E+01  0.19227153141E+02  0.00000000000E+00 0. -1.
</event>
<event>
 7    1  0.5913457E-013  0.5052886E+02  0.7816164E-02  0.1300439E+00
        -11   -1    0    0    0    0  0.00000000000E+00  0.00000000000E+00  0.45593999997E+02  0.45594000000E+02  0.51100000000E-03 0.  1.
         11   -1    0    0    0    0 -0.00000000000E+00 -0.00000000000E+00 -0.45593999997E+02  0.45594000000E+02  0.51100000000E-03 0. -1.
    9900012    2    1    2    0    0  0.25988111877E+02 -0.16043536694E+01 -0.31228349506E+02  0.50528859299E+02  0.29999998326E+02 0.  0.
        -12    1    1    2    0    0 -0.25988111877E+02  0.16043536694E+01  0.31228349506E+02  0.40659140701E+02  0.00000000000E+00 0.  1.
         11    1    3    3    0    0  0.11860659318E+02 -0.13875296989E+02 -0.19088573006E+02  0.26411602103E+02  0.51100000000E-03 0. -1.
        -11    1    3    3    0    0  0.98167568605E+01  0.25450533193E+01 -0.50158132257E+01  0.11313902697E+02  0.51100000000E-03 0.  1.
        -12    1    3    3    0    0  0.43106956987E+01  0.97258900003E+01 -0.71239632747E+01  0.12803354500E+02  0.00000000000E+00 0.  1.
</event>
<event>
 7    1  0.5913457E-013  0.5052886E+02  0.7816164E-02  0.1300439E+00
        -11   -1    0    0    0    0  0.00000000000E+00  0.00000000000E+00  0.45593999997E+02  0.45594000000E+02  0.51100000000E-03 0.  1.
         11   -1    0    0    0    0 -0.00000000000E+00 -0.00000000000E+00 -0.45593999997E+02  0.45594000000E+02  0.51100000000E-03 0. -1.
    9900012    2    1    2    0    0 -0.60807500587E+01  0.68694081670E+01 -0.39610621839E+02  0.50528860163E+02  0.30000000950E+02 0.  0.
        -12    1    1    2    0    0  0.60807500587E+01 -0.68694081670E+01  0.39610621839E+02  0.40659139837E+02  0.00000000000E+00 0.  1.
         11    1    3    3    0    0  0.29342668213E+01  0.12819892103E+01 -0.10347550126E+02  0.10831676324E+02  0.51100000000E-03 0. -1.
        -11    1    3    3    0    0  0.76334865717E+00  0.13400504563E+02 -0.20164435889E+02  0.24223143864E+02  0.51100000000E-03 0.  1.
         12    1    3    3    0    0 -0.97783655372E+01 -0.78130856058E+01 -0.90986358241E+01  0.15474039974E+02  0.00000000000E+00 0. -1.
</event>
<event>
 7    1  0.5913457E-013  0.5052886E+02  0.7816164E-02  0.1300439E+00
        -11   -1    0    0    0    0  0.00000000000E+00  0.00000000000E+00  0.45593999997E+02  0.45594000000E+02  0.51100000000E-03 0.  1.
         11   -1    0    0    0    0 -0.00000000000E+00 -0.00000000000E+00 -0.45593999997E+02  0.45594000000E+02  0.51100000000E-03 0. -1.
    9900012    2    1    2    0    0 -0.21495907382E+02  0.34380656030E+02 -0.30103949351E+01  0.50528855630E+02  0.29999987172E+02 0.  0.
        -12    1    1    2    0    0  0.21495907382E+02 -0.34380656030E+02  0.30103949351E+01  0.40659144370E+02  0.00000000000E+00 0.  1.
         11    1    3    3    0    0 -0.16112182592E+02  0.18037402855E+02 -0.64706572349E+01  0.25036368246E+02  0.51100000000E-03 0. -1.
        -11    1    3    3    0    0 -0.12197232780E+02  0.89920236915E+01  0.10888585467E+01  0.15192583413E+02  0.51100000000E-03 0.  1.
         12    1    3    3    0    0  0.68135079897E+01  0.73512294840E+01  0.23714037532E+01  0.10299903971E+02  0.00000000000E+00 0. -1.
</event>
<event>
 7    1  0.5913457E-013  0.5052885E+02  0.7816164E-02  0.1300439E+00
        -11   -1    0    0    0    0  0.00000000000E+00  0.00000000000E+00  0.45593999997E+02  0.45594000000E+02  0.51100000000E-03 0.  1.
         11   -1    0    0    0    0 -0.00000000000E+00 -0.00000000000E+00 -0.45593999997E+02  0.45594000000E+02  0.51100000000E-03 0. -1.
    9900012    2    1    2    0    0 -0.28452820987E+02 -0.17625775384E+02 -0.23085389536E+02  0.50528853550E+02  0.29999980849E+02 0.  0.
        -12    1    1    2    0    0  0.28452820987E+02  0.17625775384E+02  0.23085389536E+02  0.40659146450E+02  0.00000000000E+00 0.  1.
         11    1    3    3    0    0 -0.34729601963E+01  0.28885507686E+01 -0.41223423216E+01  0.61154627417E+01  0.51100000000E-03 0. -1.
        -11    1    3    3    0    0  0.32173722499E+01  0.18197856813E+01  0.11161161799E+00  0.36980483413E+01  0.51100000000E-03 0.  1.
        -12    1    3    3    0    0 -0.28197233041E+02 -0.22334111834E+02 -0.19074658832E+02  0.40715342467E+02  0.00000000000E+00 0.  1.
</event>
<event>
 7    1  0.5913457E-013  0.5052886E+02  0.7816164E-02  0.1300439E+00
        -11   -1    0    0    0    0  0.00000000000E+00  0.00000000000E+00  0.45593999997E+02  0.45594000000E+02  0.51100000000E-03 0.  1.
         11   -1    0    0    0    0 -0.00000000000E+00 -0.00000000000E+00 -0.45593999997E+02  0.45594000000E+02  0.51100000000E-03 0. -1.
    9900012    2    1    2    0    0  0.27327790627E+02 -0.18776745291E+02 -0.23532771469E+02  0.50528860347E+02  0.30000001511E+02 0.  0.
        -12    1    1    2    0    0 -0.27327790627E+02  0.18776745291E+02  0.23532771469E+02  0.40659139653E+02  0.00000000000E+00 0.  1.
         11    1    3    3    0    0  0.19442820598E+01 -0.71054259500E+01 -0.19289439359E+01  0.76149941319E+01  0.51100000000E-03 0.  1.
        -11    1    3    3    0    0  0.21524032423E+02 -0.18360873072E+02 -0.12374096719E+02  0.30879182334E+02  0.51100000000E-03 0. -1.
         12    1    3    3    0    0  0.38594761438E+01  0.66895537311E+01 -0.92297308139E+01  0.12034683881E+02  0.00000000000E+00 0. -1.
</event>
<event>
 7    1  0.5913457E-013  0.5052887E+02  0.7816164E-02  0.1300439E+00
        -11   -1    0    0    0    0  0.00000000000E+00  0.00000000000E+00  0.45593999997E+02  0.45594000000E+02  0.51100000000E-03 0.  1.
         11   -1    0    0    0    0 -0.00000000000E+00 -0.00000000000E+00 -0.45593999997E+02  0.45594000000E+02  0.51100000000E-03 0. -1.
    9900012    2    1    2    0    0  0.20233212681E+02 -0.34037076803E+02 -0.92336130294E+01  0.50528866927E+02  0.30000021511E+02 0.  0.
        -12    1    1    2    0    0 -0.20233212681E+02  0.34037076803E+02  0.92336130294E+01  0.40659133073E+02  0.00000000000E+00 0.  1.
         11    1    3    3    0    0 -0.41329102633E+01 -0.98283478741E+01 -0.40141850329E+01  0.11392587543E+02  0.51100000000E-03 0. -1.
        -11    1    3    3    0    0  0.27994690912E+01 -0.52254519329E+01 -0.83441658144E+01  0.10235598590E+02  0.51100000000E-03 0.  1.
        -12    1    3    3    0    0  0.21566653853E+02 -0.18983276996E+02  0.31247378179E+01  0.28900680794E+02  0.00000000000E+00 0.  1.
</event>
<event>
 7    1  0.5913457E-013  0.5052886E+02  0.7816164E-02  0.1300439E+00
        -11   -1    0    0    0    0  0.00000000000E+00  0.00000000000E+00  0.45593999997E+02  0.45594000000E+02  0.51100000000E-03 0. -1.
         11   -1    0    0    0    0 -0.00000000000E+00 -0.00000000000E+00 -0.45593999997E+02  0.45594000000E+02  0.51100000000E-03 0.  1.
    9900012    2    1    2    0    0 -0.34512341551E+02  0.14215432338E+02  0.16124053925E+02  0.50528863870E+02  0.30000012219E+02 0.  0.
        -12    1    1    2    0    0  0.34512341551E+02 -0.14215432338E+02 -0.16124053925E+02  0.40659136130E+02  0.00000000000E+00 0.  1.
         11    1    3    3    0    0 -0.63239266422E+01 -0.49990367880E+01  0.11313395960E+02  0.13891556622E+02  0.51100000000E-03 0. -1.
        -11    1    3    3    0    0 -0.59644255337E+01  0.20226858001E+01  0.57445496757E+01  0.85244050250E+01  0.51100000000E-03 0.  1.
        -12    1    3    3    0    0 -0.22223989375E+02  0.17191783326E+02 -0.93389171048E+00  0.28112902223E+02  0.00000000000E+00 0.  1.
</event>
<event>
 7    1  0.5913457E-013  0.5052891E+02  0.7816164E-02  0.1300439E+00
        -11   -1    0    0    0    0  0.00000000000E+00  0.00000000000E+00  0.45593999997E+02  0.45594000000E+02  0.51100000000E-03 0.  1.
         11   -1    0    0    0    0 -0.00000000000E+00 -0.00000000000E+00 -0.45593999997E+02  0.45594000000E+02  0.51100000000E-03 0. -1.
    9900012    2    1    2    0    0 -0.14991225060E+02 -0.31702489699E+02 -0.20576123925E+02  0.50528910515E+02  0.30000154002E+02 0.  0.
        -12    1    1    2    0    0  0.14991225060E+02  0.31702489699E+02  0.20576123925E+02  0.40659089485E+02  0.00000000000E+00 0.  1.
         11    1    3    3    0    0 -0.15147626284E+02 -0.24784667141E+02 -0.93875217823E+01  0.30526314432E+02  0.51100000000E-03 0. -1.
        -11    1    3    3    0    0 -0.14608361862E+01 -0.88116923549E+00  0.35802270346E+01  0.39659207588E+01  0.51100000000E-03 0.  1.
        -12    1    3    3    0    0  0.16172374101E+01 -0.60366533229E+01 -0.14768829178E+02  0.16036675324E+02  0.00000000000E+00 0.  1.
</event>
<event>
 7    1  0.5913457E-013  0.5052887E+02  0.7816164E-02  0.1300439E+00
        -11   -1    0    0    0    0  0.00000000000E+00  0.00000000000E+00  0.45593999997E+02  0.45594000000E+02  0.51100000000E-03 0.  1.
         11   -1    0    0    0    0 -0.00000000000E+00 -0.00000000000E+00 -0.45593999997E+02  0.45594000000E+02  0.51100000000E-03 0. -1.
    9900012    2    1    2    0    0  0.38278690396E+02 -0.12432971117E+02 -0.57730478969E+01  0.50528868292E+02  0.30000025661E+02 0.  0.
        -12    1    1    2    0    0 -0.38278690396E+02  0.12432971117E+02  0.57730478969E+01  0.40659131708E+02  0.00000000000E+00 0.  1.
         11    1    3    3    0    0  0.15042857574E+02 -0.86182893553E+01  0.80746908763E+01  0.19124934207E+02  0.51100000000E-03 0.  1.
        -11    1    3    3    0    0  0.15873285641E+02 -0.60046035950E+01 -0.16106537995E+02  0.23397372242E+02  0.51100000000E-03 0. -1.
         12    1    3    3    0    0  0.73625471809E+01  0.21899218336E+01  0.22587992220E+01  0.80065618435E+01  0.00000000000E+00 0. -1.
</event>
<event>
 7    1  0.5913457E-013  0.5052886E+02  0.7816164E-02  0.1300439E+00
        -11   -1    0    0    0    0  0.00000000000E+00  0.00000000000E+00  0.45593999997E+02  0.45594000000E+02  0.51100000000E-03 0. -1.
         11   -1    0    0    0    0 -0.00000000000E+00 -0.00000000000E+00 -0.45593999997E+02  0.45594000000E+02  0.51100000000E-03 0.  1.
    9900012    2    1    2    0    0  0.93545674662E+01  0.12880319030E+02  0.37413301430E+02  0.50528859887E+02  0.30000000114E+02 0.  0.
        -12    1    1    2    0    0 -0.93545674662E+01 -0.12880319030E+02 -0.37413301430E+02  0.40659140113E+02  0.00000000000E+00 0.  1.
         11    1    3    3    0    0 -0.28548812446E+01  0.10419433229E+02  0.12119566086E+02  0.16235726596E+02  0.51100000000E-03 0. -1.
        -11    1    3    3    0    0 -0.36996265118E+01  0.58114083907E+01  0.79889026400E+01  0.10549041163E+02  0.51100000000E-03 0.  1.
        -12    1    3    3    0    0  0.15909075223E+02 -0.33505225897E+01  0.17304832704E+02  0.23744092128E+02  0.00000000000E+00 0.  1.
</event>
<event>
 7    1  0.5913457E-013  0.5052887E+02  0.7816164E-02  0.1300439E+00
        -11   -1    0    0    0    0  0.00000000000E+00  0.00000000000E+00  0.45593999997E+02  0.45594000000E+02  0.51100000000E-03 0.  1.
         11   -1    0    0    0    0 -0.00000000000E+00 -0.00000000000E+00 -0.45593999997E+02  0.45594000000E+02  0.51100000000E-03 0. -1.
    9900012    2    1    2    0    0  0.76028075778E+01 -0.21953899851E+02 -0.33367481554E+02  0.50528865393E+02  0.30000016850E+02 0.  0.
        -12    1    1    2    0    0 -0.76028075778E+01  0.21953899851E+02  0.33367481554E+02  0.40659134607E+02  0.00000000000E+00 0.  1.
         11    1    3    3    0    0 -0.85425643771E+00  0.48406465495E+01 -0.73692345054E+01  0.88581730925E+01  0.51100000000E-03 0. -1.
        -11    1    3    3    0    0 -0.14221110634E-01 -0.64062857777E+00  0.21984533764E+01  0.22899355284E+01  0.51100000000E-03 0.  1.
         12    1    3    3    0    0  0.84712851262E+01 -0.26153917822E+02 -0.28196700425E+02  0.39380756773E+02  0.00000000000E+00 0. -1.
</event>
<event>
 7    1  0.5913457E-013  0.5052885E+02  0.7816164E-02  0.1300439E+00
        -11   -1    0    0    0    0  0.00000000000E+00  0.00000000000E+00  0.45593999997E+02  0.45594000000E+02  0.51100000000E-03 0. -1.
         11   -1    0    0    0    0 -0.00000000000E+00 -0.00000000000E+00 -0.45593999997E+02  0.45594000000E+02  0.51100000000E-03 0.  1.
    9900012    2    1    2    0    0  0.35792231758E+01 -0.11175227424E+02  0.38929037999E+02  0.50528849172E+02  0.29999967543E+02 0.  0.
        -12    1    1    2    0    0 -0.35792231758E+01  0.11175227424E+02 -0.38929037999E+02  0.40659150828E+02  0.00000000000E+00 0.  1.
         11    1    3    3    0    0 -0.52030587146E+01  0.16730436594E+01  0.51687643610E+01  0.75224344700E+01  0.51100000000E-03 0. -1.
        -11    1    3    3    0    0 -0.64863571546E+01 -0.59252670107E+01  0.62184081706E+01  0.10763373947E+02  0.51100000000E-03 0.  1.
         12    1    3    3    0    0  0.15268639045E+02 -0.69230040729E+01  0.27541865468E+02  0.32243040755E+02  0.00000000000E+00 0. -1.
</event>
<event>
 7    1  0.5913457E-013  0.5052886E+02  0.7816164E-02  0.1300439E+00
        -11   -1    0    0    0    0  0.00000000000E+00  0.00000000000E+00  0.45593999997E+02  0.45594000000E+02  0.51100000000E-03 0. -1.
         11   -1    0    0    0    0 -0.00000000000E+00 -0.00000000000E+00 -0.45593999997E+02  0.45594000000E+02  0.51100000000E-03 0.  1.
    9900012    2    1    2    0    0 -0.34099548614E+02  0.15409333675E+02  0.15904043532E+02  0.50528863504E+02  0.30000011107E+02 0.  0.
        -12    1    1    2    0    0  0.34099548614E+02 -0.15409333675E+02 -0.15904043532E+02  0.40659136496E+02  0.00000000000E+00 0.  1.
         11    1    3    3    0    0 -0.57917157905E+01  0.27180475625E+01  0.94659299934E+01  0.11425217077E+02  0.51100000000E-03 0. -1.
        -11    1    3    3    0    0  0.12443969706E+01 -0.28469661839E+01  0.47460159423E+01  0.56726015071E+01  0.51100000000E-03 0.  1.
         12    1    3    3    0    0 -0.29552229794E+02  0.15538252296E+02  0.16920975959E+01  0.33431044920E+02  0.00000000000E+00 0. -1.
</event>
<event>
 7    1  0.5913457E-013  0.5052886E+02  0.7816164E-02  0.1300439E+00
        -11   -1    0    0    0    0  0.00000000000E+00  0.00000000000E+00  0.45593999997E+02  0.45594000000E+02  0.51100000000E-03 0.  1.
         11   -1    0    0    0    0 -0.00000000000E+00 -0.00000000000E+00 -0.45593999997E+02  0.45594000000E+02  0.51100000000E-03 0. -1.
    9900012    2    1    2    0    0 -0.28923621241E+02  0.65011947783E+01 -0.27826684596E+02  0.50528858655E+02  0.29999996369E+02 0.  0.
        -12    1    1    2    0    0  0.28923621241E+02 -0.65011947783E+01  0.27826684596E+02  0.40659141345E+02  0.00000000000E+00 0.  1.
         11    1    3    3    0    0 -0.24990616241E+02  0.28836979059E+01 -0.21821922793E+02  0.33302296143E+02  0.51100000000E-03 0. -1.
        -11    1    3    3    0    0 -0.65524695837E+01 -0.22345244853E+01  0.17733749914E+01  0.71465247807E+01  0.51100000000E-03 0.  1.
        -12    1    3    3    0    0  0.26194645838E+01  0.58520213578E+01 -0.77781367943E+01  0.10080037732E+02  0.00000000000E+00 0.  1.
</event>
<event>
 7    1  0.5913457E-013  0.5052887E+02  0.7816164E-02  0.1300439E+00
        -11   -1    0    0    0    0  0.00000000000E+00  0.00000000000E+00  0.45593999997E+02  0.45594000000E+02  0.51100000000E-03 0. -1.
         11   -1    0    0    0    0 -0.00000000000E+00 -0.00000000000E+00 -0.45593999997E+02  0.45594000000E+02  0.51100000000E-03 0.  1.
    9900012    2    1    2    0    0  0.10611741034E+01 -0.37657308888E+02  0.15295949237E+02  0.50528867370E+02  0.30000022858E+02 0.  0.
        -12    1    1    2    0    0 -0.10611741034E+01  0.37657308888E+02 -0.15295949237E+02  0.40659132630E+02  0.00000000000E+00 0.  1.
         11    1    3    3    0    0 -0.17512807442E+00  0.30162334483E+01  0.13744801823E+01  0.33192664988E+01  0.51100000000E-03 0. -1.
        -11    1    3    3    0    0  0.40977389838E+01 -0.17322430948E+01 -0.22036490218E+01  0.49646953774E+01  0.51100000000E-03 0.  1.
         12    1    3    3    0    0 -0.28614368059E+01 -0.38941299241E+02  0.16125118077E+02  0.42244905494E+02  0.00000000000E+00 0. -1.
</event>
<event>
 7    1  0.5913457E-013  0.5052886E+02  0.7816164E-02  0.1300439E+00
        -11   -1    0    0    0    0  0.00000000000E+00  0.00000000000E+00  0.45593999997E+02  0.45594000000E+02  0.51100000000E-03 0. -1.
         11   -1    0    0    0    0 -0.00000000000E+00 -0.00000000000E+00 -0.45593999997E+02  0.45594000000E+02  0.51100000000E-03 0.  1.
    9900012    2    1    2    0    0  0.21572648892E+02  0.34397566711E+02 -0.21433006585E+01  0.50528861869E+02  0.30000006136E+02 0.  0.
        -12    1    1    2    0    0 -0.21572648892E+02 -0.34397566711E+02  0.21433006585E+01  0.40659138131E+02  0.00000000000E+00 0.  1.
         11    1    3    3    0    0  0.22883831142E+01  0.16294368549E+02  0.46843266559E+00  0.16460940833E+02  0.51100000000E-03 0. -1.
        -11    1    3    3    0    0  0.20403807991E+02  0.19117894281E+02 -0.75018201651E+01  0.28949724841E+02  0.51100000000E-03 0.  1.
         12    1    3    3    0    0 -0.11195422132E+01 -0.10146961192E+01  0.48900868410E+01  0.51181961954E+01  0.00000000000E+00 0. -1.
</event>
<event>
 7    1  0.5913457E-013  0.5052886E+02  0.7816164E-02  0.1300439E+00
        -11   -1    0    0    0    0  0.00000000000E+00  0.00000000000E+00  0.45593999997E+02  0.45594000000E+02  0.51100000000E-03 0. -1.
         11   -1    0    0    0    0 -0.00000000000E+00 -0.00000000000E+00 -0.45593999997E+02  0.45594000000E+02  0.51100000000E-03 0.  1.
    9900012    2    1    2    0    0  0.94151390243E+01 -0.17380409953E+02  0.35530863224E+02  0.50528859153E+02  0.29999997881E+02 0.  0.
        -12    1    1    2    0    0 -0.94151390243E+01  0.17380409953E+02 -0.35530863224E+02  0.40659140847E+02  0.00000000000E+00 0.  1.
         11    1    3    3    0    0  0.10646252996E+02 -0.12092953245E+02  0.26841486105E+02  0.31305711901E+02  0.51100000000E-03 0. -1.
        -11    1    3    3    0    0  0.44371667617E+01  0.41586884054E+01  0.37964362995E+01  0.71691050321E+01  0.51100000000E-03 0.  1.
         12    1    3    3    0    0 -0.56682807329E+01 -0.94461451132E+01  0.48929408195E+01  0.12054042219E+02  0.00000000000E+00 0. -1.
</event>
<event>
 7    1  0.5913457E-013  0.5052885E+02  0.7816164E-02  0.1300439E+00
        -11   -1    0    0    0    0  0.00000000000E+00  0.00000000000E+00  0.45593999997E+02  0.45594000000E+02  0.51100000000E-03 0.  1.
         11   -1    0    0    0    0 -0.00000000000E+00 -0.00000000000E+00 -0.45593999997E+02  0.45594000000E+02  0.51100000000E-03 0. -1.
    9900012    2    1    2    0    0 -0.22177524801E+01 -0.40593044125E+02 -0.67284193613E+00  0.50528851292E+02  0.29999973987E+02 0.  0.
        -12    1    1    2    0    0  0.22177524801E+01  0.40593044125E+02  0.67284193613E+00  0.40659148708E+02  0.00000000000E+00 0.  1.
         11    1    3    3    0    0 -0.10937556551E+02 -0.85436122031E+01  0.12323145498E+01  0.13933486720E+02  0.51100000000E-03 0. -1.
        -11    1    3    3    0    0  0.18560925240E+00  0.14148216447E+01  0.12754544232E+01  0.19138848784E+01  0.51100000000E-03 0.  1.
         12    1    3    3    0    0  0.85341948181E+01 -0.33464253567E+02 -0.31806109092E+01  0.34681479693E+02  0.00000000000E+00 0. -1.
</event>
<event>
 7    1  0.5913457E-013  0.5052887E+02  0.7816164E-02  0.1300439E+00
        -11   -1    0    0    0    0  0.00000000000E+00  0.00000000000E+00  0.45593999997E+02  0.45594000000E+02  0.51100000000E-03 0. -1.
         11   -1    0    0    0    0 -0.00000000000E+00 -0.00000000000E+00 -0.45593999997E+02  0.45594000000E+02  0.51100000000E-03 0.  1.
    9900012    2    1    2    0    0 -0.29334155216E+02  0.28091801069E+02 -0.18769822953E+01  0.50528868036E+02  0.30000024882E+02 0.  0.
        -12    1    1    2    0    0  0.29334155216E+02 -0.28091801069E+02  0.18769822953E+01  0.40659131964E+02  0.00000000000E+00 0.  1.
         11    1    3    3    0    0 -0.19550469554E+02  0.41703902822E+01 -0.51536469553E+01  0.20643960184E+02  0.51100000000E-03 0. -1.
        -11    1    3    3    0    0  0.19250139249E+01 -0.27095809809E+00 -0.16625889656E+01  0.25579873400E+01  0.51100000000E-03 0.  1.
         12    1    3    3    0    0 -0.11708699587E+02  0.24192368885E+02  0.49392536255E+01  0.27326920512E+02  0.00000000000E+00 0. -1.
</event>
<event>
 7    1  0.5913457E-013  0.5052884E+02  0.7816164E-02  0.1300439E+00
        -11   -1    0    0    0    0  0.00000000000E+00  0.00000000000E+00  0.45593999997E+02  0.45594000000E+02  0.51100000000E-03 0. -1.
         11   -1    0    0    0    0 -0.00000000000E+00 -0.00000000000E+00 -0.45593999997E+02  0.45594000000E+02  0.51100000000E-03 0.  1.
    9900012    2    1    2    0    0 -0.20845234564E+02  0.23556177043E+01  0.34829506711E+02  0.50528840189E+02  0.29999940237E+02 0.  0.
        -12    1    1    2    0    0  0.20845234564E+02 -0.23556177043E+01 -0.34829506711E+02  0.40659159811E+02  0.00000000000E+00 0.  1.
         11    1    3    3    0    0 -0.12798999900E+02 -0.29741534375E+01  0.25830448142E+02  0.28980545864E+02  0.51100000000E-03 0. -1.
        -11    1    3    3    0    0 -0.72151077618E+01  0.42483021639E+01  0.14028484074E+02  0.16337203462E+02  0.51100000000E-03 0.  1.
        -12    1    3    3    0    0 -0.83112690175E+00  0.10814689779E+01 -0.50294255040E+01  0.52110908625E+01  0.00000000000E+00 0.  1.
</event>
<event>
 7    1  0.5913457E-013  0.5052886E+02  0.7816164E-02  0.1300439E+00
        -11   -1    0    0    0    0  0.00000000000E+00  0.00000000000E+00  0.45593999997E+02  0.45594000000E+02  0.51100000000E-03 0.  1.
         11   -1    0    0    0    0 -0.00000000000E+00 -0.00000000000E+00 -0.45593999997E+02  0.45594000000E+02  0.51100000000E-03 0. -1.
    9900012    2    1    2    0    0 -0.33662520861E+02  0.22166353150E+02  0.53528649018E+01  0.50528859757E+02  0.29999999717E+02 0.  0.
        -12    1    1    2    0    0  0.33662520861E+02 -0.22166353150E+02 -0.53528649018E+01  0.40659140243E+02  0.00000000000E+00 0.  1.
         11    1    3    3    0    0 -0.32120390663E+01  0.72961909407E+01  0.45547560915E+01  0.91813615832E+01  0.51100000000E-03 0. -1.
        -11    1    3    3    0    0  0.28365182258E+01 -0.18175124968E+01  0.23038566687E+01  0.40812918460E+01  0.51100000000E-03 0.  1.
         12    1    3    3    0    0 -0.33287000020E+02  0.16687674706E+02 -0.15057478584E+01  0.37266206328E+02  0.00000000000E+00 0. -1.
</event>
<event>
 7    1  0.5913457E-013  0.5052885E+02  0.7816164E-02  0.1300439E+00
        -11   -1    0    0    0    0  0.00000000000E+00  0.00000000000E+00  0.45593999997E+02  0.45594000000E+02  0.51100000000E-03 0.  1.
         11   -1    0    0    0    0 -0.00000000000E+00 -0.00000000000E+00 -0.45593999997E+02  0.45594000000E+02  0.51100000000E-03 0. -1.
    9900012    2    1    2    0    0 -0.34165490745E+02 -0.12115926553E+02 -0.18414389315E+02  0.50528853822E+02  0.29999981676E+02 0.  0.
        -12    1    1    2    0    0  0.34165490745E+02  0.12115926553E+02  0.18414389315E+02  0.40659146178E+02  0.00000000000E+00 0.  1.
         11    1    3    3    0    0 -0.92500353335E+00 -0.47048167221E+01 -0.13436093642E+02  0.14266027637E+02  0.51100000000E-03 0.  1.
        -11    1    3    3    0    0 -0.64289262717E+01 -0.51962316037E+01 -0.43761159454E+01  0.93531976840E+01  0.51100000000E-03 0. -1.
        -12    1    3    3    0    0 -0.26811560940E+02 -0.22148782274E+01 -0.60217972783E+00  0.26909628501E+02  0.00000000000E+00 0.  1.
</event>
<event>
 7    1  0.5913457E-013  0.5052886E+02  0.7816164E-02  0.1300439E+00
        -11   -1    0    0    0    0  0.00000000000E+00  0.00000000000E+00  0.45593999997E+02  0.45594000000E+02  0.51100000000E-03 0.  1.
         11   -1    0    0    0    0 -0.00000000000E+00 -0.00000000000E+00 -0.45593999997E+02  0.45594000000E+02  0.51100000000E-03 0. -1.
    9900012    2    1    2    0    0 -0.60957166132E+01  0.21315114148E+02 -0.34083334123E+02  0.50528861826E+02  0.30000006005E+02 0.  0.
        -12    1    1    2    0    0  0.60957166132E+01 -0.21315114148E+02  0.34083334123E+02  0.40659138174E+02  0.00000000000E+00 0.  1.
         11    1    3    3    0    0 -0.74672803544E+01  0.81235066748E+01 -0.74930220438E+01  0.13337804025E+02  0.51100000000E-03 0. -1.
        -11    1    3    3    0    0  0.18791389851E+01 -0.22433221947E+01  0.27620294550E+01  0.40239861787E+01  0.51100000000E-03 0.  1.
         12    1    3    3    0    0 -0.50757524401E+00  0.15434929668E+02 -0.29352341534E+02  0.33167071622E+02  0.00000000000E+00 0. -1.
</event>
<event>
 7    1  0.5913457E-013  0.5052886E+02  0.7816164E-02  0.1300439E+00
        -11   -1    0    0    0    0  0.00000000000E+00  0.00000000000E+00  0.45593999997E+02  0.45594000000E+02  0.51100000000E-03 0.  1.
         11   -1    0    0    0    0 -0.00000000000E+00 -0.00000000000E+00 -0.45593999997E+02  0.45594000000E+02  0.51100000000E-03 0. -1.
    9900012    2    1    2    0    0 -0.21885591256E+02  0.17200439659E+02 -0.29636661226E+02  0.50528856899E+02  0.29999991031E+02 0.  0.
        -12    1    1    2    0    0  0.21885591256E+02 -0.17200439659E+02  0.29636661226E+02  0.40659143101E+02  0.00000000000E+00 0.  1.
         11    1    3    3    0    0 -0.42151861385E+01 -0.18611910695E+01 -0.10518738193E+02  0.11483713677E+02  0.51100000000E-03 0. -1.
        -11    1    3    3    0    0 -0.12722848814E+02 -0.43828966962E+00 -0.12565243576E+02  0.17887099434E+02  0.51100000000E-03 0.  1.
        -12    1    3    3    0    0 -0.49475563038E+01  0.19499920398E+02 -0.65526794567E+01  0.21158043789E+02  0.00000000000E+00 0.  1.
</event>
<event>
 7    1  0.5913457E-013  0.5052887E+02  0.7816164E-02  0.1300439E+00
        -11   -1    0    0    0    0  0.00000000000E+00  0.00000000000E+00  0.45593999997E+02  0.45594000000E+02  0.51100000000E-03 0.  1.
         11   -1    0    0    0    0 -0.00000000000E+00 -0.00000000000E+00 -0.45593999997E+02  0.45594000000E+02  0.51100000000E-03 0. -1.
    9900012    2    1    2    0    0  0.62485871760E+01 -0.12232473525E+02 -0.38268614917E+02  0.50528866489E+02  0.30000020180E+02 0.  0.
        -12    1    1    2    0    0 -0.62485871760E+01  0.12232473525E+02  0.38268614917E+02  0.40659133511E+02  0.00000000000E+00 0.  1.
         11    1    3    3    0    0 -0.65683179250E+01 -0.37867816694E+01 -0.39192725734E+01  0.85348235800E+01  0.51100000000E-03 0. -1.
        -11    1    3    3    0    0  0.50983210607E+01  0.57170523701E+01 -0.78231730404E+01  0.10948954385E+02  0.51100000000E-03 0.  1.
        -12    1    3    3    0    0  0.77185840404E+01 -0.14162744225E+02 -0.26526169303E+02  0.31045088524E+02  0.00000000000E+00 0.  1.
</event>
<event>
 7    1  0.5913457E-013  0.5052886E+02  0.7816164E-02  0.1300439E+00
        -11   -1    0    0    0    0  0.00000000000E+00  0.00000000000E+00  0.45593999997E+02  0.45594000000E+02  0.51100000000E-03 0. -1.
         11   -1    0    0    0    0 -0.00000000000E+00 -0.00000000000E+00 -0.45593999997E+02  0.45594000000E+02  0.51100000000E-03 0.  1.
    9900012    2    1    2    0    0  0.23602470697E+02  0.33107222655E+02  0.31460803157E-01  0.50528858289E+02  0.29999995256E+02 0.  0.
        -12    1    1    2    0    0 -0.23602470697E+02 -0.33107222655E+02 -0.31460803157E-01  0.40659141711E+02  0.00000000000E+00 0.  1.
         11    1    3    3    0    0  0.70028862156E+01  0.38107876835E+00 -0.46010104379E+01  0.83877847902E+01  0.51100000000E-03 0. -1.
        -11    1    3    3    0    0  0.49080781958E+01  0.91719411261E+01 -0.78504515892E+01  0.13032395252E+02  0.51100000000E-03 0.  1.
         12    1    3    3    0    0  0.11691506285E+02  0.23554202760E+02  0.12482922830E+02  0.29108678247E+02  0.00000000000E+00 0. -1.
</event>
<event>
 7    1  0.5913457E-013  0.5052886E+02  0.7816164E-02  0.1300439E+00
        -11   -1    0    0    0    0  0.00000000000E+00  0.00000000000E+00  0.45593999997E+02  0.45594000000E+02  0.51100000000E-03 0. -1.
         11   -1    0    0    0    0 -0.00000000000E+00 -0.00000000000E+00 -0.45593999997E+02  0.45594000000E+02  0.51100000000E-03 0.  1.
    9900012    2    1    2    0    0  0.18562080345E+02  0.25832340750E+02  0.25323995964E+02  0.50528862934E+02  0.30000009376E+02 0.  0.
        -12    1    1    2    0    0 -0.18562080345E+02 -0.25832340750E+02 -0.25323995964E+02  0.40659137066E+02  0.00000000000E+00 0.  1.
         11    1    3    3    0    0  0.68341991289E+01  0.10453676608E+02  0.74745946634E+00  0.12511767592E+02  0.51100000000E-03 0. -1.
        -11    1    3    3    0    0  0.36796203476E+01 -0.34388227983E+01 -0.11267452197E+01  0.51608781415E+01  0.51100000000E-03 0.  1.
         12    1    3    3    0    0  0.80482608687E+01  0.18817486940E+02  0.25703281717E+02  0.32856217201E+02  0.00000000000E+00 0. -1.
</event>
<event>
 7    1  0.5913457E-013  0.5052886E+02  0.7816164E-02  0.1300439E+00
        -11   -1    0    0    0    0  0.00000000000E+00  0.00000000000E+00  0.45593999997E+02  0.45594000000E+02  0.51100000000E-03 0. -1.
         11   -1    0    0    0    0 -0.00000000000E+00 -0.00000000000E+00 -0.45593999997E+02  0.45594000000E+02  0.51100000000E-03 0.  1.
    9900012    2    1    2    0    0  0.19119932623E+02  0.83389203027E+01  0.34900657911E+02  0.50528864029E+02  0.30000012702E+02 0.  0.
        -12    1    1    2    0    0 -0.19119932623E+02 -0.83389203027E+01 -0.34900657911E+02  0.40659135971E+02  0.00000000000E+00 0.  1.
         11    1    3    3    0    0  0.91093188546E+01  0.35078519964E+00  0.14981712460E+02  0.17537230361E+02  0.51100000000E-03 0. -1.
        -11    1    3    3    0    0  0.98152515783E+01  0.64514527592E+01  0.25031127675E+02  0.27649914271E+02  0.51100000000E-03 0.  1.
        -12    1    3    3    0    0  0.19536219053E+00  0.15366823438E+01 -0.51121822246E+01  0.53417193963E+01  0.00000000000E+00 0.  1.
</event>
<event>
 7    1  0.5913457E-013  0.5052886E+02  0.7816164E-02  0.1300439E+00
        -11   -1    0    0    0    0  0.00000000000E+00  0.00000000000E+00  0.45593999997E+02  0.45594000000E+02  0.51100000000E-03 0.  1.
         11   -1    0    0    0    0 -0.00000000000E+00 -0.00000000000E+00 -0.45593999997E+02  0.45594000000E+02  0.51100000000E-03 0. -1.
    9900012    2    1    2    0    0  0.29434764982E+02  0.17220019682E+02 -0.22141159864E+02  0.50528862927E+02  0.30000009353E+02 0.  0.
        -12    1    1    2    0    0 -0.29434764982E+02 -0.17220019682E+02  0.22141159864E+02  0.40659137073E+02  0.00000000000E+00 0.  1.
         11    1    3    3    0    0 -0.56828304550E+00 -0.16972715881E+01  0.35783136853E+00  0.18252999789E+01  0.51100000000E-03 0.  1.
        -11    1    3    3    0    0  0.57689737821E+01  0.57222583203E+00 -0.16809418171E+02  0.17781030353E+02  0.51100000000E-03 0. -1.
         12    1    3    3    0    0  0.24234074245E+02  0.18345065438E+02 -0.56895730612E+01  0.30922532595E+02  0.00000000000E+00 0. -1.
</event>
<event>
 7    1  0.5913457E-013  0.5052885E+02  0.7816164E-02  0.1300439E+00
        -11   -1    0    0    0    0  0.00000000000E+00  0.00000000000E+00  0.45593999997E+02  0.45594000000E+02  0.51100000000E-03 0.  1.
         11   -1    0    0    0    0 -0.00000000000E+00 -0.00000000000E+00 -0.45593999997E+02  0.45594000000E+02  0.51100000000E-03 0. -1.
    9900012    2    1    2    0    0  0.72369119000E+01  0.37601042578E+02  0.13673145884E+02  0.50528853241E+02  0.29999979911E+02 0.  0.
        -12    1    1    2    0    0 -0.72369119000E+01 -0.37601042578E+02 -0.13673145884E+02  0.40659146759E+02  0.00000000000E+00 0.  1.
         11    1    3    3    0    0  0.27683317522E+01  0.15871180896E+02 -0.58862401614E+01  0.17152430359E+02  0.51100000000E-03 0. -1.
        -11    1    3    3    0    0  0.94386643641E+00  0.10658420090E+02  0.86379688967E-01  0.10700479633E+02  0.51100000000E-03 0.  1.
        -12    1    3    3    0    0  0.35247137114E+01  0.11071441593E+02  0.19473006356E+02  0.22675943249E+02  0.00000000000E+00 0.  1.
</event>
<event>
 7    1  0.5913457E-013  0.5052886E+02  0.7816164E-02  0.1300439E+00
        -11   -1    0    0    0    0  0.00000000000E+00  0.00000000000E+00  0.45593999997E+02  0.45594000000E+02  0.51100000000E-03 0.  1.
         11   -1    0    0    0    0 -0.00000000000E+00 -0.00000000000E+00 -0.45593999997E+02  0.45594000000E+02  0.51100000000E-03 0. -1.
    9900012    2    1    2    0    0 -0.18340687549E+02 -0.30645106418E+02 -0.19433533706E+02  0.50528860813E+02  0.30000002927E+02 0.  0.
        -12    1    1    2    0    0  0.18340687549E+02  0.30645106418E+02  0.19433533706E+02  0.40659139187E+02  0.00000000000E+00 0.  1.
         11    1    3    3    0    0 -0.70152100392E+01 -0.91794409851E+01 -0.61212462935E+01  0.13074592351E+02  0.51100000000E-03 0. -1.
        -11    1    3    3    0    0 -0.35210198250E+01  0.22938118266E-02 -0.14164739241E+02  0.14595801585E+02  0.51100000000E-03 0.  1.
         12    1    3    3    0    0 -0.78044576848E+01 -0.21467959244E+02  0.85245182836E+00  0.22858466878E+02  0.00000000000E+00 0. -1.
</event>
<event>
 7    1  0.5913457E-013  0.5052887E+02  0.7816164E-02  0.1300439E+00
        -11   -1    0    0    0    0  0.00000000000E+00  0.00000000000E+00  0.45593999997E+02  0.45594000000E+02  0.51100000000E-03 0.  1.
         11   -1    0    0    0    0 -0.00000000000E+00 -0.00000000000E+00 -0.45593999997E+02  0.45594000000E+02  0.51100000000E-03 0. -1.
    9900012    2    1    2    0    0  0.62333625367E+01 -0.16108506041E+02 -0.36807961853E+02  0.50528870261E+02  0.30000031644E+02 0.  0.
        -12    1    1    2    0    0 -0.62333625367E+01  0.16108506041E+02  0.36807961853E+02  0.40659129739E+02  0.00000000000E+00 0.  1.
         11    1    3    3    0    0  0.50551748588E+01 -0.25817985501E+01 -0.15923038885E+02  0.16904545075E+02  0.51100000000E-03 0. -1.
        -11    1    3    3    0    0 -0.99314813296E+01 -0.52384116809E+01 -0.14565355624E+02  0.18390890763E+02  0.51100000000E-03 0.  1.
        -12    1    3    3    0    0  0.11109669008E+02 -0.82882958101E+01 -0.63195673444E+01  0.15233434423E+02  0.00000000000E+00 0.  1.
</event>
<event>
 7    1  0.5913457E-013  0.5052889E+02  0.7816164E-02  0.1300439E+00
        -11   -1    0    0    0    0  0.00000000000E+00  0.00000000000E+00  0.45593999997E+02  0.45594000000E+02  0.51100000000E-03 0.  1.
         11   -1    0    0    0    0 -0.00000000000E+00 -0.00000000000E+00 -0.45593999997E+02  0.45594000000E+02  0.51100000000E-03 0. -1.
    9900012    2    1    2    0    0  0.23975447590E+02  0.13740000799E+02 -0.29825386078E+02  0.50528888305E+02  0.30000086493E+02 0.  0.
        -12    1    1    2    0    0 -0.23975447590E+02 -0.13740000799E+02  0.29825386078E+02  0.40659111695E+02  0.00000000000E+00 0.  1.
         11    1    3    3    0    0 -0.15518364610E+01  0.64744830772E+01 -0.18155473295E+02  0.19337743879E+02  0.51100000000E-03 0. -1.
        -11    1    3    3    0    0  0.30653187244E+01 -0.15332975653E+00 -0.61902644901E+01  0.69093461062E+01  0.51100000000E-03 0.  1.
        -12    1    3    3    0    0  0.22461965326E+02  0.74188474786E+01 -0.54796482931E+01  0.24281798320E+02  0.00000000000E+00 0.  1.
</event>
<event>
 7    1  0.5913457E-013  0.5052884E+02  0.7816164E-02  0.1300439E+00
        -11   -1    0    0    0    0  0.00000000000E+00  0.00000000000E+00  0.45593999997E+02  0.45594000000E+02  0.51100000000E-03 0. -1.
         11   -1    0    0    0    0 -0.00000000000E+00 -0.00000000000E+00 -0.45593999997E+02  0.45594000000E+02  0.51100000000E-03 0.  1.
    9900012    2    1    2    0    0  0.16517143206E+01  0.51214260179E+01  0.40301485999E+02  0.50528844348E+02  0.29999952879E+02 0.  0.
        -12    1    1    2    0    0 -0.16517143206E+01 -0.51214260179E+01 -0.40301485999E+02  0.40659155652E+02  0.00000000000E+00 0.  1.
         11    1    3    3    0    0 -0.26865641992E+01  0.18141789356E+01  0.64302505231E+01  0.72011800740E+01  0.51100000000E-03 0. -1.
        -11    1    3    3    0    0 -0.93374930431E+01  0.58265584347E+00  0.36463482484E+01  0.10041121450E+02  0.51100000000E-03 0.  1.
        -12    1    3    3    0    0  0.13675771563E+02  0.27245912388E+01  0.30224887227E+02  0.33286542824E+02  0.00000000000E+00 0.  1.
</event>
<event>
 7    1  0.5913457E-013  0.5052890E+02  0.7816164E-02  0.1300439E+00
        -11   -1    0    0    0    0  0.00000000000E+00  0.00000000000E+00  0.45593999997E+02  0.45594000000E+02  0.51100000000E-03 0.  1.
         11   -1    0    0    0    0 -0.00000000000E+00 -0.00000000000E+00 -0.45593999997E+02  0.45594000000E+02  0.51100000000E-03 0. -1.
    9900012    2    1    2    0    0 -0.25974272470E+02  0.15631869373E+02  0.27095093394E+02  0.50528901923E+02  0.30000127885E+02 0.  0.
        -12    1    1    2    0    0  0.25974272470E+02 -0.15631869373E+02 -0.27095093394E+02  0.40659098077E+02  0.00000000000E+00 0.  1.
         11    1    3    3    0    0 -0.32416248722E+01  0.75235939375E+01  0.61500594509E+01  0.10243819066E+02  0.51100000000E-03 0. -1.
        -11    1    3    3    0    0 -0.42383812326E+01  0.12418196666E+02  0.15941389015E+02  0.20647115244E+02  0.51100000000E-03 0.  1.
        -12    1    3    3    0    0 -0.18494266365E+02 -0.43099212307E+01  0.50036449275E+01  0.19637967613E+02  0.00000000000E+00 0.  1.
</event>
<event>
 7    1  0.5913457E-013  0.5052886E+02  0.7816164E-02  0.1300439E+00
        -11   -1    0    0    0    0  0.00000000000E+00  0.00000000000E+00  0.45593999997E+02  0.45594000000E+02  0.51100000000E-03 0. -1.
         11   -1    0    0    0    0 -0.00000000000E+00 -0.00000000000E+00 -0.45593999997E+02  0.45594000000E+02  0.51100000000E-03 0.  1.
    9900012    2    1    2    0    0 -0.12176199808E+02 -0.38314108228E+02  0.60774348517E+01  0.50528856558E+02  0.29999989994E+02 0.  0.
        -12    1    1    2    0    0  0.12176199808E+02  0.38314108228E+02 -0.60774348517E+01  0.40659143442E+02  0.00000000000E+00 0.  1.
         11    1    3    3    0    0 -0.35125327063E+01 -0.45506687871E+01  0.48326919537E+01  0.75100854991E+01  0.51100000000E-03 0. -1.
        -11    1    3    3    0    0 -0.30320788180E+01 -0.25293638949E+02  0.12048716471E+02  0.28180369800E+02  0.51100000000E-03 0.  1.
        -12    1    3    3    0    0 -0.56315882836E+01 -0.84698004918E+01 -0.10803973573E+02  0.14838401259E+02  0.00000000000E+00 0.  1.
</event>
<event>
 7    1  0.5913457E-013  0.5052885E+02  0.7816164E-02  0.1300439E+00
        -11   -1    0    0    0    0  0.00000000000E+00  0.00000000000E+00  0.45593999997E+02  0.45594000000E+02  0.51100000000E-03 0.  1.
         11   -1    0    0    0    0 -0.00000000000E+00 -0.00000000000E+00 -0.45593999997E+02  0.45594000000E+02  0.51100000000E-03 0. -1.
    9900012    2    1    2    0    0 -0.33778742125E+02  0.54497330919E+01 -0.21965042795E+02  0.50528854468E+02  0.29999983642E+02 0.  0.
        -12    1    1    2    0    0  0.33778742125E+02 -0.54497330919E+01  0.21965042795E+02  0.40659145532E+02  0.00000000000E+00 0.  1.
         11    1    3    3    0    0  0.36217384987E+00  0.21460225817E+00 -0.20328066612E+01  0.20759400785E+01  0.51100000000E-03 0.  1.
        -11    1    3    3    0    0 -0.32997982706E+02 -0.19327543093E-01 -0.24737887790E+02  0.41241124243E+02  0.51100000000E-03 0. -1.
        -12    1    3    3    0    0 -0.11429332692E+01  0.52544583768E+01  0.48056516557E+01  0.72117901473E+01  0.00000000000E+00 0.  1.
</event>
<event>
 7    1  0.5913457E-013  0.5052886E+02  0.7816164E-02  0.1300439E+00
        -11   -1    0    0    0    0  0.00000000000E+00  0.00000000000E+00  0.45593999997E+02  0.45594000000E+02  0.51100000000E-03 0.  1.
         11   -1    0    0    0    0 -0.00000000000E+00 -0.00000000000E+00 -0.45593999997E+02  0.45594000000E+02  0.51100000000E-03 0. -1.
    9900012    2    1    2    0    0 -0.33926490410E+02 -0.19297575485E+02  0.11391341552E+02  0.50528857935E+02  0.29999994178E+02 0.  0.
        -12    1    1    2    0    0  0.33926490410E+02  0.19297575485E+02 -0.11391341552E+02  0.40659142065E+02  0.00000000000E+00 0.  1.
         11    1    3    3    0    0  0.32159349083E+01 -0.27363454923E+01 -0.25276582658E+01  0.49212681858E+01  0.51100000000E-03 0. -1.
        -11    1    3    3    0    0 -0.31882320407E+01 -0.69510365418E+01  0.52327041890E+01  0.92662250102E+01  0.51100000000E-03 0.  1.
         12    1    3    3    0    0 -0.33954193278E+02 -0.96101934506E+01  0.86862956288E+01  0.36341364739E+02  0.00000000000E+00 0. -1.
</event>
<event>
 7    1  0.5913457E-013  0.5052886E+02  0.7816164E-02  0.1300439E+00
        -11   -1    0    0    0    0  0.00000000000E+00  0.00000000000E+00  0.45593999997E+02  0.45594000000E+02  0.51100000000E-03 0.  1.
         11   -1    0    0    0    0 -0.00000000000E+00 -0.00000000000E+00 -0.45593999997E+02  0.45594000000E+02  0.51100000000E-03 0. -1.
    9900012    2    1    2    0    0  0.33708679620E+01 -0.24051607091E+01 -0.40447717811E+02  0.50528862959E+02  0.30000009449E+02 0.  0.
        -12    1    1    2    0    0 -0.33708679620E+01  0.24051607091E+01  0.40447717811E+02  0.40659137041E+02  0.00000000000E+00 0.  1.
         11    1    3    3    0    0  0.20980575572E+01  0.46255768810E+01 -0.25832576534E+02  0.26327168812E+02  0.51100000000E-03 0. -1.
        -11    1    3    3    0    0 -0.22430095201E-01  0.57053724422E+01 -0.79021528704E+01  0.97465787875E+01  0.51100000000E-03 0.  1.
        -12    1    3    3    0    0  0.12952405000E+01 -0.12736110032E+02 -0.67129884059E+01  0.14455115359E+02  0.00000000000E+00 0.  1.
</event>
<event>
 7    1  0.5913457E-013  0.5052887E+02  0.7816164E-02  0.1300439E+00
        -11   -1    0    0    0    0  0.00000000000E+00  0.00000000000E+00  0.45593999997E+02  0.45594000000E+02  0.51100000000E-03 0.  1.
         11   -1    0    0    0    0 -0.00000000000E+00 -0.00000000000E+00 -0.45593999997E+02  0.45594000000E+02  0.51100000000E-03 0. -1.
    9900012    2    1    2    0    0  0.23542199478E+02  0.32331347753E+02 -0.73221537593E+01  0.50528866469E+02  0.30000020119E+02 0.  0.
        -12    1    1    2    0    0 -0.23542199478E+02 -0.32331347753E+02  0.73221537593E+01  0.40659133531E+02  0.00000000000E+00 0.  1.
         11    1    3    3    0    0  0.30760612027E+01  0.11594394878E+02 -0.67483697067E+01  0.13763453021E+02  0.51100000000E-03 0. -1.
        -11    1    3    3    0    0  0.11423531528E+02  0.16035549922E+02 -0.10691705020E+02  0.22404206979E+02  0.51100000000E-03 0.  1.
        -12    1    3    3    0    0  0.90426067474E+01  0.47014029533E+01  0.10117920968E+02  0.14361206468E+02  0.00000000000E+00 0.  1.
</event>
<event>
 7    1  0.5913457E-013  0.5052885E+02  0.7816164E-02  0.1300439E+00
        -11   -1    0    0    0    0  0.00000000000E+00  0.00000000000E+00  0.45593999997E+02  0.45594000000E+02  0.51100000000E-03 0. -1.
         11   -1    0    0    0    0 -0.00000000000E+00 -0.00000000000E+00 -0.45593999997E+02  0.45594000000E+02  0.51100000000E-03 0.  1.
    9900012    2    1    2    0    0 -0.27900242009E+02 -0.20745854491E+02  0.21079662719E+02  0.50528853882E+02  0.29999981859E+02 0.  0.
        -12    1    1    2    0    0  0.27900242009E+02  0.20745854491E+02 -0.21079662719E+02  0.40659146118E+02  0.00000000000E+00 0.  1.
         11    1    3    3    0    0 -0.28701892450E+01 -0.36556762072E+01  0.30740048993E+01  0.55723838002E+01  0.51100000000E-03 0. -1.
        -11    1    3    3    0    0 -0.51018001505E+01 -0.12447243585E+02 -0.48312992594E+01  0.14293484195E+02  0.51100000000E-03 0.  1.
         12    1    3    3    0    0 -0.19928252613E+02 -0.46429346984E+01  0.22836957079E+02  0.30662985887E+02  0.00000000000E+00 0. -1.
</event>
<event>
 7    1  0.5913457E-013  0.5052887E+02  0.7816164E-02  0.1300439E+00
        -11   -1    0    0    0    0  0.00000000000E+00  0.00000000000E+00  0.45593999997E+02  0.45594000000E+02  0.51100000000E-03 0.  1.
         11   -1    0    0    0    0 -0.00000000000E+00 -0.00000000000E+00 -0.45593999997E+02  0.45594000000E+02  0.51100000000E-03 0. -1.
    9900012    2    1    2    0    0  0.62727142096E+00 -0.81260748807E+01 -0.39833887961E+02  0.50528865817E+02  0.30000018138E+02 0.  0.
        -12    1    1    2    0    0 -0.62727142096E+00  0.81260748807E+01  0.39833887961E+02  0.40659134183E+02  0.00000000000E+00 0.  1.
         11    1    3    3    0    0 -0.37052522621E+01 -0.50314787715E+00 -0.80404749734E+01  0.88674286110E+01  0.51100000000E-03 0. -1.
        -11    1    3    3    0    0 -0.18270140805E+01 -0.30459810801E+01 -0.33592282952E+02  0.33779541965E+02  0.51100000000E-03 0.  1.
        -12    1    3    3    0    0  0.61595377635E+01 -0.45769459235E+01  0.17988699640E+01  0.78818952412E+01  0.00000000000E+00 0.  1.
</event>
<event>
 7    1  0.5913457E-013  0.5052886E+02  0.7816164E-02  0.1300439E+00
        -11   -1    0    0    0    0  0.00000000000E+00  0.00000000000E+00  0.45593999997E+02  0.45594000000E+02  0.51100000000E-03 0.  1.
         11   -1    0    0    0    0 -0.00000000000E+00 -0.00000000000E+00 -0.45593999997E+02  0.45594000000E+02  0.51100000000E-03 0. -1.
    9900012    2    1    2    0    0  0.25470944462E+02 -0.30925455635E+02  0.69291060813E+01  0.50528864137E+02  0.30000013031E+02 0.  0.
        -12    1    1    2    0    0 -0.25470944462E+02  0.30925455635E+02 -0.69291060813E+01  0.40659135863E+02  0.00000000000E+00 0.  1.
         11    1    3    3    0    0  0.94228942217E+01 -0.18892281312E+02  0.21862985143E+00  0.21112958768E+02  0.51100000000E-03 0.  1.
        -11    1    3    3    0    0  0.13113349420E+02 -0.56544620108E+01 -0.55224531435E+01  0.15311118921E+02  0.51100000000E-03 0. -1.
        -12    1    3    3    0    0  0.29347008204E+01 -0.63787123125E+01  0.12232929373E+02  0.14104786447E+02  0.00000000000E+00 0.  1.
</event>
<event>
 7    1  0.5913457E-013  0.5052886E+02  0.7816164E-02  0.1300439E+00
        -11   -1    0    0    0    0  0.00000000000E+00  0.00000000000E+00  0.45593999997E+02  0.45594000000E+02  0.51100000000E-03 0.  1.
         11   -1    0    0    0    0 -0.00000000000E+00 -0.00000000000E+00 -0.45593999997E+02  0.45594000000E+02  0.51100000000E-03 0. -1.
    9900012    2    1    2    0    0  0.30492893877E+02 -0.26465585977E+02  0.47876983937E+01  0.50528857436E+02  0.29999992663E+02 0.  0.
        -12    1    1    2    0    0 -0.30492893877E+02  0.26465585977E+02 -0.47876983937E+01  0.40659142564E+02  0.00000000000E+00 0.  1.
         11    1    3    3    0    0 -0.35004416474E+00  0.96058151429E+00 -0.16104994159E+01  0.19076048838E+01  0.51100000000E-03 0. -1.
        -11    1    3    3    0    0  0.21099286323E+02 -0.25100387589E+01  0.65474456495E+00  0.21258148288E+02  0.51100000000E-03 0.  1.
        -12    1    3    3    0    0  0.97436517193E+01 -0.24916128732E+02  0.57434532446E+01  0.27363104265E+02  0.00000000000E+00 0.  1.
</event>
<event>
 7    1  0.5913457E-013  0.5052885E+02  0.7816164E-02  0.1300439E+00
        -11   -1    0    0    0    0  0.00000000000E+00  0.00000000000E+00  0.45593999997E+02  0.45594000000E+02  0.51100000000E-03 0. -1.
         11   -1    0    0    0    0 -0.00000000000E+00 -0.00000000000E+00 -0.45593999997E+02  0.45594000000E+02  0.51100000000E-03 0.  1.
    9900012    2    1    2    0    0 -0.14345979880E+02 -0.36023683532E+02  0.12233313777E+02  0.50528845067E+02  0.29999955065E+02 0.  0.
        -12    1    1    2    0    0  0.14345979880E+02  0.36023683532E+02 -0.12233313777E+02  0.40659154933E+02  0.00000000000E+00 0.  1.
         11    1    3    3    0    0 -0.62572980765E+00 -0.75394679219E+01  0.12266393738E+02  0.14411784412E+02  0.51100000000E-03 0. -1.
        -11    1    3    3    0    0  0.39897725350E+01 -0.34190645487E+01  0.12454321798E+01  0.53999434113E+01  0.51100000000E-03 0.  1.
         12    1    3    3    0    0 -0.17710022607E+02 -0.25065151061E+02 -0.12785121410E+01  0.30717117244E+02  0.00000000000E+00 0. -1.
</event>
<event>
 7    1  0.5913457E-013  0.5052895E+02  0.7816164E-02  0.1300438E+00
        -11   -1    0    0    0    0  0.00000000000E+00  0.00000000000E+00  0.45593999997E+02  0.45594000000E+02  0.51100000000E-03 0.  1.
         11   -1    0    0    0    0 -0.00000000000E+00 -0.00000000000E+00 -0.45593999997E+02  0.45594000000E+02  0.51100000000E-03 0. -1.
    9900012    2    1    2    0    0  0.75484809828E+01  0.35297981858E+02 -0.18714469083E+02  0.50528948837E+02  0.30000270484E+02 0.  0.
        -12    1    1    2    0    0 -0.75484809828E+01 -0.35297981858E+02  0.18714469083E+02  0.40659051163E+02  0.00000000000E+00 0.  1.
         11    1    3    3    0    0  0.53912797952E+01 -0.22154240424E+01 -0.35911388229E+01  0.68461872473E+01  0.51100000000E-03 0. -1.
        -11    1    3    3    0    0  0.37087717773E+01  0.23618913949E+01  0.16591241432E+01  0.46995970296E+01  0.51100000000E-03 0.  1.
         12    1    3    3    0    0 -0.15515705897E+01  0.35151514506E+02 -0.16782454403E+02  0.38983164560E+02  0.00000000000E+00 0. -1.
</event>
<event>
 7    1  0.5913457E-013  0.5052887E+02  0.7816164E-02  0.1300439E+00
        -11   -1    0    0    0    0  0.00000000000E+00  0.00000000000E+00  0.45593999997E+02  0.45594000000E+02  0.51100000000E-03 0.  1.
         11   -1    0    0    0    0 -0.00000000000E+00 -0.00000000000E+00 -0.45593999997E+02  0.45594000000E+02  0.51100000000E-03 0. -1.
    9900012    2    1    2    0    0  0.91885535017E+01 -0.20924613187E+02 -0.33628796971E+02  0.50528868945E+02  0.30000027645E+02 0.  0.
        -12    1    1    2    0    0 -0.91885535017E+01  0.20924613187E+02  0.33628796971E+02  0.40659131055E+02  0.00000000000E+00 0.  1.
         11    1    3    3    0    0  0.50317380525E+01 -0.36493998777E+01 -0.76152036028E+01  0.98299457511E+01  0.51100000000E-03 0. -1.
        -11    1    3    3    0    0 -0.21111525706E+00 -0.81826140311E+01 -0.29036680869E+02  0.30168337345E+02  0.51100000000E-03 0.  1.
        -12    1    3    3    0    0  0.43679307063E+01 -0.90925992779E+01  0.30230875008E+01  0.10530585849E+02  0.00000000000E+00 0.  1.
</event>
<event>
 7    1  0.5913457E-013  0.5052885E+02  0.7816164E-02  0.1300439E+00
        -11   -1    0    0    0    0  0.00000000000E+00  0.00000000000E+00  0.45593999997E+02  0.45594000000E+02  0.51100000000E-03 0.  1.
         11   -1    0    0    0    0 -0.00000000000E+00 -0.00000000000E+00 -0.45593999997E+02  0.45594000000E+02  0.51100000000E-03 0. -1.
    9900012    2    1    2    0    0  0.27402874444E+01  0.90352263756E+01 -0.39547713820E+02  0.50528853928E+02  0.29999982000E+02 0.  0.
        -12    1    1    2    0    0 -0.27402874444E+01 -0.90352263756E+01  0.39547713820E+02  0.40659146072E+02  0.00000000000E+00 0.  1.
         11    1    3    3    0    0 -0.18278846016E+01  0.32926874218E+01 -0.18203819845E+02  0.18589298260E+02  0.51100000000E-03 0. -1.
        -11    1    3    3    0    0 -0.34273774828E+01 -0.28638392136E+01 -0.19552904363E+02  0.20056534116E+02  0.51100000000E-03 0.  1.
        -12    1    3    3    0    0  0.79955495288E+01  0.86063781673E+01 -0.17909896113E+01  0.11883021552E+02  0.00000000000E+00 0.  1.
</event>
<event>
 7    1  0.5913457E-013  0.5052887E+02  0.7816164E-02  0.1300439E+00
        -11   -1    0    0    0    0  0.00000000000E+00  0.00000000000E+00  0.45593999997E+02  0.45594000000E+02  0.51100000000E-03 0.  1.
         11   -1    0    0    0    0 -0.00000000000E+00 -0.00000000000E+00 -0.45593999997E+02  0.45594000000E+02  0.51100000000E-03 0. -1.
    9900012    2    1    2    0    0  0.11179523063E+02  0.12696261987E+02 -0.36972798896E+02  0.50528872333E+02  0.30000037944E+02 0.  0.
        -12    1    1    2    0    0 -0.11179523063E+02 -0.12696261987E+02  0.36972798896E+02  0.40659127667E+02  0.00000000000E+00 0.  1.
         11    1    3    3    0    0 -0.19422320293E+01  0.49003389471E+01 -0.16100964830E+02  0.16941861048E+02  0.51100000000E-03 0. -1.
        -11    1    3    3    0    0  0.81365665008E+01  0.15155900025E+02 -0.11633522558E+02  0.20766412000E+02  0.51100000000E-03 0.  1.
        -12    1    3    3    0    0  0.49851885919E+01 -0.73599769846E+01 -0.92383115080E+01  0.12820599285E+02  0.00000000000E+00 0.  1.
</event>
<event>
 7    1  0.5913457E-013  0.5052886E+02  0.7816164E-02  0.1300439E+00
        -11   -1    0    0    0    0  0.00000000000E+00  0.00000000000E+00  0.45593999997E+02  0.45594000000E+02  0.51100000000E-03 0.  1.
         11   -1    0    0    0    0 -0.00000000000E+00 -0.00000000000E+00 -0.45593999997E+02  0.45594000000E+02  0.51100000000E-03 0. -1.
    9900012    2    1    2    0    0 -0.95607701800E+01  0.38847046547E+02 -0.72570055607E+01  0.50528862262E+02  0.30000007332E+02 0.  0.
        -12    1    1    2    0    0  0.95607701800E+01 -0.38847046547E+02  0.72570055607E+01  0.40659137738E+02  0.00000000000E+00 0.  1.
         11    1    3    3    0    0 -0.70439525593E+01  0.44491395565E+00  0.40603970441E+00  0.70696594393E+01  0.51100000000E-03 0. -1.
        -11    1    3    3    0    0 -0.25022935476E+01  0.34115891708E+01  0.47231896604E+01  0.63410515293E+01  0.51100000000E-03 0.  1.
         12    1    3    3    0    0 -0.14524073080E-01  0.34990543421E+02 -0.12386234925E+02  0.37118151294E+02  0.00000000000E+00 0. -1.
</event>
<event>
 7    1  0.5913457E-013  0.5052887E+02  0.7816164E-02  0.1300439E+00
        -11   -1    0    0    0    0  0.00000000000E+00  0.00000000000E+00  0.45593999997E+02  0.45594000000E+02  0.51100000000E-03 0.  1.
         11   -1    0    0    0    0 -0.00000000000E+00 -0.00000000000E+00 -0.45593999997E+02  0.45594000000E+02  0.51100000000E-03 0. -1.
    9900012    2    1    2    0    0  0.14753380229E+02 -0.17018830113E+02 -0.33850579323E+02  0.50528874000E+02  0.30000043010E+02 0.  0.
        -12    1    1    2    0    0 -0.14753380229E+02  0.17018830113E+02  0.33850579323E+02  0.40659126000E+02  0.00000000000E+00 0.  1.
         11    1    3    3    0    0  0.11067011421E+01 -0.47450445148E+01  0.45839625519E+01  0.66897644057E+01  0.51100000000E-03 0. -1.
        -11    1    3    3    0    0  0.10424337429E+01  0.17657221175E+01 -0.23431505090E+01  0.31136469411E+01  0.51100000000E-03 0.  1.
         12    1    3    3    0    0  0.12604245344E+02 -0.14039507715E+02 -0.36091391366E+02  0.40725462653E+02  0.00000000000E+00 0. -1.
</event>
<event>
 7    1  0.5913457E-013  0.5052886E+02  0.7816164E-02  0.1300439E+00
        -11   -1    0    0    0    0  0.00000000000E+00  0.00000000000E+00  0.45593999997E+02  0.45594000000E+02  0.51100000000E-03 0.  1.
         11   -1    0    0    0    0 -0.00000000000E+00 -0.00000000000E+00 -0.45593999997E+02  0.45594000000E+02  0.51100000000E-03 0. -1.
    9900012    2    1    2    0    0 -0.22668935409E+01  0.40540033879E+02 -0.21289255263E+01  0.50528862316E+02  0.30000007497E+02 0.  0.
        -12    1    1    2    0    0  0.22668935409E+01 -0.40540033879E+02  0.21289255263E+01  0.40659137684E+02  0.00000000000E+00 0.  1.
         11    1    3    3    0    0 -0.68007846014E+01  0.21566278439E+02 -0.21442865394E+01  0.22714598872E+02  0.51100000000E-03 0. -1.
        -11    1    3    3    0    0  0.16686663891E+01 -0.41350062424E+01  0.72594575008E+00  0.45177119912E+01  0.51100000000E-03 0.  1.
         12    1    3    3    0    0  0.28652246714E+01  0.23108761683E+02 -0.71058473690E+00  0.23296551453E+02  0.00000000000E+00 0. -1.
</event>
<event>
 7    1  0.5913457E-013  0.5052886E+02  0.7816164E-02  0.1300439E+00
        -11   -1    0    0    0    0  0.00000000000E+00  0.00000000000E+00  0.45593999997E+02  0.45594000000E+02  0.51100000000E-03 0. -1.
         11   -1    0    0    0    0 -0.00000000000E+00 -0.00000000000E+00 -0.45593999997E+02  0.45594000000E+02  0.51100000000E-03 0.  1.
    9900012    2    1    2    0    0 -0.32116585120E+02  0.44225574299E+01  0.24538368571E+02  0.50528860976E+02  0.30000003424E+02 0.  0.
        -12    1    1    2    0    0  0.32116585120E+02 -0.44225574299E+01 -0.24538368571E+02  0.40659139024E+02  0.00000000000E+00 0.  1.
         11    1    3    3    0    0 -0.30983822914E+01  0.51773835215E+01 -0.13625315764E+01  0.61856095504E+01  0.51100000000E-03 0. -1.
        -11    1    3    3    0    0 -0.17544517743E+01  0.16991517635E+01 -0.34379362574E+01  0.42171819637E+01  0.51100000000E-03 0.  1.
        -12    1    3    3    0    0 -0.27263751055E+02 -0.24539778551E+01  0.29338836405E+02  0.40126069462E+02  0.00000000000E+00 0.  1.
</event>
<event>
 7    1  0.5913457E-013  0.5052878E+02  0.7816164E-02  0.1300439E+00
        -11   -1    0    0    0    0  0.00000000000E+00  0.00000000000E+00  0.45593999997E+02  0.45594000000E+02  0.51100000000E-03 0.  1.
         11   -1    0    0    0    0 -0.00000000000E+00 -0.00000000000E+00 -0.45593999997E+02  0.45594000000E+02  0.51100000000E-03 0. -1.
    9900012    2    1    2    0    0 -0.39244505538E+02  0.57619989256E+01 -0.89353223127E+01  0.50528784176E+02  0.29999769982E+02 0.  0.
        -12    1    1    2    0    0  0.39244505538E+02 -0.57619989256E+01  0.89353223127E+01  0.40659215824E+02  0.00000000000E+00 0.  1.
         11    1    3    3    0    0 -0.16531582914E+00  0.36525787058E+01 -0.14550289504E+01  0.39351963144E+01  0.51100000000E-03 0. -1.
        -11    1    3    3    0    0 -0.15168191543E+02  0.11703006758E+02 -0.81535202863E+01  0.20821006104E+02  0.51100000000E-03 0.  1.
        -12    1    3    3    0    0 -0.23910998166E+02 -0.95935865385E+01  0.67322692403E+00  0.25772581758E+02  0.00000000000E+00 0.  1.
</event>
<event>
 7    1  0.5913457E-013  0.5052886E+02  0.7816164E-02  0.1300439E+00
        -11   -1    0    0    0    0  0.00000000000E+00  0.00000000000E+00  0.45593999997E+02  0.45594000000E+02  0.51100000000E-03 0. -1.
         11   -1    0    0    0    0 -0.00000000000E+00 -0.00000000000E+00 -0.45593999997E+02  0.45594000000E+02  0.51100000000E-03 0.  1.
    9900012    2    1    2    0    0  0.29792894869E+02  0.27648684126E+02 -0.10484791689E+01  0.50528860472E+02  0.30000001889E+02 0.  0.
        -12    1    1    2    0    0 -0.29792894869E+02 -0.27648684126E+02  0.10484791689E+01  0.40659139528E+02  0.00000000000E+00 0.  1.
         11    1    3    3    0    0  0.17586454748E+01  0.22052841619E+01 -0.68148854701E+01  0.73755526148E+01  0.51100000000E-03 0. -1.
        -11    1    3    3    0    0  0.13036449965E+01 -0.16918400265E+01 -0.33635780578E+01  0.39844034138E+01  0.51100000000E-03 0.  1.
         12    1    3    3    0    0  0.26730604398E+02  0.27135239991E+02  0.91299843589E+01  0.39168904443E+02  0.00000000000E+00 0. -1.
</event>
<event>
 7    1  0.5913457E-013  0.5052886E+02  0.7816164E-02  0.1300439E+00
        -11   -1    0    0    0    0  0.00000000000E+00  0.00000000000E+00  0.45593999997E+02  0.45594000000E+02  0.51100000000E-03 0.  1.
         11   -1    0    0    0    0 -0.00000000000E+00 -0.00000000000E+00 -0.45593999997E+02  0.45594000000E+02  0.51100000000E-03 0. -1.
    9900012    2    1    2    0    0  0.15997803675E+02  0.10953600641E+02 -0.35738697578E+02  0.50528860880E+02  0.30000003130E+02 0.  0.
        -12    1    1    2    0    0 -0.15997803675E+02 -0.10953600641E+02  0.35738697578E+02  0.40659139120E+02  0.00000000000E+00 0.  1.
         11    1    3    3    0    0  0.13508584449E+01  0.71651424956E+01 -0.33720735723E+01  0.80333657927E+01  0.51100000000E-03 0. -1.
        -11    1    3    3    0    0 -0.53048911668E+01  0.76224907576E-01 -0.14271399453E+01  0.54940339653E+01  0.51100000000E-03 0.  1.
         12    1    3    3    0    0  0.19951836397E+02  0.37122332382E+01 -0.30939484060E+02  0.37001461122E+02  0.00000000000E+00 0. -1.
</event>
<event>
 7    1  0.5913457E-013  0.5052886E+02  0.7816164E-02  0.1300439E+00
        -11   -1    0    0    0    0  0.00000000000E+00  0.00000000000E+00  0.45593999997E+02  0.45594000000E+02  0.51100000000E-03 0. -1.
         11   -1    0    0    0    0 -0.00000000000E+00 -0.00000000000E+00 -0.45593999997E+02  0.45594000000E+02  0.51100000000E-03 0.  1.
    9900012    2    1    2    0    0 -0.96682157312E+01 -0.33566139114E+02  0.20808794045E+02  0.50528855886E+02  0.29999987952E+02 0.  0.
        -12    1    1    2    0    0  0.96682157312E+01  0.33566139114E+02 -0.20808794045E+02  0.40659144114E+02  0.00000000000E+00 0.  1.
         11    1    3    3    0    0 -0.60593576703E+01 -0.14516355004E+02  0.99593998733E+00  0.15761734508E+02  0.51100000000E-03 0. -1.
        -11    1    3    3    0    0 -0.11752535526E+02 -0.14878323200E+02  0.10337826613E+02  0.21595306247E+02  0.51100000000E-03 0.  1.
         12    1    3    3    0    0  0.81436774653E+01 -0.41714609093E+01  0.94750274449E+01  0.13171815131E+02  0.00000000000E+00 0. -1.
</event>
<event>
 7    1  0.5913457E-013  0.5052886E+02  0.7816164E-02  0.1300439E+00
        -11   -1    0    0    0    0  0.00000000000E+00  0.00000000000E+00  0.45593999997E+02  0.45594000000E+02  0.51100000000E-03 0. -1.
         11   -1    0    0    0    0 -0.00000000000E+00 -0.00000000000E+00 -0.45593999997E+02  0.45594000000E+02  0.51100000000E-03 0.  1.
    9900012    2    1    2    0    0  0.18870962760E+02 -0.20099487885E+02  0.29884165891E+02  0.50528855644E+02  0.29999987216E+02 0.  0.
        -12    1    1    2    0    0 -0.18870962760E+02  0.20099487885E+02 -0.29884165891E+02  0.40659144356E+02  0.00000000000E+00 0.  1.
         11    1    3    3    0    0  0.49511448424E+01 -0.12023442162E+02  0.26831256359E+02  0.29815990923E+02  0.51100000000E-03 0. -1.
        -11    1    3    3    0    0  0.41962919612E+01 -0.52450480480E+01  0.71299872414E+01  0.97957191453E+01  0.51100000000E-03 0.  1.
        -12    1    3    3    0    0  0.97235259566E+01 -0.28309976757E+01 -0.40770777099E+01  0.10917145576E+02  0.00000000000E+00 0.  1.
</event>
<event>
 7    1  0.5913457E-013  0.5052889E+02  0.7816164E-02  0.1300439E+00
        -11   -1    0    0    0    0  0.00000000000E+00  0.00000000000E+00  0.45593999997E+02  0.45594000000E+02  0.51100000000E-03 0.  1.
         11   -1    0    0    0    0 -0.00000000000E+00 -0.00000000000E+00 -0.45593999997E+02  0.45594000000E+02  0.51100000000E-03 0. -1.
    9900012    2    1    2    0    0 -0.14149286611E+02 -0.37986623549E+02  0.31586955062E+01  0.50528889858E+02  0.30000091211E+02 0.  0.
        -12    1    1    2    0    0  0.14149286611E+02  0.37986623549E+02 -0.31586955062E+01  0.40659110142E+02  0.00000000000E+00 0.  1.
         11    1    3    3    0    0 -0.10327494732E+02 -0.25536866728E+01  0.40620718755E+01  0.11387663994E+02  0.51100000000E-03 0. -1.
        -11    1    3    3    0    0  0.22342345748E+01  0.77368800491E+00  0.44927270974E+00  0.24067080198E+01  0.51100000000E-03 0.  1.
        -12    1    3    3    0    0 -0.60560264545E+01 -0.36206624881E+02 -0.13526490791E+01  0.36734517844E+02  0.00000000000E+00 0.  1.
</event>
<event>
 7    1  0.5913457E-013  0.5052885E+02  0.7816164E-02  0.1300439E+00
        -11   -1    0    0    0    0  0.00000000000E+00  0.00000000000E+00  0.45593999997E+02  0.45594000000E+02  0.51100000000E-03 0.  1.
         11   -1    0    0    0    0 -0.00000000000E+00 -0.00000000000E+00 -0.45593999997E+02  0.45594000000E+02  0.51100000000E-03 0. -1.
    9900012    2    1    2    0    0 -0.31027803021E+02 -0.79556578774E+01 -0.25042944244E+02  0.50528854547E+02  0.29999983880E+02 0.  0.
        -12    1    1    2    0    0  0.31027803021E+02  0.79556578774E+01  0.25042944244E+02  0.40659145453E+02  0.00000000000E+00 0.  1.
         11    1    3    3    0    0 -0.26597746894E+02 -0.10793530480E+02 -0.25105025276E+02  0.38134010207E+02  0.51100000000E-03 0. -1.
        -11    1    3    3    0    0 -0.49708809165E+01 -0.30603852452E+01 -0.19262131225E+01  0.61470246615E+01  0.51100000000E-03 0.  1.
        -12    1    3    3    0    0  0.54082478943E+00  0.58982578477E+01  0.19882941548E+01  0.62478196786E+01  0.00000000000E+00 0.  1.
</event>
<event>
 7    1  0.5913457E-013  0.5052886E+02  0.7816164E-02  0.1300439E+00
        -11   -1    0    0    0    0  0.00000000000E+00  0.00000000000E+00  0.45593999997E+02  0.45594000000E+02  0.51100000000E-03 0.  1.
         11   -1    0    0    0    0 -0.00000000000E+00 -0.00000000000E+00 -0.45593999997E+02  0.45594000000E+02  0.51100000000E-03 0. -1.
    9900012    2    1    2    0    0 -0.31611236410E+02  0.25557926058E+02 -0.82938311832E+00  0.50528859231E+02  0.29999998117E+02 0.  0.
        -12    1    1    2    0    0  0.31611236410E+02 -0.25557926058E+02  0.82938311832E+00  0.40659140769E+02  0.00000000000E+00 0.  1.
         11    1    3    3    0    0 -0.73011058234E+01  0.16780000599E+02  0.30394877639E+01  0.18550284431E+02  0.51100000000E-03 0. -1.
        -11    1    3    3    0    0  0.21878238890E+01  0.20676045397E+01  0.24988480774E+01  0.39122632679E+01  0.51100000000E-03 0.  1.
         12    1    3    3    0    0 -0.26497954476E+02  0.67103209190E+01 -0.63677189596E+01  0.28066311531E+02  0.00000000000E+00 0. -1.
</event>
<event>
 7    1  0.8124528E-013  0.5052886E+02  0.7816164E-02  0.1300439E+00
        -11   -1    0    0    0    0  0.00000000000E+00  0.00000000000E+00  0.45593999997E+02  0.45594000000E+02  0.51100000000E-03 0. -1.
         11   -1    0    0    0    0 -0.00000000000E+00 -0.00000000000E+00 -0.45593999997E+02  0.45594000000E+02  0.51100000000E-03 0.  1.
    9900012    2    1    2    0    0 -0.32260565680E+02 -0.31530925835E+00  0.24745144046E+02  0.50528859923E+02  0.30000000222E+02 0.  0.
        -12    1    1    2    0    0  0.32260565680E+02  0.31530925835E+00 -0.24745144046E+02  0.40659140077E+02  0.00000000000E+00 0.  1.
         11    1    3    3    0    0 -0.13095592929E+02  0.15095150238E+01  0.19932648301E+02  0.23897356723E+02  0.51100000000E-03 0. -1.
        -11    1    3    3    0    0  0.23606549154E+01  0.32039032992E+01 -0.12477952081E+00  0.39816150203E+01  0.51100000000E-03 0.  1.
        -12    1    3    3    0    0 -0.21525627666E+02 -0.50287275814E+01  0.49372752660E+01  0.22649888180E+02  0.00000000000E+00 0.  1.
</event>
<event>
 7    1  0.5913457E-013  0.5052886E+02  0.7816164E-02  0.1300439E+00
        -11   -1    0    0    0    0  0.00000000000E+00  0.00000000000E+00  0.45593999997E+02  0.45594000000E+02  0.51100000000E-03 0.  1.
         11   -1    0    0    0    0 -0.00000000000E+00 -0.00000000000E+00 -0.45593999997E+02  0.45594000000E+02  0.51100000000E-03 0. -1.
    9900012    2    1    2    0    0 -0.25504982341E+02  0.43084402003E+01 -0.31370354442E+02  0.50528856883E+02  0.29999990981E+02 0.  0.
        -12    1    1    2    0    0  0.25504982341E+02 -0.43084402003E+01  0.31370354442E+02  0.40659143117E+02  0.00000000000E+00 0.  1.
         11    1    3    3    0    0  0.13039959915E+01 -0.39272997740E+01 -0.18082664858E+01  0.45159624673E+01  0.51100000000E-03 0. -1.
        -11    1    3    3    0    0 -0.20806736659E+01 -0.62559301479E+01 -0.52176434005E+01  0.84077147808E+01  0.51100000000E-03 0.  1.
         12    1    3    3    0    0 -0.24728304667E+02  0.14491670122E+02 -0.24344444556E+02  0.37605179635E+02  0.00000000000E+00 0. -1.
</event>
<event>
 7    1  0.5913457E-013  0.5052886E+02  0.7816164E-02  0.1300439E+00
        -11   -1    0    0    0    0  0.00000000000E+00  0.00000000000E+00  0.45593999997E+02  0.45594000000E+02  0.51100000000E-03 0. -1.
         11   -1    0    0    0    0 -0.00000000000E+00 -0.00000000000E+00 -0.45593999997E+02  0.45594000000E+02  0.51100000000E-03 0.  1.
    9900012    2    1    2    0    0  0.22796180995E+02 -0.11608403061E+02  0.31602918094E+02  0.50528864229E+02  0.30000013311E+02 0.  0.
        -12    1    1    2    0    0 -0.22796180995E+02  0.11608403061E+02 -0.31602918094E+02  0.40659135771E+02  0.00000000000E+00 0.  1.
         11    1    3    3    0    0  0.72244580020E+01 -0.53723835594E+01  0.10300011544E+02  0.13680114641E+02  0.51100000000E-03 0. -1.
        -11    1    3    3    0    0  0.21698455548E+02 -0.58323887227E+01  0.20914942720E+02  0.30696491015E+02  0.51100000000E-03 0.  1.
        -12    1    3    3    0    0 -0.61267325552E+01 -0.40363077859E+00  0.38796382957E+00  0.61522585724E+01  0.00000000000E+00 0.  1.
</event>
<event>
 7    1  0.5913457E-013  0.5052883E+02  0.7816164E-02  0.1300439E+00
        -11   -1    0    0    0    0  0.00000000000E+00  0.00000000000E+00  0.45593999997E+02  0.45594000000E+02  0.51100000000E-03 0. -1.
         11   -1    0    0    0    0 -0.00000000000E+00 -0.00000000000E+00 -0.45593999997E+02  0.45594000000E+02  0.51100000000E-03 0.  1.
    9900012    2    1    2    0    0  0.26839500005E+02  0.68297685223E+00  0.30534286367E+02  0.50528832991E+02  0.29999918360E+02 0.  0.
        -12    1    1    2    0    0 -0.26839500005E+02 -0.68297685223E+00 -0.30534286367E+02  0.40659167009E+02  0.00000000000E+00 0.  1.
         11    1    3    3    0    0  0.59119912231E+01 -0.58518205046E+01  0.80567266055E+01  0.11580426905E+02  0.51100000000E-03 0. -1.
        -11    1    3    3    0    0  0.21369836144E+00 -0.46588712540E+01 -0.19191937690E+01  0.50432185493E+01  0.51100000000E-03 0.  1.
         12    1    3    3    0    0  0.20713810421E+02  0.11193668611E+02  0.24396753530E+02  0.33905187537E+02  0.00000000000E+00 0. -1.
</event>
<event>
 7    1  0.5913457E-013  0.5052887E+02  0.7816164E-02  0.1300439E+00
        -11   -1    0    0    0    0  0.00000000000E+00  0.00000000000E+00  0.45593999997E+02  0.45594000000E+02  0.51100000000E-03 0.  1.
         11   -1    0    0    0    0 -0.00000000000E+00 -0.00000000000E+00 -0.45593999997E+02  0.45594000000E+02  0.51100000000E-03 0. -1.
    9900012    2    1    2    0    0  0.16526491496E+02  0.36937279814E+02  0.39594589345E+01  0.50528869706E+02  0.30000029957E+02 0.  0.
        -12    1    1    2    0    0 -0.16526491496E+02 -0.36937279814E+02 -0.39594589345E+01  0.40659130294E+02  0.00000000000E+00 0.  1.
         11    1    3    3    0    0 -0.44552004548E+01  0.80311458286E+01 -0.63255061870E+01  0.11151687908E+02  0.51100000000E-03 0. -1.
        -11    1    3    3    0    0 -0.63220830154E+00 -0.35982471301E+00 -0.10436367508E+01  0.12721395715E+01  0.51100000000E-03 0.  1.
         12    1    3    3    0    0  0.21613900253E+02  0.29265958699E+02  0.11328601872E+02  0.38105042226E+02  0.00000000000E+00 0. -1.
</event>
<event>
 7    1  0.5913457E-013  0.5052886E+02  0.7816164E-02  0.1300439E+00
        -11   -1    0    0    0    0  0.00000000000E+00  0.00000000000E+00  0.45593999997E+02  0.45594000000E+02  0.51100000000E-03 0.  1.
         11   -1    0    0    0    0 -0.00000000000E+00 -0.00000000000E+00 -0.45593999997E+02  0.45594000000E+02  0.51100000000E-03 0. -1.
    9900012    2    1    2    0    0  0.31322788435E+02  0.12990122581E+02 -0.22434464786E+02  0.50528861172E+02  0.30000004017E+02 0.  0.
        -12    1    1    2    0    0 -0.31322788435E+02 -0.12990122581E+02  0.22434464786E+02  0.40659138828E+02  0.00000000000E+00 0.  1.
         11    1    3    3    0    0  0.47616436128E+01 -0.19773429236E+01 -0.20813998923E+01  0.55601583346E+01  0.51100000000E-03 0. -1.
        -11    1    3    3    0    0 -0.30263312368E+01 -0.18939969170E+01 -0.79688377960E+01  0.87320261771E+01  0.51100000000E-03 0.  1.
         12    1    3    3    0    0  0.29587476059E+02  0.16861462422E+02 -0.12384227098E+02  0.36236676660E+02  0.00000000000E+00 0. -1.
</event>
<event>
 7    1  0.5913457E-013  0.5052886E+02  0.7816164E-02  0.1300439E+00
        -11   -1    0    0    0    0  0.00000000000E+00  0.00000000000E+00  0.45593999997E+02  0.45594000000E+02  0.51100000000E-03 0. -1.
         11   -1    0    0    0    0 -0.00000000000E+00 -0.00000000000E+00 -0.45593999997E+02  0.45594000000E+02  0.51100000000E-03 0.  1.
    9900012    2    1    2    0    0  0.15063402577E+02 -0.22412368250E+02  0.30396464632E+02  0.50528863144E+02  0.30000010012E+02 0.  0.
        -12    1    1    2    0    0 -0.15063402577E+02  0.22412368250E+02 -0.30396464632E+02  0.40659136856E+02  0.00000000000E+00 0.  1.
         11    1    3    3    0    0 -0.26699278049E+01 -0.13877661254E+02  0.21409767411E+02  0.25653384518E+02  0.51100000000E-03 0. -1.
        -11    1    3    3    0    0  0.20490904743E+01 -0.63762487066E+00  0.68590068249E+01  0.71868847307E+01  0.51100000000E-03 0.  1.
         12    1    3    3    0    0  0.15684239907E+02 -0.78970821251E+01  0.21276903964E+01  0.17688593895E+02  0.00000000000E+00 0. -1.
</event>
<event>
 7    1  0.5913457E-013  0.5052886E+02  0.7816164E-02  0.1300439E+00
        -11   -1    0    0    0    0  0.00000000000E+00  0.00000000000E+00  0.45593999997E+02  0.45594000000E+02  0.51100000000E-03 0.  1.
         11   -1    0    0    0    0 -0.00000000000E+00 -0.00000000000E+00 -0.45593999997E+02  0.45594000000E+02  0.51100000000E-03 0. -1.
    9900012    2    1    2    0    0 -0.35595675214E+02  0.11277380181E+02 -0.16091434389E+02  0.50528860088E+02  0.30000000725E+02 0.  0.
        -12    1    1    2    0    0  0.35595675214E+02 -0.11277380181E+02  0.16091434389E+02  0.40659139912E+02  0.00000000000E+00 0.  1.
         11    1    3    3    0    0 -0.60516507510E+01  0.11278346825E+02 -0.96486391175E+01  0.16028718632E+02  0.51100000000E-03 0. -1.
        -11    1    3    3    0    0  0.15550577942E+01  0.11761298817E+01 -0.24386466849E+01  0.31222562606E+01  0.51100000000E-03 0.  1.
         12    1    3    3    0    0 -0.31099082257E+02 -0.11770965251E+01 -0.40041485863E+01  0.31377885196E+02  0.00000000000E+00 0. -1.
</event>
<event>
 7    1  0.5913457E-013  0.5052888E+02  0.7816164E-02  0.1300439E+00
        -11   -1    0    0    0    0  0.00000000000E+00  0.00000000000E+00  0.45593999997E+02  0.45594000000E+02  0.51100000000E-03 0. -1.
         11   -1    0    0    0    0 -0.00000000000E+00 -0.00000000000E+00 -0.45593999997E+02  0.45594000000E+02  0.51100000000E-03 0.  1.
    9900012    2    1    2    0    0  0.34631435297E+02  0.21176678877E+02 -0.23186957471E+01  0.50528875699E+02  0.30000048175E+02 0.  0.
        -12    1    1    2    0    0 -0.34631435297E+02 -0.21176678877E+02  0.23186957471E+01  0.40659124301E+02  0.00000000000E+00 0.  1.
         11    1    3    3    0    0  0.30018611389E+01 -0.21923679526E+01  0.63805590304E+00  0.37715730317E+01  0.51100000000E-03 0. -1.
        -11    1    3    3    0    0  0.16884727199E+02 -0.87789999499E+00 -0.65920233331E+01  0.18147162117E+02  0.51100000000E-03 0.  1.
         12    1    3    3    0    0  0.14744846958E+02  0.24246946824E+02  0.36352716829E+01  0.28610140551E+02  0.00000000000E+00 0. -1.
</event>
<event>
 7    1  0.5913457E-013  0.5052888E+02  0.7816164E-02  0.1300439E+00
        -11   -1    0    0    0    0  0.00000000000E+00  0.00000000000E+00  0.45593999997E+02  0.45594000000E+02  0.51100000000E-03 0. -1.
         11   -1    0    0    0    0 -0.00000000000E+00 -0.00000000000E+00 -0.45593999997E+02  0.45594000000E+02  0.51100000000E-03 0.  1.
    9900012    2    1    2    0    0 -0.16579558351E+02 -0.34068013411E+02  0.14753067885E+02  0.50528876732E+02  0.30000051314E+02 0.  0.
        -12    1    1    2    0    0  0.16579558351E+02  0.34068013411E+02 -0.14753067885E+02  0.40659123268E+02  0.00000000000E+00 0.  1.
         11    1    3    3    0    0 -0.11838474442E+01 -0.83912962235E+01  0.66938733677E+01  0.10799226269E+02  0.51100000000E-03 0. -1.
        -11    1    3    3    0    0 -0.49996978719E+01 -0.11450746525E+02  0.16085336165E+02  0.20367980131E+02  0.51100000000E-03 0.  1.
         12    1    3    3    0    0 -0.10396013035E+02 -0.14225970662E+02 -0.80261416474E+01  0.19361670332E+02  0.00000000000E+00 0. -1.
</event>
<event>
 7    1  0.5913457E-013  0.5052885E+02  0.7816164E-02  0.1300439E+00
        -11   -1    0    0    0    0  0.00000000000E+00  0.00000000000E+00  0.45593999997E+02  0.45594000000E+02  0.51100000000E-03 0.  1.
         11   -1    0    0    0    0 -0.00000000000E+00 -0.00000000000E+00 -0.45593999997E+02  0.45594000000E+02  0.51100000000E-03 0. -1.
    9900012    2    1    2    0    0 -0.22034537152E+02  0.29124500719E+02 -0.17872019161E+02  0.50528850494E+02  0.29999971562E+02 0.  0.
        -12    1    1    2    0    0  0.22034537152E+02 -0.29124500719E+02  0.17872019161E+02  0.40659149506E+02  0.00000000000E+00 0.  1.
         11    1    3    3    0    0 -0.42757863333E+01  0.81344622757E+01 -0.84833301575E+01  0.12506746823E+02  0.51100000000E-03 0. -1.
        -11    1    3    3    0    0 -0.12011572560E+02  0.17102275944E+02 -0.17563830769E+02  0.27299338259E+02  0.51100000000E-03 0.  1.
        -12    1    3    3    0    0 -0.57471782589E+01  0.38877624985E+01  0.81751417655E+01  0.10722765412E+02  0.00000000000E+00 0.  1.
</event>
<event>
 7    1  0.5913457E-013  0.5052886E+02  0.7816164E-02  0.1300439E+00
        -11   -1    0    0    0    0  0.00000000000E+00  0.00000000000E+00  0.45593999997E+02  0.45594000000E+02  0.51100000000E-03 0. -1.
         11   -1    0    0    0    0 -0.00000000000E+00 -0.00000000000E+00 -0.45593999997E+02  0.45594000000E+02  0.51100000000E-03 0.  1.
    9900012    2    1    2    0    0  0.69517646948E+01  0.37995933763E+02  0.12694399265E+02  0.50528858499E+02  0.29999995894E+02 0.  0.
        -12    1    1    2    0    0 -0.69517646948E+01 -0.37995933763E+02 -0.12694399265E+02  0.40659141501E+02  0.00000000000E+00 0.  1.
         11    1    3    3    0    0  0.12866786439E+02  0.24469901204E+02  0.14381351679E+02  0.31163336383E+02  0.51100000000E-03 0. -1.
        -11    1    3    3    0    0 -0.27505550041E+01 -0.11152526403E+01  0.24242036149E+01  0.38322453875E+01  0.51100000000E-03 0.  1.
        -12    1    3    3    0    0 -0.31644667397E+01  0.14641285199E+02 -0.41111560281E+01  0.15533276728E+02  0.00000000000E+00 0.  1.
</event>
<event>
 7    1  0.5913457E-013  0.5052887E+02  0.7816164E-02  0.1300439E+00
        -11   -1    0    0    0    0  0.00000000000E+00  0.00000000000E+00  0.45593999997E+02  0.45594000000E+02  0.51100000000E-03 0.  1.
         11   -1    0    0    0    0 -0.00000000000E+00 -0.00000000000E+00 -0.45593999997E+02  0.45594000000E+02  0.51100000000E-03 0. -1.
    9900012    2    1    2    0    0 -0.15714044502E+02 -0.93182842918E+01 -0.36323596187E+02  0.50528865027E+02  0.30000015737E+02 0.  0.
        -12    1    1    2    0    0  0.15714044502E+02  0.93182842918E+01  0.36323596187E+02  0.40659134973E+02  0.00000000000E+00 0.  1.
         11    1    3    3    0    0 -0.67445528722E+01 -0.11823504629E+00 -0.20979925358E+02  0.22037700453E+02  0.51100000000E-03 0.  1.
        -11    1    3    3    0    0  0.40782945722E+01  0.34300427608E+01 -0.61484600277E+01  0.81364145010E+01  0.51100000000E-03 0. -1.
        -12    1    3    3    0    0 -0.13047786201E+02 -0.12630092006E+02 -0.91952108015E+01  0.20354750073E+02  0.00000000000E+00 0.  1.
</event>
<event>
 7    1  0.5913457E-013  0.5052886E+02  0.7816164E-02  0.1300439E+00
        -11   -1    0    0    0    0  0.00000000000E+00  0.00000000000E+00  0.45593999997E+02  0.45594000000E+02  0.51100000000E-03 0.  1.
         11   -1    0    0    0    0 -0.00000000000E+00 -0.00000000000E+00 -0.45593999997E+02  0.45594000000E+02  0.51100000000E-03 0. -1.
    9900012    2    1    2    0    0 -0.81471845853E+01  0.28142654196E+02 -0.28191842897E+02  0.50528860710E+02  0.30000002614E+02 0.  0.
        -12    1    1    2    0    0  0.81471845853E+01 -0.28142654196E+02  0.28191842897E+02  0.40659139290E+02  0.00000000000E+00 0.  1.
         11    1    3    3    0    0 -0.86208359835E+01  0.99106267029E+01 -0.19808392723E+02  0.23767872375E+02  0.51100000000E-03 0. -1.
        -11    1    3    3    0    0 -0.36824831785E+01  0.14738131956E+02 -0.12718992732E+02  0.19812773462E+02  0.51100000000E-03 0.  1.
        -12    1    3    3    0    0  0.41561345767E+01  0.34938955379E+01  0.43355425575E+01  0.69482148727E+01  0.00000000000E+00 0.  1.
</event>
<event>
 7    1  0.5913457E-013  0.5052885E+02  0.7816164E-02  0.1300439E+00
        -11   -1    0    0    0    0  0.00000000000E+00  0.00000000000E+00  0.45593999997E+02  0.45594000000E+02  0.51100000000E-03 0. -1.
         11   -1    0    0    0    0 -0.00000000000E+00 -0.00000000000E+00 -0.45593999997E+02  0.45594000000E+02  0.51100000000E-03 0.  1.
    9900012    2    1    2    0    0 -0.18642288087E+02  0.30614661162E+02  0.19193077190E+02  0.50528848568E+02  0.29999965706E+02 0.  0.
        -12    1    1    2    0    0  0.18642288087E+02 -0.30614661162E+02 -0.19193077190E+02  0.40659151432E+02  0.00000000000E+00 0.  1.
         11    1    3    3    0    0 -0.90085204410E+01  0.23502843349E+02  0.13746215598E+02  0.28679182861E+02  0.51100000000E-03 0. -1.
        -11    1    3    3    0    0 -0.11479541021E+02  0.11174971721E+02  0.18679962763E+01  0.16129143355E+02  0.51100000000E-03 0.  1.
        -12    1    3    3    0    0  0.18457733751E+01 -0.40631539080E+01  0.35788653155E+01  0.57205223520E+01  0.00000000000E+00 0.  1.
</event>
<event>
 7    1  0.5913457E-013  0.5052887E+02  0.7816164E-02  0.1300439E+00
        -11   -1    0    0    0    0  0.00000000000E+00  0.00000000000E+00  0.45593999997E+02  0.45594000000E+02  0.51100000000E-03 0.  1.
         11   -1    0    0    0    0 -0.00000000000E+00 -0.00000000000E+00 -0.45593999997E+02  0.45594000000E+02  0.51100000000E-03 0. -1.
    9900012    2    1    2    0    0  0.11074610455E+02  0.10911745303E+02 -0.37569290543E+02  0.50528870961E+02  0.30000033773E+02 0.  0.
        -12    1    1    2    0    0 -0.11074610455E+02 -0.10911745303E+02  0.37569290543E+02  0.40659129039E+02  0.00000000000E+00 0.  1.
         11    1    3    3    0    0 -0.42127216779E+01  0.15757866445E+00 -0.63390350938E+01  0.76128326628E+01  0.51100000000E-03 0. -1.
        -11    1    3    3    0    0 -0.25174807676E+01  0.68515470046E+01 -0.20508961957E+02  0.21769219706E+02  0.51100000000E-03 0.  1.
         12    1    3    3    0    0  0.17804812901E+02  0.39026196338E+01 -0.10721293492E+02  0.21146818592E+02  0.00000000000E+00 0. -1.
</event>
<event>
 7    1  0.5913457E-013  0.5052883E+02  0.7816164E-02  0.1300439E+00
        -11   -1    0    0    0    0  0.00000000000E+00  0.00000000000E+00  0.45593999997E+02  0.45594000000E+02  0.51100000000E-03 0.  1.
         11   -1    0    0    0    0 -0.00000000000E+00 -0.00000000000E+00 -0.45593999997E+02  0.45594000000E+02  0.51100000000E-03 0. -1.
    9900012    2    1    2    0    0  0.31827013995E+02 -0.54514681286E+01 -0.24708116538E+02  0.50528827019E+02  0.29999900207E+02 0.  0.
        -12    1    1    2    0    0 -0.31827013995E+02  0.54514681286E+01  0.24708116538E+02  0.40659172981E+02  0.00000000000E+00 0.  1.
         11    1    3    3    0    0  0.74982818237E+01  0.44595177625E+01 -0.34013421322E+01  0.93637950396E+01  0.51100000000E-03 0. -1.
        -11    1    3    3    0    0  0.13289365131E+02 -0.12441470811E+02 -0.23400335785E+02  0.29647481118E+02  0.51100000000E-03 0.  1.
         12    1    3    3    0    0  0.11039367041E+02  0.25304849203E+01  0.20935613791E+01  0.11517550861E+02  0.00000000000E+00 0. -1.
</event>
<event>
 7    1  0.5913457E-013  0.5052886E+02  0.7816164E-02  0.1300439E+00
        -11   -1    0    0    0    0  0.00000000000E+00  0.00000000000E+00  0.45593999997E+02  0.45594000000E+02  0.51100000000E-03 0. -1.
         11   -1    0    0    0    0 -0.00000000000E+00 -0.00000000000E+00 -0.45593999997E+02  0.45594000000E+02  0.51100000000E-03 0.  1.
    9900012    2    1    2    0    0  0.35453606717E+02  0.19846072284E+02 -0.15300986962E+01  0.50528855686E+02  0.29999987343E+02 0.  0.
        -12    1    1    2    0    0 -0.35453606717E+02 -0.19846072284E+02  0.15300986962E+01  0.40659144314E+02  0.00000000000E+00 0.  1.
         11    1    3    3    0    0  0.13248434566E+02  0.55397422789E+01  0.78968788784E+01  0.16388119454E+02  0.51100000000E-03 0. -1.
        -11    1    3    3    0    0 -0.12387234058E+01  0.14398389361E+01  0.38430673044E+01  0.42868098168E+01  0.51100000000E-03 0.  1.
         12    1    3    3    0    0  0.23443895557E+02  0.12866491069E+02 -0.13270044879E+02  0.29853926415E+02  0.00000000000E+00 0. -1.
</event>
<event>
 7    1  0.5913457E-013  0.5052889E+02  0.7816164E-02  0.1300439E+00
        -11   -1    0    0    0    0  0.00000000000E+00  0.00000000000E+00  0.45593999997E+02  0.45594000000E+02  0.51100000000E-03 0.  1.
         11   -1    0    0    0    0 -0.00000000000E+00 -0.00000000000E+00 -0.45593999997E+02  0.45594000000E+02  0.51100000000E-03 0. -1.
    9900012    2    1    2    0    0  0.11967042681E+02  0.22443681544E+02 -0.31721196680E+02  0.50528889452E+02  0.30000089977E+02 0.  0.
        -12    1    1    2    0    0 -0.11967042681E+02 -0.22443681544E+02  0.31721196680E+02  0.40659110548E+02  0.00000000000E+00 0.  1.
         11    1    3    3    0    0 -0.17167009078E+01  0.28127972446E+01 -0.48865892732E+01  0.58938650588E+01  0.51100000000E-03 0. -1.
        -11    1    3    3    0    0  0.11232843118E+01  0.22160250525E+02 -0.21021510966E+02  0.30565379018E+02  0.51100000000E-03 0.  1.
        -12    1    3    3    0    0  0.12560459277E+02 -0.25293662253E+01 -0.58130964412E+01  0.14069645375E+02  0.00000000000E+00 0.  1.
</event>
<event>
 7    1  0.5913457E-013  0.5052887E+02  0.7816164E-02  0.1300439E+00
        -11   -1    0    0    0    0  0.00000000000E+00  0.00000000000E+00  0.45593999997E+02  0.45594000000E+02  0.51100000000E-03 0.  1.
         11   -1    0    0    0    0 -0.00000000000E+00 -0.00000000000E+00 -0.45593999997E+02  0.45594000000E+02  0.51100000000E-03 0. -1.
    9900012    2    1    2    0    0 -0.15893506286E+02  0.37358539008E+02  0.22137649192E+01  0.50528871456E+02  0.30000035277E+02 0.  0.
        -12    1    1    2    0    0  0.15893506286E+02 -0.37358539008E+02 -0.22137649192E+01  0.40659128544E+02  0.00000000000E+00 0.  1.
         11    1    3    3    0    0 -0.74603196205E+01  0.21965017964E+02  0.27578780141E+01  0.23360742163E+02  0.51100000000E-03 0. -1.
        -11    1    3    3    0    0 -0.90727616638E+01  0.17112340182E+02  0.60754454157E+01  0.20299217422E+02  0.51100000000E-03 0.  1.
        -12    1    3    3    0    0  0.63957499829E+00 -0.17188191379E+01 -0.66195585106E+01  0.68689118704E+01  0.00000000000E+00 0.  1.
</event>
<event>
 7    1  0.5913457E-013  0.5052885E+02  0.7816164E-02  0.1300439E+00
        -11   -1    0    0    0    0  0.00000000000E+00  0.00000000000E+00  0.45593999997E+02  0.45594000000E+02  0.51100000000E-03 0.  1.
         11   -1    0    0    0    0 -0.00000000000E+00 -0.00000000000E+00 -0.45593999997E+02  0.45594000000E+02  0.51100000000E-03 0. -1.
    9900012    2    1    2    0    0 -0.17759231734E+02 -0.17745725011E+02 -0.31982264448E+02  0.50528852110E+02  0.29999976474E+02 0.  0.
        -12    1    1    2    0    0  0.17759231734E+02  0.17745725011E+02  0.31982264448E+02  0.40659147890E+02  0.00000000000E+00 0.  1.
         11    1    3    3    0    0  0.21360086182E+01  0.87792830291E+00  0.23101123903E+01  0.32664828851E+01  0.51100000000E-03 0. -1.
        -11    1    3    3    0    0 -0.25598523770E+01 -0.26993604962E+00  0.18540439670E+01  0.31722529779E+01  0.51100000000E-03 0.  1.
         12    1    3    3    0    0 -0.17335387975E+02 -0.18353717264E+02 -0.36146420805E+02  0.44090116247E+02  0.00000000000E+00 0. -1.
</event>
<event>
 7    1  0.5913457E-013  0.5052886E+02  0.7816164E-02  0.1300439E+00
        -11   -1    0    0    0    0  0.00000000000E+00  0.00000000000E+00  0.45593999997E+02  0.45594000000E+02  0.51100000000E-03 0.  1.
         11   -1    0    0    0    0 -0.00000000000E+00 -0.00000000000E+00 -0.45593999997E+02  0.45594000000E+02  0.51100000000E-03 0. -1.
    9900012    2    1    2    0    0  0.19150158759E+02 -0.17798918585E+02 -0.31138976385E+02  0.50528856704E+02  0.29999990438E+02 0.  0.
        -12    1    1    2    0    0 -0.19150158759E+02  0.17798918585E+02  0.31138976385E+02  0.40659143296E+02  0.00000000000E+00 0.  1.
         11    1    3    3    0    0  0.11671139207E+02 -0.80311322305E+01 -0.14800577377E+02  0.20488330001E+02  0.51100000000E-03 0. -1.
        -11    1    3    3    0    0  0.14013785789E+02 -0.10678328493E+02 -0.15353154599E+02  0.23369472565E+02  0.51100000000E-03 0.  1.
        -12    1    3    3    0    0 -0.65347662377E+01  0.91054213792E+00 -0.98524440828E+00  0.66710541379E+01  0.00000000000E+00 0.  1.
</event>
<event>
 7    1  0.5913457E-013  0.5052886E+02  0.7816164E-02  0.1300439E+00
        -11   -1    0    0    0    0  0.00000000000E+00  0.00000000000E+00  0.45593999997E+02  0.45594000000E+02  0.51100000000E-03 0.  1.
         11   -1    0    0    0    0 -0.00000000000E+00 -0.00000000000E+00 -0.45593999997E+02  0.45594000000E+02  0.51100000000E-03 0. -1.
    9900012    2    1    2    0    0 -0.24837074791E+02  0.31772296109E+02 -0.51775040709E+01  0.50528860405E+02  0.30000001686E+02 0.  0.
        -12    1    1    2    0    0  0.24837074791E+02 -0.31772296109E+02  0.51775040709E+01  0.40659139595E+02  0.00000000000E+00 0.  1.
         11    1    3    3    0    0 -0.37413262570E+01 -0.43217922410E+00  0.43515305420E+01  0.57550081982E+01  0.51100000000E-03 0. -1.
        -11    1    3    3    0    0 -0.25935240826E+01  0.11745436199E+02  0.56495195993E+01  0.13289044760E+02  0.51100000000E-03 0.  1.
         12    1    3    3    0    0 -0.18502224451E+02  0.20459039134E+02 -0.15178554212E+02  0.31484807446E+02  0.00000000000E+00 0. -1.
</event>
<event>
 7    1  0.5913457E-013  0.5052887E+02  0.7816164E-02  0.1300439E+00
        -11   -1    0    0    0    0  0.00000000000E+00  0.00000000000E+00  0.45593999997E+02  0.45594000000E+02  0.51100000000E-03 0. -1.
         11   -1    0    0    0    0 -0.00000000000E+00 -0.00000000000E+00 -0.45593999997E+02  0.45594000000E+02  0.51100000000E-03 0.  1.
    9900012    2    1    2    0    0  0.30675018906E+02  0.25111592178E+02  0.90341399057E+01  0.50528873959E+02  0.30000042885E+02 0.  0.
        -12    1    1    2    0    0 -0.30675018906E+02 -0.25111592178E+02 -0.90341399057E+01  0.40659126041E+02  0.00000000000E+00 0.  1.
         11    1    3    3    0    0 -0.21805607524E+01 -0.46045961235E+00  0.12353049504E+01  0.25481065188E+01  0.51100000000E-03 0.  1.
        -11    1    3    3    0    0 -0.84302378537E+00  0.16278408590E+01  0.63575294366E+01  0.66165501406E+01  0.51100000000E-03 0. -1.
         12    1    3    3    0    0  0.33698603444E+02  0.23944210932E+02  0.14413055187E+01  0.41364217299E+02  0.00000000000E+00 0. -1.
</event>
<event>
 7    1  0.5913457E-013  0.5052886E+02  0.7816164E-02  0.1300439E+00
        -11   -1    0    0    0    0  0.00000000000E+00  0.00000000000E+00  0.45593999997E+02  0.45594000000E+02  0.51100000000E-03 0.  1.
         11   -1    0    0    0    0 -0.00000000000E+00 -0.00000000000E+00 -0.45593999997E+02  0.45594000000E+02  0.51100000000E-03 0. -1.
    9900012    2    1    2    0    0  0.95822228928E+01 -0.14698854495E+02 -0.36678195495E+02  0.50528863956E+02  0.30000012482E+02 0.  0.
        -12    1    1    2    0    0 -0.95822228928E+01  0.14698854495E+02  0.36678195495E+02  0.40659136044E+02  0.00000000000E+00 0.  1.
         11    1    3    3    0    0  0.58589344797E+00 -0.24210170849E+01 -0.22154704819E+01  0.33336023421E+01  0.51100000000E-03 0. -1.
        -11    1    3    3    0    0  0.15863977278E+02  0.23938855776E+01 -0.16920578286E+02  0.23317427667E+02  0.51100000000E-03 0.  1.
        -12    1    3    3    0    0 -0.68676478334E+01 -0.14671722987E+02 -0.17542146728E+02  0.23877833947E+02  0.00000000000E+00 0.  1.
</event>
<event>
 7    1  0.5913457E-013  0.5052886E+02  0.7816164E-02  0.1300439E+00
        -11   -1    0    0    0    0  0.00000000000E+00  0.00000000000E+00  0.45593999997E+02  0.45594000000E+02  0.51100000000E-03 0.  1.
         11   -1    0    0    0    0 -0.00000000000E+00 -0.00000000000E+00 -0.45593999997E+02  0.45594000000E+02  0.51100000000E-03 0. -1.
    9900012    2    1    2    0    0 -0.15132753091E+01  0.58551856030E+01 -0.40206874895E+02  0.50528856017E+02  0.29999988349E+02 0.  0.
        -12    1    1    2    0    0  0.15132753091E+01 -0.58551856030E+01  0.40206874895E+02  0.40659143983E+02  0.00000000000E+00 0.  1.
         11    1    3    3    0    0 -0.75869557096E+01  0.91849567144E+01 -0.28458296622E+02  0.30851255625E+02  0.51100000000E-03 0. -1.
        -11    1    3    3    0    0 -0.45341165112E+01 -0.11058555482E+01 -0.53163945399E+01  0.70742618128E+01  0.51100000000E-03 0.  1.
        -12    1    3    3    0    0  0.10607796912E+02 -0.22239155633E+01 -0.64321837333E+01  0.12603338579E+02  0.00000000000E+00 0.  1.
</event>
<event>
 7    1  0.5913457E-013  0.5052884E+02  0.7816164E-02  0.1300439E+00
        -11   -1    0    0    0    0  0.00000000000E+00  0.00000000000E+00  0.45593999997E+02  0.45594000000E+02  0.51100000000E-03 0. -1.
         11   -1    0    0    0    0 -0.00000000000E+00 -0.00000000000E+00 -0.45593999997E+02  0.45594000000E+02  0.51100000000E-03 0.  1.
    9900012    2    1    2    0    0 -0.17538566655E+02 -0.34820694100E+02  0.11536268738E+02  0.50528836773E+02  0.29999929856E+02 0.  0.
        -12    1    1    2    0    0  0.17538566655E+02  0.34820694100E+02 -0.11536268738E+02  0.40659163227E+02  0.00000000000E+00 0.  1.
         11    1    3    3    0    0 -0.95855364477E+01 -0.15464571415E+02  0.27400611034E+01  0.18399549264E+02  0.51100000000E-03 0. -1.
        -11    1    3    3    0    0  0.20888186897E+00  0.44114889283E+01 -0.19125198922E+01  0.48127537646E+01  0.51100000000E-03 0.  1.
         12    1    3    3    0    0 -0.81619120765E+01 -0.23767611613E+02  0.10708727527E+02  0.27316533744E+02  0.00000000000E+00 0. -1.
</event>
<event>
 7    1  0.5913457E-013  0.5052887E+02  0.7816164E-02  0.1300439E+00
        -11   -1    0    0    0    0  0.00000000000E+00  0.00000000000E+00  0.45593999997E+02  0.45594000000E+02  0.51100000000E-03 0.  1.
         11   -1    0    0    0    0 -0.00000000000E+00 -0.00000000000E+00 -0.45593999997E+02  0.45594000000E+02  0.51100000000E-03 0. -1.
    9900012    2    1    2    0    0 -0.13521097379E+02  0.25481244943E+02 -0.28653982277E+02  0.50528872876E+02  0.30000039593E+02 0.  0.
        -12    1    1    2    0    0  0.13521097379E+02 -0.25481244943E+02  0.28653982277E+02  0.40659127124E+02  0.00000000000E+00 0.  1.
         11    1    3    3    0    0 -0.13282546397E+02  0.10025036276E+02 -0.19066982502E+02  0.25307651276E+02  0.51100000000E-03 0. -1.
        -11    1    3    3    0    0 -0.80810380331E+01  0.35504020636E+01 -0.19172714113E+01  0.90324116619E+01  0.51100000000E-03 0.  1.
         12    1    3    3    0    0  0.78424870514E+01  0.11905806603E+02 -0.76697283638E+01  0.16188809938E+02  0.00000000000E+00 0. -1.
</event>
<event>
 7    1  0.5913457E-013  0.5052886E+02  0.7816164E-02  0.1300439E+00
        -11   -1    0    0    0    0  0.00000000000E+00  0.00000000000E+00  0.45593999997E+02  0.45594000000E+02  0.51100000000E-03 0.  1.
         11   -1    0    0    0    0 -0.00000000000E+00 -0.00000000000E+00 -0.45593999997E+02  0.45594000000E+02  0.51100000000E-03 0. -1.
    9900012    2    1    2    0    0 -0.25219181024E+02 -0.59127288543E+01 -0.31340041065E+02  0.50528860462E+02  0.30000001860E+02 0.  0.
        -12    1    1    2    0    0  0.25219181024E+02  0.59127288543E+01  0.31340041065E+02  0.40659139538E+02  0.00000000000E+00 0.  1.
         11    1    3    3    0    0 -0.16666953052E+02  0.66312748230E+01 -0.92044233037E+01  0.20161412114E+02  0.51100000000E-03 0. -1.
        -11    1    3    3    0    0  0.29726136015E+01 -0.44427100754E+01 -0.18227337913E+01  0.56476953860E+01  0.51100000000E-03 0.  1.
        -12    1    3    3    0    0 -0.11524841574E+02 -0.81012936019E+01 -0.20312883970E+02  0.24719752962E+02  0.00000000000E+00 0.  1.
</event>
<event>
 7    1  0.5913457E-013  0.5052885E+02  0.7816164E-02  0.1300439E+00
        -11   -1    0    0    0    0  0.00000000000E+00  0.00000000000E+00  0.45593999997E+02  0.45594000000E+02  0.51100000000E-03 0.  1.
         11   -1    0    0    0    0 -0.00000000000E+00 -0.00000000000E+00 -0.45593999997E+02  0.45594000000E+02  0.51100000000E-03 0. -1.
    9900012    2    1    2    0    0 -0.19654374148E+02 -0.75741430349E+01 -0.34777927320E+02  0.50528852265E+02  0.29999976945E+02 0.  0.
        -12    1    1    2    0    0  0.19654374148E+02  0.75741430349E+01  0.34777927320E+02  0.40659147735E+02  0.00000000000E+00 0.  1.
         11    1    3    3    0    0 -0.45524882232E+00 -0.34963781506E+01 -0.60056452151E+01  0.69641716215E+01  0.51100000000E-03 0. -1.
        -11    1    3    3    0    0 -0.70668277079E+00  0.29416929037E+01 -0.22661257834E+02  0.22862317568E+02  0.51100000000E-03 0.  1.
        -12    1    3    3    0    0 -0.18492442555E+02 -0.70194577881E+01 -0.61110242704E+01  0.20702363076E+02  0.00000000000E+00 0.  1.
</event>
<event>
 7    1  0.5913457E-013  0.5052887E+02  0.7816164E-02  0.1300439E+00
        -11   -1    0    0    0    0  0.00000000000E+00  0.00000000000E+00  0.45593999997E+02  0.45594000000E+02  0.51100000000E-03 0.  1.
         11   -1    0    0    0    0 -0.00000000000E+00 -0.00000000000E+00 -0.45593999997E+02  0.45594000000E+02  0.51100000000E-03 0. -1.
    9900012    2    1    2    0    0 -0.31496864247E+02 -0.25711456313E+02 -0.18342694625E+00  0.50528867095E+02  0.30000022023E+02 0.  0.
        -12    1    1    2    0    0  0.31496864247E+02  0.25711456313E+02  0.18342694625E+00  0.40659132905E+02  0.00000000000E+00 0.  1.
         11    1    3    3    0    0 -0.27682471276E+02 -0.26418698395E+02  0.36445432992E+01  0.38438906552E+02  0.51100000000E-03 0. -1.
        -11    1    3    3    0    0 -0.31331136187E+01 -0.11175518115E+01  0.33089820224E+01  0.46919809553E+01  0.51100000000E-03 0.  1.
        -12    1    3    3    0    0 -0.68127935214E+00  0.18247938935E+01 -0.71369522678E+01  0.73979795879E+01  0.00000000000E+00 0.  1.
</event>
<event>
 7    1  0.5913457E-013  0.5052886E+02  0.7816164E-02  0.1300439E+00
        -11   -1    0    0    0    0  0.00000000000E+00  0.00000000000E+00  0.45593999997E+02  0.45594000000E+02  0.51100000000E-03 0.  1.
         11   -1    0    0    0    0 -0.00000000000E+00 -0.00000000000E+00 -0.45593999997E+02  0.45594000000E+02  0.51100000000E-03 0. -1.
    9900012    2    1    2    0    0 -0.31529739771E+02 -0.28669943286E+01 -0.25511201446E+02  0.50528861473E+02  0.30000004933E+02 0.  0.
        -12    1    1    2    0    0  0.31529739771E+02  0.28669943286E+01  0.25511201446E+02  0.40659138527E+02  0.00000000000E+00 0.  1.
         11    1    3    3    0    0  0.29927762593E+01 -0.34367887863E+01 -0.34487222421E+01  0.57150601278E+01  0.51100000000E-03 0. -1.
        -11    1    3    3    0    0 -0.42460005265E+01 -0.66418711176E+01 -0.44220775186E+01  0.90386803381E+01  0.51100000000E-03 0.  1.
         12    1    3    3    0    0 -0.30276515504E+02  0.72116655753E+01 -0.17640401685E+02  0.35775121007E+02  0.00000000000E+00 0. -1.
</event>
<event>
 7    1  0.5913457E-013  0.5052886E+02  0.7816164E-02  0.1300439E+00
        -11   -1    0    0    0    0  0.00000000000E+00  0.00000000000E+00  0.45593999997E+02  0.45594000000E+02  0.51100000000E-03 0.  1.
         11   -1    0    0    0    0 -0.00000000000E+00 -0.00000000000E+00 -0.45593999997E+02  0.45594000000E+02  0.51100000000E-03 0. -1.
    9900012    2    1    2    0    0 -0.25422409747E+01  0.26378314133E+02 -0.30836460344E+02  0.50528859180E+02  0.29999997963E+02 0.  0.
        -12    1    1    2    0    0  0.25422409747E+01 -0.26378314133E+02  0.30836460344E+02  0.40659140820E+02  0.00000000000E+00 0.  1.
         11    1    3    3    0    0 -0.34465091461E+00  0.17437118763E+02 -0.29144114737E+02  0.33963970897E+02  0.51100000000E-03 0. -1.
        -11    1    3    3    0    0  0.12377648484E+01  0.39140978756E+01 -0.72431986232E+01  0.83256321415E+01  0.51100000000E-03 0.  1.
        -12    1    3    3    0    0 -0.34353549085E+01  0.50270974944E+01  0.55508530160E+01  0.82392561418E+01  0.00000000000E+00 0.  1.
</event>
<event>
 7    1  0.5913457E-013  0.5052886E+02  0.7816164E-02  0.1300439E+00
        -11   -1    0    0    0    0  0.00000000000E+00  0.00000000000E+00  0.45593999997E+02  0.45594000000E+02  0.51100000000E-03 0.  1.
         11   -1    0    0    0    0 -0.00000000000E+00 -0.00000000000E+00 -0.45593999997E+02  0.45594000000E+02  0.51100000000E-03 0. -1.
    9900012    2    1    2    0    0 -0.16283342992E+02  0.27518239974E+02 -0.25115038763E+02  0.50528856351E+02  0.29999989364E+02 0.  0.
        -12    1    1    2    0    0  0.16283342992E+02 -0.27518239974E+02  0.25115038763E+02  0.40659143649E+02  0.00000000000E+00 0.  1.
         11    1    3    3    0    0 -0.56165211798E+01  0.65084012344E+01 -0.34596984490E+01  0.92668284980E+01  0.51100000000E-03 0. -1.
        -11    1    3    3    0    0 -0.11014386996E+02  0.36061236145E+01  0.21336725082E+01  0.11784456163E+02  0.51100000000E-03 0.  1.
        -12    1    3    3    0    0  0.34756518399E+00  0.17403715125E+02 -0.23789012822E+02  0.29477571690E+02  0.00000000000E+00 0.  1.
</event>
<event>
 7    1  0.5913457E-013  0.5052887E+02  0.7816164E-02  0.1300439E+00
        -11   -1    0    0    0    0  0.00000000000E+00  0.00000000000E+00  0.45593999997E+02  0.45594000000E+02  0.51100000000E-03 0.  1.
         11   -1    0    0    0    0 -0.00000000000E+00 -0.00000000000E+00 -0.45593999997E+02  0.45594000000E+02  0.51100000000E-03 0. -1.
    9900012    2    1    2    0    0  0.39873175769E+02  0.62336731215E+00 -0.79313574239E+01  0.50528866176E+02  0.30000019230E+02 0.  0.
        -12    1    1    2    0    0 -0.39873175769E+02 -0.62336731215E+00  0.79313574239E+01  0.40659133824E+02  0.00000000000E+00 0.  1.
         11    1    3    3    0    0  0.33785200266E+02  0.32298458135E+01 -0.59225026765E+01  0.34452107326E+02  0.51100000000E-03 0. -1.
        -11    1    3    3    0    0  0.36996275108E+01  0.58085254982E+01 -0.24726076165E+01  0.73171033113E+01  0.51100000000E-03 0.  1.
        -12    1    3    3    0    0  0.23883479922E+01 -0.84150039995E+01  0.46375286904E+00  0.87596555393E+01  0.00000000000E+00 0.  1.
</event>
<event>
 7    1  0.5913457E-013  0.5052886E+02  0.7816164E-02  0.1300439E+00
        -11   -1    0    0    0    0  0.00000000000E+00  0.00000000000E+00  0.45593999997E+02  0.45594000000E+02  0.51100000000E-03 0.  1.
         11   -1    0    0    0    0 -0.00000000000E+00 -0.00000000000E+00 -0.45593999997E+02  0.45594000000E+02  0.51100000000E-03 0. -1.
    9900012    2    1    2    0    0  0.52108265612E+01 -0.40138737270E+02  0.38594120137E+01  0.50528855836E+02  0.29999987798E+02 0.  0.
        -12    1    1    2    0    0 -0.52108265612E+01  0.40138737270E+02 -0.38594120137E+01  0.40659144164E+02  0.00000000000E+00 0.  1.
         11    1    3    3    0    0  0.72097815453E+01 -0.73832955074E+01 -0.19270959041E+01  0.10497985586E+02  0.51100000000E-03 0. -1.
        -11    1    3    3    0    0 -0.70296990323E+01 -0.11469001520E+02 -0.65036795454E+01  0.14941636866E+02  0.51100000000E-03 0.  1.
         12    1    3    3    0    0  0.50307440482E+01 -0.21286440243E+02  0.12290187463E+02  0.25089233383E+02  0.00000000000E+00 0. -1.
</event>
<event>
 7    1  0.5913457E-013  0.5052886E+02  0.7816164E-02  0.1300439E+00
        -11   -1    0    0    0    0  0.00000000000E+00  0.00000000000E+00  0.45593999997E+02  0.45594000000E+02  0.51100000000E-03 0.  1.
         11   -1    0    0    0    0 -0.00000000000E+00 -0.00000000000E+00 -0.45593999997E+02  0.45594000000E+02  0.51100000000E-03 0. -1.
    9900012    2    1    2    0    0 -0.16759786326E+02 -0.10713709768E+02 -0.35461126262E+02  0.50528862153E+02  0.30000007001E+02 0.  0.
        -12    1    1    2    0    0  0.16759786326E+02  0.10713709768E+02  0.35461126262E+02  0.40659137847E+02  0.00000000000E+00 0.  1.
         11    1    3    3    0    0 -0.31003367755E+01  0.77766625727E+00 -0.24285909354E+01  0.40143376940E+01  0.51100000000E-03 0. -1.
        -11    1    3    3    0    0 -0.21031147477E+02 -0.13270813729E+02 -0.22501245058E+02  0.33536989886E+02  0.51100000000E-03 0.  1.
         12    1    3    3    0    0  0.73716979269E+01  0.17794377035E+01 -0.10531290269E+02  0.12977534573E+02  0.00000000000E+00 0. -1.
</event>
<event>
 7    1  0.5913457E-013  0.5052887E+02  0.7816164E-02  0.1300439E+00
        -11   -1    0    0    0    0  0.00000000000E+00  0.00000000000E+00  0.45593999997E+02  0.45594000000E+02  0.51100000000E-03 0. -1.
         11   -1    0    0    0    0 -0.00000000000E+00 -0.00000000000E+00 -0.45593999997E+02  0.45594000000E+02  0.51100000000E-03 0.  1.
    9900012    2    1    2    0    0 -0.29122256291E+02  0.14273400784E+02 -0.24522010209E+02  0.50528871061E+02  0.30000034078E+02 0.  0.
        -12    1    1    2    0    0  0.29122256291E+02 -0.14273400784E+02  0.24522010209E+02  0.40659128939E+02  0.00000000000E+00 0.  1.
         11    1    3    3    0    0  0.14205794252E+01  0.75387204652E+01 -0.94356341534E+01  0.12160655587E+02  0.51100000000E-03 0. -1.
        -11    1    3    3    0    0  0.11034987565E+01  0.34299252074E+00 -0.41078672814E+01  0.42673091331E+01  0.51100000000E-03 0.  1.
         12    1    3    3    0    0 -0.31646334472E+02  0.63916877979E+01 -0.10978508774E+02  0.34100906342E+02  0.00000000000E+00 0. -1.
</event>
<event>
 7    1  0.5913457E-013  0.5052885E+02  0.7816164E-02  0.1300439E+00
        -11   -1    0    0    0    0  0.00000000000E+00  0.00000000000E+00  0.45593999997E+02  0.45594000000E+02  0.51100000000E-03 0.  1.
         11   -1    0    0    0    0 -0.00000000000E+00 -0.00000000000E+00 -0.45593999997E+02  0.45594000000E+02  0.51100000000E-03 0. -1.
    9900012    2    1    2    0    0 -0.28646347409E+01  0.28183760221E+02 -0.29165669500E+02  0.50528846666E+02  0.29999959927E+02 0.  0.
        -12    1    1    2    0    0  0.28646347409E+01 -0.28183760221E+02  0.29165669500E+02  0.40659153334E+02  0.00000000000E+00 0.  1.
         11    1    3    3    0    0 -0.49255542476E+01  0.33200470054E+02 -0.26861204737E+02  0.42989029026E+02  0.51100000000E-03 0. -1.
        -11    1    3    3    0    0 -0.92965282169E+00  0.20319290147E+00  0.28049112087E+00  0.99207724200E+00  0.51100000000E-03 0.  1.
        -12    1    3    3    0    0  0.29905723283E+01 -0.52199027338E+01 -0.25849558842E+01  0.65477403984E+01  0.00000000000E+00 0.  1.
</event>
<event>
 7    1  0.5913457E-013  0.5052884E+02  0.7816164E-02  0.1300439E+00
        -11   -1    0    0    0    0  0.00000000000E+00  0.00000000000E+00  0.45593999997E+02  0.45594000000E+02  0.51100000000E-03 0. -1.
         11   -1    0    0    0    0 -0.00000000000E+00 -0.00000000000E+00 -0.45593999997E+02  0.45594000000E+02  0.51100000000E-03 0.  1.
    9900012    2    1    2    0    0  0.19568897436E+02 -0.13979738711E+02 -0.32784026199E+02  0.50528840944E+02  0.29999942534E+02 0.  0.
        -12    1    1    2    0    0 -0.19568897436E+02  0.13979738711E+02  0.32784026199E+02  0.40659159056E+02  0.00000000000E+00 0.  1.
         11    1    3    3    0    0  0.12441590958E+02 -0.81000936459E+00 -0.20326646671E+02  0.23845793463E+02  0.51100000000E-03 0. -1.
        -11    1    3    3    0    0 -0.48895489720E+01 -0.29163849328E+01 -0.87794485907E+01  0.10463828556E+02  0.51100000000E-03 0.  1.
        -12    1    3    3    0    0  0.12016855450E+02 -0.10253344414E+02 -0.36779309376E+01  0.16219218925E+02  0.00000000000E+00 0.  1.
</event>
<event>
 7    1  0.5913457E-013  0.5052885E+02  0.7816164E-02  0.1300439E+00
        -11   -1    0    0    0    0  0.00000000000E+00  0.00000000000E+00  0.45593999997E+02  0.45594000000E+02  0.51100000000E-03 0.  1.
         11   -1    0    0    0    0 -0.00000000000E+00 -0.00000000000E+00 -0.45593999997E+02  0.45594000000E+02  0.51100000000E-03 0. -1.
    9900012    2    1    2    0    0  0.40288579271E+02 -0.53832820145E+01  0.10087121418E+01  0.50528845494E+02  0.29999956363E+02 0.  0.
        -12    1    1    2    0    0 -0.40288579271E+02  0.53832820145E+01 -0.10087121418E+01  0.40659154506E+02  0.00000000000E+00 0.  1.
         11    1    3    3    0    0  0.21141633315E+02 -0.63328150625E+01  0.24816933351E+00  0.22071130332E+02  0.51100000000E-03 0.  1.
        -11    1    3    3    0    0  0.21672832256E+02 -0.46641966359E+01 -0.49768432797E+00  0.22174626902E+02  0.51100000000E-03 0. -1.
        -12    1    3    3    0    0 -0.25258863000E+01  0.56137296839E+01  0.12582271363E+01  0.62830882606E+01  0.00000000000E+00 0.  1.
</event>
<event>
 7    1  0.5913457E-013  0.5052887E+02  0.7816164E-02  0.1300439E+00
        -11   -1    0    0    0    0  0.00000000000E+00  0.00000000000E+00  0.45593999997E+02  0.45594000000E+02  0.51100000000E-03 0.  1.
         11   -1    0    0    0    0 -0.00000000000E+00 -0.00000000000E+00 -0.45593999997E+02  0.45594000000E+02  0.51100000000E-03 0. -1.
    9900012    2    1    2    0    0 -0.80531662624E+01  0.12780341514E+01 -0.39833130101E+02  0.50528866809E+02  0.30000021154E+02 0.  0.
        -12    1    1    2    0    0  0.80531662624E+01 -0.12780341514E+01  0.39833130101E+02  0.40659133191E+02  0.00000000000E+00 0.  1.
         11    1    3    3    0    0 -0.10130855125E+02 -0.73036882839E+01 -0.15534769334E+02  0.19932564979E+02  0.51100000000E-03 0. -1.
        -11    1    3    3    0    0 -0.45600068628E+01 -0.10040697049E+01 -0.13576509176E+01  0.48626160487E+01  0.51100000000E-03 0.  1.
         12    1    3    3    0    0  0.66376957257E+01  0.95857921402E+01 -0.22940709850E+02  0.25733685782E+02  0.00000000000E+00 0. -1.
</event>
<event>
 7    1  0.5913457E-013  0.5052886E+02  0.7816164E-02  0.1300439E+00
        -11   -1    0    0    0    0  0.00000000000E+00  0.00000000000E+00  0.45593999997E+02  0.45594000000E+02  0.51100000000E-03 0.  1.
         11   -1    0    0    0    0 -0.00000000000E+00 -0.00000000000E+00 -0.45593999997E+02  0.45594000000E+02  0.51100000000E-03 0. -1.
    9900012    2    1    2    0    0 -0.39086868464E+02 -0.72243679466E+01  0.85551740261E+01  0.50528858578E+02  0.29999996134E+02 0.  0.
        -12    1    1    2    0    0  0.39086868464E+02  0.72243679466E+01 -0.85551740261E+01  0.40659141422E+02  0.00000000000E+00 0.  1.
         11    1    3    3    0    0 -0.92491411620E+01 -0.27354096468E+01  0.50820690322E+01  0.10902133006E+02  0.51100000000E-03 0. -1.
        -11    1    3    3    0    0 -0.57981883323E+01 -0.81844937233E+01  0.10287782342E+02  0.14368138057E+02  0.51100000000E-03 0.  1.
         12    1    3    3    0    0 -0.24039538970E+02  0.36955354235E+01 -0.68146773477E+01  0.25258587516E+02  0.00000000000E+00 0. -1.
</event>
<event>
 7    1  0.5913457E-013  0.5052898E+02  0.7816164E-02  0.1300438E+00
        -11   -1    0    0    0    0  0.00000000000E+00  0.00000000000E+00  0.45593999997E+02  0.45594000000E+02  0.51100000000E-03 0.  1.
         11   -1    0    0    0    0 -0.00000000000E+00 -0.00000000000E+00 -0.45593999997E+02  0.45594000000E+02  0.51100000000E-03 0. -1.
    9900012    2    1    2    0    0 -0.33878954320E+02 -0.15478338384E+02 -0.16303182464E+02  0.50528975621E+02  0.30000351896E+02 0.  0.
        -12    1    1    2    0    0  0.33878954320E+02  0.15478338384E+02  0.16303182464E+02  0.40659024379E+02  0.00000000000E+00 0.  1.
         11    1    3    3    0    0 -0.30777816271E+02 -0.53107659755E+01 -0.16367110318E+02  0.35261317475E+02  0.51100000000E-03 0. -1.
        -11    1    3    3    0    0 -0.21235369223E+01  0.20820469565E+01 -0.14255799210E+00  0.29773564838E+01  0.51100000000E-03 0.  1.
        -12    1    3    3    0    0 -0.97760112678E+00 -0.12249619365E+02  0.20648584529E+00  0.12290301663E+02  0.00000000000E+00 0.  1.
</event>
<event>
 7    1  0.5913457E-013  0.5052886E+02  0.7816164E-02  0.1300439E+00
        -11   -1    0    0    0    0  0.00000000000E+00  0.00000000000E+00  0.45593999997E+02  0.45594000000E+02  0.51100000000E-03 0.  1.
         11   -1    0    0    0    0 -0.00000000000E+00 -0.00000000000E+00 -0.45593999997E+02  0.45594000000E+02  0.51100000000E-03 0. -1.
    9900012    2    1    2    0    0 -0.26327351682E+02  0.20205334822E+02 -0.23490012767E+02  0.50528859555E+02  0.29999999105E+02 0.  0.
        -12    1    1    2    0    0  0.26327351682E+02 -0.20205334822E+02  0.23490012767E+02  0.40659140445E+02  0.00000000000E+00 0.  1.
         11    1    3    3    0    0 -0.11710252057E+02  0.16715470609E+02 -0.55527462309E+01  0.21151121764E+02  0.51100000000E-03 0.  1.
        -11    1    3    3    0    0  0.15324572825E+01  0.28993031439E+01 -0.11540533329E+02  0.11997428634E+02  0.51100000000E-03 0. -1.
         12    1    3    3    0    0 -0.16149556907E+02  0.59056106937E+00 -0.63967332075E+01  0.17380309157E+02  0.00000000000E+00 0. -1.
</event>
<event>
 7    1  0.5913457E-013  0.5052886E+02  0.7816164E-02  0.1300439E+00
        -11   -1    0    0    0    0  0.00000000000E+00  0.00000000000E+00  0.45593999997E+02  0.45594000000E+02  0.51100000000E-03 0. -1.
         11   -1    0    0    0    0 -0.00000000000E+00 -0.00000000000E+00 -0.45593999997E+02  0.45594000000E+02  0.51100000000E-03 0.  1.
    9900012    2    1    2    0    0  0.35912014925E+02 -0.15533533155E+02  0.11054521931E+02  0.50528856829E+02  0.29999990819E+02 0.  0.
        -12    1    1    2    0    0 -0.35912014925E+02  0.15533533155E+02 -0.11054521931E+02  0.40659143171E+02  0.00000000000E+00 0.  1.
         11    1    3    3    0    0  0.17361613041E+02 -0.96627840583E+01  0.73154645299E+00  0.19882911347E+02  0.51100000000E-03 0. -1.
        -11    1    3    3    0    0  0.14990927015E+02 -0.71995257443E+01 -0.29060529777E+01  0.16882126877E+02  0.51100000000E-03 0.  1.
         12    1    3    3    0    0  0.35594748679E+01  0.13287766471E+01  0.13229028456E+02  0.13763818606E+02  0.00000000000E+00 0. -1.
</event>
<event>
 7    1  0.5913457E-013  0.5052886E+02  0.7816164E-02  0.1300439E+00
        -11   -1    0    0    0    0  0.00000000000E+00  0.00000000000E+00  0.45593999997E+02  0.45594000000E+02  0.51100000000E-03 0. -1.
         11   -1    0    0    0    0 -0.00000000000E+00 -0.00000000000E+00 -0.45593999997E+02  0.45594000000E+02  0.51100000000E-03 0.  1.
    9900012    2    1    2    0    0 -0.92293492316E+01  0.31810896851E+02  0.23580743453E+02  0.50528861944E+02  0.30000006363E+02 0.  0.
        -12    1    1    2    0    0  0.92293492316E+01 -0.31810896851E+02 -0.23580743453E+02  0.40659138056E+02  0.00000000000E+00 0.  1.
         11    1    3    3    0    0 -0.54774056434E-01  0.22275455554E+02  0.85286906243E+01  0.23852410452E+02  0.51100000000E-03 0. -1.
        -11    1    3    3    0    0  0.14406819912E+01  0.85354366173E+01  0.54593809648E+00  0.86733667923E+01  0.51100000000E-03 0.  1.
        -12    1    3    3    0    0 -0.10615257166E+02  0.10000046797E+01  0.14506114732E+02  0.18003084700E+02  0.00000000000E+00 0.  1.
</event>
<event>
 7    1  0.5913457E-013  0.5052886E+02  0.7816164E-02  0.1300439E+00
        -11   -1    0    0    0    0  0.00000000000E+00  0.00000000000E+00  0.45593999997E+02  0.45594000000E+02  0.51100000000E-03 0.  1.
         11   -1    0    0    0    0 -0.00000000000E+00 -0.00000000000E+00 -0.45593999997E+02  0.45594000000E+02  0.51100000000E-03 0. -1.
    9900012    2    1    2    0    0  0.57085627378E+01  0.37646642430E+02 -0.14258615024E+02  0.50528862316E+02  0.30000007497E+02 0.  0.
        -12    1    1    2    0    0 -0.57085627378E+01 -0.37646642430E+02  0.14258615024E+02  0.40659137684E+02  0.00000000000E+00 0.  1.
         11    1    3    3    0    0  0.35107777107E+01  0.65565844909E+01 -0.62159069994E+01  0.96928767870E+01  0.51100000000E-03 0. -1.
        -11    1    3    3    0    0  0.11473789099E+02  0.27673629080E+02 -0.77606334404E+01  0.30946809439E+02  0.51100000000E-03 0.  1.
        -12    1    3    3    0    0 -0.92760040718E+01  0.34164288583E+01 -0.28207458449E+00  0.98891760908E+01  0.00000000000E+00 0.  1.
</event>
<event>
 7    1  0.5913457E-013  0.5052886E+02  0.7816164E-02  0.1300439E+00
        -11   -1    0    0    0    0  0.00000000000E+00  0.00000000000E+00  0.45593999997E+02  0.45594000000E+02  0.51100000000E-03 0. -1.
         11   -1    0    0    0    0 -0.00000000000E+00 -0.00000000000E+00 -0.45593999997E+02  0.45594000000E+02  0.51100000000E-03 0.  1.
    9900012    2    1    2    0    0 -0.26902570936E+02  0.14669117707E+02  0.26725162460E+02  0.50528860243E+02  0.30000001195E+02 0.  0.
        -12    1    1    2    0    0  0.26902570936E+02 -0.14669117707E+02 -0.26725162460E+02  0.40659139757E+02  0.00000000000E+00 0.  1.
         11    1    3    3    0    0 -0.30979513675E+01  0.85052992058E+01  0.54823089050E+01  0.10582680589E+02  0.51100000000E-03 0.  1.
        -11    1    3    3    0    0 -0.12127361275E+02  0.10359744993E+02  0.72273548843E+00  0.15966200383E+02  0.51100000000E-03 0. -1.
         12    1    3    3    0    0 -0.11677258293E+02 -0.41959264926E+01  0.20520118067E+02  0.23979979271E+02  0.00000000000E+00 0. -1.
</event>
<event>
 7    1  0.5913457E-013  0.5052886E+02  0.7816164E-02  0.1300439E+00
        -11   -1    0    0    0    0  0.00000000000E+00  0.00000000000E+00  0.45593999997E+02  0.45594000000E+02  0.51100000000E-03 0. -1.
         11   -1    0    0    0    0 -0.00000000000E+00 -0.00000000000E+00 -0.45593999997E+02  0.45594000000E+02  0.51100000000E-03 0.  1.
    9900012    2    1    2    0    0  0.20758675068E+02  0.34889911754E+02  0.22219599525E+01  0.50528860329E+02  0.30000001455E+02 0.  0.
        -12    1    1    2    0    0 -0.20758675068E+02 -0.34889911754E+02 -0.22219599525E+01  0.40659139671E+02  0.00000000000E+00 0.  1.
         11    1    3    3    0    0 -0.11054401023E+01  0.84268553124E+01  0.98863906602E+01  0.13037431067E+02  0.51100000000E-03 0. -1.
        -11    1    3    3    0    0  0.72591283053E+00  0.32720288765E+01 -0.49731866313E+01  0.59971416472E+01  0.51100000000E-03 0.  1.
        -12    1    3    3    0    0  0.21138202339E+02  0.23191027565E+02 -0.26912440764E+01  0.31494287615E+02  0.00000000000E+00 0.  1.
</event>
<event>
 7    1  0.5913457E-013  0.5052886E+02  0.7816164E-02  0.1300439E+00
        -11   -1    0    0    0    0  0.00000000000E+00  0.00000000000E+00  0.45593999997E+02  0.45594000000E+02  0.51100000000E-03 0. -1.
         11   -1    0    0    0    0 -0.00000000000E+00 -0.00000000000E+00 -0.45593999997E+02  0.45594000000E+02  0.51100000000E-03 0.  1.
    9900012    2    1    2    0    0 -0.10014802001E+02  0.62946440728E+00  0.39401436596E+02  0.50528859694E+02  0.29999999526E+02 0.  0.
        -12    1    1    2    0    0  0.10014802001E+02 -0.62946440728E+00 -0.39401436596E+02  0.40659140306E+02  0.00000000000E+00 0.  1.
         11    1    3    3    0    0  0.84689243165E+01 -0.37945358851E+01  0.12343339705E+02  0.15442772322E+02  0.51100000000E-03 0. -1.
        -11    1    3    3    0    0  0.15072235305E+01 -0.44098774705E+00  0.33198505227E+01  0.36725468981E+01  0.51100000000E-03 0.  1.
         12    1    3    3    0    0 -0.19990949848E+02  0.48649880395E+01  0.23738246369E+02  0.31413540474E+02  0.00000000000E+00 0. -1.
</event>
<event>
 7    1  0.5913457E-013  0.5052886E+02  0.7816164E-02  0.1300439E+00
        -11   -1    0    0    0    0  0.00000000000E+00  0.00000000000E+00  0.45593999997E+02  0.45594000000E+02  0.51100000000E-03 0. -1.
         11   -1    0    0    0    0 -0.00000000000E+00 -0.00000000000E+00 -0.45593999997E+02  0.45594000000E+02  0.51100000000E-03 0.  1.
    9900012    2    1    2    0    0 -0.16296949180E+02 -0.37130338442E+02  0.29854417151E+01  0.50528862680E+02  0.30000008602E+02 0.  0.
        -12    1    1    2    0    0  0.16296949180E+02  0.37130338442E+02 -0.29854417151E+01  0.40659137320E+02  0.00000000000E+00 0.  1.
         11    1    3    3    0    0 -0.31615252378E+01 -0.52035522724E+01 -0.11132652441E+01  0.61896330946E+01  0.51100000000E-03 0. -1.
        -11    1    3    3    0    0 -0.12352657839E+02 -0.37123502558E+00  0.31790490806E+01  0.12760576964E+02  0.51100000000E-03 0.  1.
         12    1    3    3    0    0 -0.78276610265E+00 -0.31555551144E+02  0.91965787861E+00  0.31578652621E+02  0.00000000000E+00 0. -1.
</event>
<event>
 7    1  0.5913457E-013  0.5052886E+02  0.7816164E-02  0.1300439E+00
        -11   -1    0    0    0    0  0.00000000000E+00  0.00000000000E+00  0.45593999997E+02  0.45594000000E+02  0.51100000000E-03 0.  1.
         11   -1    0    0    0    0 -0.00000000000E+00 -0.00000000000E+00 -0.45593999997E+02  0.45594000000E+02  0.51100000000E-03 0. -1.
    9900012    2    1    2    0    0  0.12282681232E+02 -0.12703006633E+02 -0.36618779610E+02  0.50528860118E+02  0.30000000816E+02 0.  0.
        -12    1    1    2    0    0 -0.12282681232E+02  0.12703006633E+02  0.36618779610E+02  0.40659139882E+02  0.00000000000E+00 0.  1.
         11    1    3    3    0    0  0.15091400466E+02 -0.10343107606E+02 -0.26100682218E+02  0.31874376158E+02  0.51100000000E-03 0. -1.
        -11    1    3    3    0    0  0.23400590411E+01 -0.57576105727E+01  0.27697130114E+00  0.62211469349E+01  0.51100000000E-03 0.  1.
        -12    1    3    3    0    0 -0.51487782755E+01  0.33977115456E+01 -0.10795068694E+02  0.12433337025E+02  0.00000000000E+00 0.  1.
</event>
<event>
 7    1  0.5913457E-013  0.5052886E+02  0.7816164E-02  0.1300439E+00
        -11   -1    0    0    0    0  0.00000000000E+00  0.00000000000E+00  0.45593999997E+02  0.45594000000E+02  0.51100000000E-03 0. -1.
         11   -1    0    0    0    0 -0.00000000000E+00 -0.00000000000E+00 -0.45593999997E+02  0.45594000000E+02  0.51100000000E-03 0.  1.
    9900012    2    1    2    0    0 -0.22011382364E+02  0.29608084729E+02  0.17088768794E+02  0.50528860145E+02  0.30000000897E+02 0.  0.
        -12    1    1    2    0    0  0.22011382364E+02 -0.29608084729E+02 -0.17088768794E+02  0.40659139855E+02  0.00000000000E+00 0.  1.
         11    1    3    3    0    0 -0.96847364237E+01  0.20378776630E+02  0.10166124852E+02  0.24747499900E+02  0.51100000000E-03 0. -1.
        -11    1    3    3    0    0 -0.14723934356E+02  0.35496144264E+01  0.10706502046E+02  0.18547862190E+02  0.51100000000E-03 0.  1.
        -12    1    3    3    0    0  0.23972884157E+01  0.56796936722E+01 -0.37838581046E+01  0.72334980551E+01  0.00000000000E+00 0.  1.
</event>
<event>
 7    1  0.5913457E-013  0.5052886E+02  0.7816164E-02  0.1300439E+00
        -11   -1    0    0    0    0  0.00000000000E+00  0.00000000000E+00  0.45593999997E+02  0.45594000000E+02  0.51100000000E-03 0. -1.
         11   -1    0    0    0    0 -0.00000000000E+00 -0.00000000000E+00 -0.45593999997E+02  0.45594000000E+02  0.51100000000E-03 0.  1.
    9900012    2    1    2    0    0  0.18403864873E+02  0.18870754832E+01  0.36206387498E+02  0.50528858447E+02  0.29999995736E+02 0.  0.
        -12    1    1    2    0    0 -0.18403864873E+02 -0.18870754832E+01 -0.36206387498E+02  0.40659141553E+02  0.00000000000E+00 0.  1.
         11    1    3    3    0    0  0.71849590215E+01  0.22415873791E+01  0.17706174457E+02  0.19239463722E+02  0.51100000000E-03 0. -1.
        -11    1    3    3    0    0  0.26344197079E+00  0.89110946220E+01  0.13333282291E+02  0.16039121732E+02  0.51100000000E-03 0.  1.
         12    1    3    3    0    0  0.10955463881E+02 -0.92656065178E+01  0.51669307501E+01  0.15250272993E+02  0.00000000000E+00 0. -1.
</event>
<event>
 7    1  0.5913457E-013  0.5052886E+02  0.7816164E-02  0.1300439E+00
        -11   -1    0    0    0    0  0.00000000000E+00  0.00000000000E+00  0.45593999997E+02  0.45594000000E+02  0.51100000000E-03 0.  1.
         11   -1    0    0    0    0 -0.00000000000E+00 -0.00000000000E+00 -0.45593999997E+02  0.45594000000E+02  0.51100000000E-03 0. -1.
    9900012    2    1    2    0    0 -0.23651378771E+02  0.23199593018E+02 -0.23570250356E+02  0.50528861596E+02  0.30000005307E+02 0.  0.
        -12    1    1    2    0    0  0.23651378771E+02 -0.23199593018E+02  0.23570250356E+02  0.40659138404E+02  0.00000000000E+00 0.  1.
         11    1    3    3    0    0  0.31057860436E+01  0.15427941755E+02 -0.62015035711E+01  0.16915257626E+02  0.51100000000E-03 0. -1.
        -11    1    3    3    0    0 -0.12396829987E+01 -0.11967367790E+01 -0.85869253766E+00  0.19251872613E+01  0.51100000000E-03 0.  1.
         12    1    3    3    0    0 -0.25517481816E+02  0.89683880418E+01 -0.16510054247E+02  0.31688416709E+02  0.00000000000E+00 0. -1.
</event>
<event>
 7    1  0.5913457E-013  0.5052886E+02  0.7816164E-02  0.1300439E+00
        -11   -1    0    0    0    0  0.00000000000E+00  0.00000000000E+00  0.45593999997E+02  0.45594000000E+02  0.51100000000E-03 0.  1.
         11   -1    0    0    0    0 -0.00000000000E+00 -0.00000000000E+00 -0.45593999997E+02  0.45594000000E+02  0.51100000000E-03 0. -1.
    9900012    2    1    2    0    0  0.10452845268E+02  0.15299404030E+02 -0.36191597781E+02  0.50528862185E+02  0.30000007098E+02 0.  0.
        -12    1    1    2    0    0 -0.10452845268E+02 -0.15299404030E+02  0.36191597781E+02  0.40659137815E+02  0.00000000000E+00 0.  1.
         11    1    3    3    0    0  0.63965253047E+01  0.12007102908E+02 -0.48092478324E+01  0.14429654230E+02  0.51100000000E-03 0. -1.
        -11    1    3    3    0    0 -0.13230559441E+01 -0.32943717617E+01  0.35944711788E-01  0.35503034545E+01  0.51100000000E-03 0.  1.
         12    1    3    3    0    0  0.53793759075E+01  0.65866728841E+01 -0.31418294661E+02  0.32548904501E+02  0.00000000000E+00 0. -1.
</event>
<event>
 7    1  0.5913457E-013  0.5052887E+02  0.7816164E-02  0.1300439E+00
        -11   -1    0    0    0    0  0.00000000000E+00  0.00000000000E+00  0.45593999997E+02  0.45594000000E+02  0.51100000000E-03 0. -1.
         11   -1    0    0    0    0 -0.00000000000E+00 -0.00000000000E+00 -0.45593999997E+02  0.45594000000E+02  0.51100000000E-03 0.  1.
    9900012    2    1    2    0    0 -0.20153911109E+02 -0.51697198155E+01  0.34932204025E+02  0.50528868012E+02  0.30000024810E+02 0.  0.
        -12    1    1    2    0    0  0.20153911109E+02  0.51697198155E+01 -0.34932204025E+02  0.40659131988E+02  0.00000000000E+00 0.  1.
         11    1    3    3    0    0 -0.30696230425E+01  0.59293381446E+00 -0.11662276864E+01  0.33368013739E+01  0.51100000000E-03 0. -1.
        -11    1    3    3    0    0 -0.11010663141E+02  0.78443027060E+01  0.89197367242E+01  0.16196588877E+02  0.51100000000E-03 0.  1.
         12    1    3    3    0    0 -0.60736249250E+01 -0.13606956336E+02  0.27178694987E+02  0.30995477761E+02  0.00000000000E+00 0. -1.
</event>
<event>
 7    1  0.5913457E-013  0.5052886E+02  0.7816164E-02  0.1300439E+00
        -11   -1    0    0    0    0  0.00000000000E+00  0.00000000000E+00  0.45593999997E+02  0.45594000000E+02  0.51100000000E-03 0. -1.
         11   -1    0    0    0    0 -0.00000000000E+00 -0.00000000000E+00 -0.45593999997E+02  0.45594000000E+02  0.51100000000E-03 0.  1.
    9900012    2    1    2    0    0 -0.13818469039E+02 -0.17783894514E+02  0.33851863399E+02  0.50528860238E+02  0.30000001178E+02 0.  0.
        -12    1    1    2    0    0  0.13818469039E+02  0.17783894514E+02 -0.33851863399E+02  0.40659139762E+02  0.00000000000E+00 0.  1.
         11    1    3    3    0    0  0.54909919940E+01 -0.85532818482E+01  0.12626558478E+02  0.16209244360E+02  0.51100000000E-03 0. -1.
        -11    1    3    3    0    0 -0.26973536065E+00 -0.67481419926E+01  0.17627009140E+01  0.69797773811E+01  0.51100000000E-03 0.  1.
        -12    1    3    3    0    0 -0.19039725672E+02 -0.24824706734E+01  0.19462604007E+02  0.27339838497E+02  0.00000000000E+00 0.  1.
</event>
<event>
 7    1  0.5913457E-013  0.5052886E+02  0.7816164E-02  0.1300439E+00
        -11   -1    0    0    0    0  0.00000000000E+00  0.00000000000E+00  0.45593999997E+02  0.45594000000E+02  0.51100000000E-03 0.  1.
         11   -1    0    0    0    0 -0.00000000000E+00 -0.00000000000E+00 -0.45593999997E+02  0.45594000000E+02  0.51100000000E-03 0. -1.
    9900012    2    1    2    0    0  0.86880697277E+01  0.39676192020E+02  0.18663478721E+01  0.50528855602E+02  0.29999987087E+02 0.  0.
        -12    1    1    2    0    0 -0.86880697277E+01 -0.39676192020E+02 -0.18663478721E+01  0.40659144398E+02  0.00000000000E+00 0.  1.
         11    1    3    3    0    0  0.35740259425E+01  0.25055170932E+01 -0.57738035113E+01  0.72379613559E+01  0.51100000000E-03 0. -1.
        -11    1    3    3    0    0 -0.24580790125E+01  0.19494800837E+01 -0.43133273922E+01  0.53336121421E+01  0.51100000000E-03 0.  1.
        -12    1    3    3    0    0  0.75721227977E+01  0.35221194843E+02  0.11953478776E+02  0.37957282104E+02  0.00000000000E+00 0.  1.
</event>
<event>
 7    1  0.5913457E-013  0.5052887E+02  0.7816164E-02  0.1300439E+00
        -11   -1    0    0    0    0  0.00000000000E+00  0.00000000000E+00  0.45593999997E+02  0.45594000000E+02  0.51100000000E-03 0.  1.
         11   -1    0    0    0    0 -0.00000000000E+00 -0.00000000000E+00 -0.45593999997E+02  0.45594000000E+02  0.51100000000E-03 0. -1.
    9900012    2    1    2    0    0  0.27941450387E+01  0.15907237052E+02 -0.37313764407E+02  0.50528874931E+02  0.30000045842E+02 0.  0.
        -12    1    1    2    0    0 -0.27941450387E+01 -0.15907237052E+02  0.37313764407E+02  0.40659125069E+02  0.00000000000E+00 0.  1.
         11    1    3    3    0    0 -0.82173454001E+00  0.52717010521E+01 -0.24662570190E+01  0.58777975112E+01  0.51100000000E-03 0. -1.
        -11    1    3    3    0    0  0.28083172497E+01  0.17971954092E+02 -0.31863287593E+02  0.36689874300E+02  0.51100000000E-03 0.  1.
        -12    1    3    3    0    0  0.80756232903E+00 -0.73364180920E+01 -0.29842197945E+01  0.79612031199E+01  0.00000000000E+00 0.  1.
</event>
<event>
 7    1  0.5913457E-013  0.5052883E+02  0.7816164E-02  0.1300439E+00
        -11   -1    0    0    0    0  0.00000000000E+00  0.00000000000E+00  0.45593999997E+02  0.45594000000E+02  0.51100000000E-03 0.  1.
         11   -1    0    0    0    0 -0.00000000000E+00 -0.00000000000E+00 -0.45593999997E+02  0.45594000000E+02  0.51100000000E-03 0. -1.
    9900012    2    1    2    0    0  0.36180111500E+01 -0.11907846244E+02 -0.38707641337E+02  0.50528827545E+02  0.29999901806E+02 0.  0.
        -12    1    1    2    0    0 -0.36180111500E+01  0.11907846244E+02  0.38707641337E+02  0.40659172455E+02  0.00000000000E+00 0.  1.
         11    1    3    3    0    0 -0.16220109630E+01 -0.63277125284E+01 -0.68945950482E+01  0.94977000661E+01  0.51100000000E-03 0. -1.
        -11    1    3    3    0    0 -0.55060750702E+01 -0.14707042355E+01  0.14112236114E+01  0.58712337690E+01  0.51100000000E-03 0.  1.
         12    1    3    3    0    0  0.10746097183E+02 -0.41094294796E+01 -0.33224269900E+02  0.35159893710E+02  0.00000000000E+00 0. -1.
</event>
<event>
 7    1  0.5913457E-013  0.5052887E+02  0.7816164E-02  0.1300439E+00
        -11   -1    0    0    0    0  0.00000000000E+00  0.00000000000E+00  0.45593999997E+02  0.45594000000E+02  0.51100000000E-03 0. -1.
         11   -1    0    0    0    0 -0.00000000000E+00 -0.00000000000E+00 -0.45593999997E+02  0.45594000000E+02  0.51100000000E-03 0.  1.
    9900012    2    1    2    0    0  0.11481016301E+02 -0.13545380961E+02  0.36576961650E+02  0.50528865673E+02  0.30000017699E+02 0.  0.
        -12    1    1    2    0    0 -0.11481016301E+02  0.13545380961E+02 -0.36576961650E+02  0.40659134327E+02  0.00000000000E+00 0.  1.
         11    1    3    3    0    0  0.10346335173E+02 -0.83143417027E+01  0.17269929362E+02  0.21781308269E+02  0.51100000000E-03 0. -1.
        -11    1    3    3    0    0  0.10749453498E+02 -0.44750347279E+01  0.11021541656E+02  0.16032812200E+02  0.51100000000E-03 0.  1.
         12    1    3    3    0    0 -0.96147723699E+01 -0.75600453059E+00  0.82854906323E+01  0.12714745204E+02  0.00000000000E+00 0. -1.
</event>
<event>
 7    1  0.5913457E-013  0.5052888E+02  0.7816164E-02  0.1300439E+00
        -11   -1    0    0    0    0  0.00000000000E+00  0.00000000000E+00  0.45593999997E+02  0.45594000000E+02  0.51100000000E-03 0.  1.
         11   -1    0    0    0    0 -0.00000000000E+00 -0.00000000000E+00 -0.45593999997E+02  0.45594000000E+02  0.51100000000E-03 0. -1.
    9900012    2    1    2    0    0  0.36043666437E+01  0.11459840449E+02 -0.38843851580E+02  0.50528877929E+02  0.30000054952E+02 0.  0.
        -12    1    1    2    0    0 -0.36043666437E+01 -0.11459840449E+02  0.38843851580E+02  0.40659122071E+02  0.00000000000E+00 0.  1.
         11    1    3    3    0    0 -0.50617639603E+01 -0.50171765553E+01 -0.12995952926E+02  0.14821886105E+02  0.51100000000E-03 0. -1.
        -11    1    3    3    0    0  0.45307631937E+00 -0.22404065091E+01  0.52023793311E+00  0.23442156994E+01  0.51100000000E-03 0.  1.
         12    1    3    3    0    0  0.82130542847E+01  0.18717423513E+02 -0.26368136587E+02  0.33362776125E+02  0.00000000000E+00 0. -1.
</event>
<event>
 7    1  0.5913457E-013  0.5052886E+02  0.7816164E-02  0.1300439E+00
        -11   -1    0    0    0    0  0.00000000000E+00  0.00000000000E+00  0.45593999997E+02  0.45594000000E+02  0.51100000000E-03 0.  1.
         11   -1    0    0    0    0 -0.00000000000E+00 -0.00000000000E+00 -0.45593999997E+02  0.45594000000E+02  0.51100000000E-03 0. -1.
    9900012    2    1    2    0    0 -0.19818265060E+02 -0.30861417729E+01 -0.35367751624E+02  0.50528858888E+02  0.29999997075E+02 0.  0.
        -12    1    1    2    0    0  0.19818265060E+02  0.30861417729E+01  0.35367751624E+02  0.40659141112E+02  0.00000000000E+00 0.  1.
         11    1    3    3    0    0 -0.13362600309E+02 -0.11586630179E+02 -0.19579260205E+02  0.26384778118E+02  0.51100000000E-03 0. -1.
        -11    1    3    3    0    0  0.98155405611E+00  0.12981515900E+00 -0.12408198509E+02  0.12447637962E+02  0.51100000000E-03 0.  1.
        -12    1    3    3    0    0 -0.74372188068E+01  0.83706732466E+01 -0.33802929102E+01  0.11696442807E+02  0.00000000000E+00 0.  1.
</event>
<event>
 7    1  0.5913457E-013  0.5052887E+02  0.7816164E-02  0.1300439E+00
        -11   -1    0    0    0    0  0.00000000000E+00  0.00000000000E+00  0.45593999997E+02  0.45594000000E+02  0.51100000000E-03 0.  1.
         11   -1    0    0    0    0 -0.00000000000E+00 -0.00000000000E+00 -0.45593999997E+02  0.45594000000E+02  0.51100000000E-03 0. -1.
    9900012    2    1    2    0    0  0.12536269050E+02  0.28931811192E+02 -0.25670163635E+02  0.50528867673E+02  0.30000023779E+02 0.  0.
        -12    1    1    2    0    0 -0.12536269050E+02 -0.28931811192E+02  0.25670163635E+02  0.40659132327E+02  0.00000000000E+00 0.  1.
         11    1    3    3    0    0  0.42899686582E+01  0.10987472084E+02  0.70588693220E+00  0.11816372138E+02  0.51100000000E-03 0.  1.
        -11    1    3    3    0    0  0.14741798610E+02  0.13410510349E+02 -0.15446250551E+02  0.25214064933E+02  0.51100000000E-03 0. -1.
         12    1    3    3    0    0 -0.64954982189E+01  0.45338287591E+01 -0.10929800016E+02  0.13498430602E+02  0.00000000000E+00 0. -1.
</event>
<event>
 7    1  0.5913457E-013  0.5052886E+02  0.7816164E-02  0.1300439E+00
        -11   -1    0    0    0    0  0.00000000000E+00  0.00000000000E+00  0.45593999997E+02  0.45594000000E+02  0.51100000000E-03 0.  1.
         11   -1    0    0    0    0 -0.00000000000E+00 -0.00000000000E+00 -0.45593999997E+02  0.45594000000E+02  0.51100000000E-03 0. -1.
    9900012    2    1    2    0    0  0.34824588568E+02 -0.10310757226E+02  0.18278466547E+02  0.50528855606E+02  0.29999987100E+02 0.  0.
        -12    1    1    2    0    0 -0.34824588568E+02  0.10310757226E+02 -0.18278466547E+02  0.40659144394E+02  0.00000000000E+00 0.  1.
         11    1    3    3    0    0  0.13769537942E+02 -0.64284034926E+00  0.20604841974E+02  0.24790581516E+02  0.51100000000E-03 0. -1.
        -11    1    3    3    0    0 -0.12788498607E+01  0.42075549869E-01 -0.11831032383E+00  0.12849999658E+01  0.51100000000E-03 0.  1.
         12    1    3    3    0    0  0.22333900487E+02 -0.97099924270E+01 -0.22080651034E+01  0.24453274125E+02  0.00000000000E+00 0. -1.
</event>
<event>
 7    1  0.5913457E-013  0.5052887E+02  0.7816164E-02  0.1300439E+00
        -11   -1    0    0    0    0  0.00000000000E+00  0.00000000000E+00  0.45593999997E+02  0.45594000000E+02  0.51100000000E-03 0.  1.
         11   -1    0    0    0    0 -0.00000000000E+00 -0.00000000000E+00 -0.45593999997E+02  0.45594000000E+02  0.51100000000E-03 0. -1.
    9900012    2    1    2    0    0  0.24046331938E+02 -0.31904691589E+02 -0.75518076152E+01  0.50528865438E+02  0.30000016986E+02 0.  0.
        -12    1    1    2    0    0 -0.24046331938E+02  0.31904691589E+02  0.75518076152E+01  0.40659134562E+02  0.00000000000E+00 0.  1.
         11    1    3    3    0    0  0.59125727190E+01 -0.18447400155E+02 -0.15090892521E+01  0.19430451340E+02  0.51100000000E-03 0. -1.
        -11    1    3    3    0    0  0.11585277880E+02 -0.18585774353E+02 -0.62596283341E+01  0.22777897598E+02  0.51100000000E-03 0.  1.
        -12    1    3    3    0    0  0.65484813388E+01  0.51284829187E+01  0.21690997106E+00  0.83205165001E+01  0.00000000000E+00 0.  1.
</event>
<event>
 7    1  0.5913457E-013  0.5052888E+02  0.7816164E-02  0.1300439E+00
        -11   -1    0    0    0    0  0.00000000000E+00  0.00000000000E+00  0.45593999997E+02  0.45594000000E+02  0.51100000000E-03 0.  1.
         11   -1    0    0    0    0 -0.00000000000E+00 -0.00000000000E+00 -0.45593999997E+02  0.45594000000E+02  0.51100000000E-03 0. -1.
    9900012    2    1    2    0    0  0.32357214122E+02  0.22014004982E+02 -0.11025363012E+02  0.50528876170E+02  0.30000049606E+02 0.  0.
        -12    1    1    2    0    0 -0.32357214122E+02 -0.22014004982E+02  0.11025363012E+02  0.40659123830E+02  0.00000000000E+00 0.  1.
         11    1    3    3    0    0  0.84886986761E+01  0.53047665700E+01  0.42796930280E+01  0.10886428535E+02  0.51100000000E-03 0. -1.
        -11    1    3    3    0    0 -0.40578342214E+01  0.16018230414E+01 -0.40589621163E+01  0.59587775044E+01  0.51100000000E-03 0.  1.
         12    1    3    3    0    0  0.27926349667E+02  0.15107415370E+02 -0.11246093924E+02  0.33683670130E+02  0.00000000000E+00 0. -1.
</event>
<event>
 7    1  0.5913457E-013  0.5052886E+02  0.7816164E-02  0.1300439E+00
        -11   -1    0    0    0    0  0.00000000000E+00  0.00000000000E+00  0.45593999997E+02  0.45594000000E+02  0.51100000000E-03 0.  1.
         11   -1    0    0    0    0 -0.00000000000E+00 -0.00000000000E+00 -0.45593999997E+02  0.45594000000E+02  0.51100000000E-03 0. -1.
    9900012    2    1    2    0    0  0.87860391029E+01  0.20079594394E+02 -0.34245891855E+02  0.50528859538E+02  0.29999999053E+02 0.  0.
        -12    1    1    2    0    0 -0.87860391029E+01 -0.20079594394E+02  0.34245891855E+02  0.40659140462E+02  0.00000000000E+00 0.  1.
         11    1    3    3    0    0 -0.52538110671E+01  0.15829861524E+02 -0.16307336372E+02  0.23326299887E+02  0.51100000000E-03 0. -1.
        -11    1    3    3    0    0 -0.88988604234E+00  0.52338544268E+01 -0.31913860572E+01  0.61943582845E+01  0.51100000000E-03 0.  1.
         12    1    3    3    0    0  0.14929736212E+02 -0.98412155727E+00 -0.14747169426E+02  0.21008201367E+02  0.00000000000E+00 0. -1.
</event>
<event>
 7    1  0.5913457E-013  0.5052886E+02  0.7816164E-02  0.1300439E+00
        -11   -1    0    0    0    0  0.00000000000E+00  0.00000000000E+00  0.45593999997E+02  0.45594000000E+02  0.51100000000E-03 0.  1.
         11   -1    0    0    0    0 -0.00000000000E+00 -0.00000000000E+00 -0.45593999997E+02  0.45594000000E+02  0.51100000000E-03 0. -1.
    9900012    2    1    2    0    0  0.28163639114E+01 -0.39794780050E+02 -0.78491508540E+01  0.50528860880E+02  0.30000003130E+02 0.  0.
        -12    1    1    2    0    0 -0.28163639114E+01  0.39794780050E+02  0.78491508540E+01  0.40659139120E+02  0.00000000000E+00 0.  1.
         11    1    3    3    0    0  0.40396305005E+01 -0.33915229106E+02 -0.34471630544E+01  0.34328476710E+02  0.51100000000E-03 0. -1.
        -11    1    3    3    0    0  0.68513840386E+00 -0.67989367740E+01  0.37382339173E+01  0.77890531498E+01  0.51100000000E-03 0.  1.
        -12    1    3    3    0    0 -0.19084049929E+01  0.91938582999E+00 -0.81402217169E+01  0.84113310196E+01  0.00000000000E+00 0.  1.
</event>
<event>
 7    1  0.5913457E-013  0.5052884E+02  0.7816164E-02  0.1300439E+00
        -11   -1    0    0    0    0  0.00000000000E+00  0.00000000000E+00  0.45593999997E+02  0.45594000000E+02  0.51100000000E-03 0. -1.
         11   -1    0    0    0    0 -0.00000000000E+00 -0.00000000000E+00 -0.45593999997E+02  0.45594000000E+02  0.51100000000E-03 0.  1.
    9900012    2    1    2    0    0  0.38365485178E+02  0.96049226230E+01 -0.94340816321E+01  0.50528844969E+02  0.29999954769E+02 0.  0.
        -12    1    1    2    0    0 -0.38365485178E+02 -0.96049226230E+01  0.94340816321E+01  0.40659155031E+02  0.00000000000E+00 0.  1.
         11    1    3    3    0    0  0.31307691022E+02  0.38379125541E+01 -0.10545823834E+02  0.33258314607E+02  0.51100000000E-03 0. -1.
        -11    1    3    3    0    0  0.15942549878E+01 -0.44155068289E+01  0.29862188234E+01  0.55637984007E+01  0.51100000000E-03 0.  1.
        -12    1    3    3    0    0  0.54635391688E+01  0.10182516898E+02 -0.18744766214E+01  0.11706731962E+02  0.00000000000E+00 0.  1.
</event>
<event>
 7    1  0.5913457E-013  0.5052885E+02  0.7816164E-02  0.1300439E+00
        -11   -1    0    0    0    0  0.00000000000E+00  0.00000000000E+00  0.45593999997E+02  0.45594000000E+02  0.51100000000E-03 0. -1.
         11   -1    0    0    0    0 -0.00000000000E+00 -0.00000000000E+00 -0.45593999997E+02  0.45594000000E+02  0.51100000000E-03 0.  1.
    9900012    2    1    2    0    0 -0.15163045849E+02  0.14095297586E+02  0.34993873227E+02  0.50528849284E+02  0.29999967885E+02 0.  0.
        -12    1    1    2    0    0  0.15163045849E+02 -0.14095297586E+02 -0.34993873227E+02  0.40659150716E+02  0.00000000000E+00 0.  1.
         11    1    3    3    0    0 -0.76940111990E+01  0.80292961954E+01  0.16469805769E+02  0.19872642201E+02  0.51100000000E-03 0. -1.
        -11    1    3    3    0    0 -0.12949420333E+02  0.76023851039E+01  0.19773596980E+02  0.24828992811E+02  0.51100000000E-03 0.  1.
        -12    1    3    3    0    0  0.54803856833E+01 -0.15363837132E+01 -0.12495295211E+01  0.58272142723E+01  0.00000000000E+00 0.  1.
</event>
<event>
 7    1  0.5913457E-013  0.5052885E+02  0.7816164E-02  0.1300439E+00
        -11   -1    0    0    0    0  0.00000000000E+00  0.00000000000E+00  0.45593999997E+02  0.45594000000E+02  0.51100000000E-03 0. -1.
         11   -1    0    0    0    0 -0.00000000000E+00 -0.00000000000E+00 -0.45593999997E+02  0.45594000000E+02  0.51100000000E-03 0.  1.
    9900012    2    1    2    0    0  0.36531541343E+02 -0.17797582717E+02 -0.13633837477E+01  0.50528852459E+02  0.29999977535E+02 0.  0.
        -12    1    1    2    0    0 -0.36531541343E+02  0.17797582717E+02  0.13633837477E+01  0.40659147541E+02  0.00000000000E+00 0.  1.
         11    1    3    3    0    0  0.27549175630E+01 -0.23478969384E-01 -0.25964436401E+01  0.37857155042E+01  0.51100000000E-03 0. -1.
        -11    1    3    3    0    0  0.25903141159E+02 -0.22930198444E+02 -0.56905750566E+01  0.35059226565E+02  0.51100000000E-03 0.  1.
         12    1    3    3    0    0  0.78734826214E+01  0.51560946957E+01  0.69236349491E+01  0.11683910390E+02  0.00000000000E+00 0. -1.
</event>
<event>
 7    1  0.5913457E-013  0.5052885E+02  0.7816164E-02  0.1300439E+00
        -11   -1    0    0    0    0  0.00000000000E+00  0.00000000000E+00  0.45593999997E+02  0.45594000000E+02  0.51100000000E-03 0.  1.
         11   -1    0    0    0    0 -0.00000000000E+00 -0.00000000000E+00 -0.45593999997E+02  0.45594000000E+02  0.51100000000E-03 0. -1.
    9900012    2    1    2    0    0  0.15327510110E+02 -0.27398286184E+02 -0.25837326226E+02  0.50528854921E+02  0.29999985019E+02 0.  0.
        -12    1    1    2    0    0 -0.15327510110E+02  0.27398286184E+02  0.25837326226E+02  0.40659145079E+02  0.00000000000E+00 0.  1.
         11    1    3    3    0    0  0.10437766913E+02 -0.35731455857E+01 -0.33200330282E+01  0.11521153028E+02  0.51100000000E-03 0. -1.
        -11    1    3    3    0    0  0.71577555121E+01 -0.60469503694E+01 -0.18355107874E+02  0.20608470541E+02  0.51100000000E-03 0.  1.
         12    1    3    3    0    0 -0.22680123156E+01 -0.17778190229E+02 -0.41621853245E+01  0.18399231352E+02  0.00000000000E+00 0. -1.
</event>
<event>
 7    1  0.6265479E-013  0.5052885E+02  0.7816164E-02  0.1300439E+00
        -11   -1    0    0    0    0  0.00000000000E+00  0.00000000000E+00  0.45593999997E+02  0.45594000000E+02  0.51100000000E-03 0. -1.
         11   -1    0    0    0    0 -0.00000000000E+00 -0.00000000000E+00 -0.45593999997E+02  0.45594000000E+02  0.51100000000E-03 0.  1.
    9900012    2    1    2    0    0 -0.69576593004E+01 -0.76089593261E+00  0.40052192372E+02  0.50528854665E+02  0.29999984240E+02 0.  0.
        -12    1    1    2    0    0  0.69576593004E+01  0.76089593261E+00 -0.40052192372E+02  0.40659145335E+02  0.00000000000E+00 0.  1.
         11    1    3    3    0    0 -0.19632284265E+00  0.24520876530E+01  0.14876963765E+02  0.15078969714E+02  0.51100000000E-03 0. -1.
        -11    1    3    3    0    0  0.70672523566E+01 -0.53543402021E+01  0.17181020830E+02  0.19333972481E+02  0.51100000000E-03 0.  1.
        -12    1    3    3    0    0 -0.13828588814E+02  0.21413566165E+01  0.79942077768E+01  0.16115912470E+02  0.00000000000E+00 0.  1.
</event>
<event>
 7    1  0.5913457E-013  0.5052886E+02  0.7816164E-02  0.1300439E+00
        -11   -1    0    0    0    0  0.00000000000E+00  0.00000000000E+00  0.45593999997E+02  0.45594000000E+02  0.51100000000E-03 0.  1.
         11   -1    0    0    0    0 -0.00000000000E+00 -0.00000000000E+00 -0.45593999997E+02  0.45594000000E+02  0.51100000000E-03 0. -1.
    9900012    2    1    2    0    0 -0.29100131694E+02 -0.58356100317E+01 -0.27790178760E+02  0.50528855339E+02  0.29999986289E+02 0.  0.
        -12    1    1    2    0    0  0.29100131694E+02  0.58356100317E+01  0.27790178760E+02  0.40659144661E+02  0.00000000000E+00 0.  1.
         11    1    3    3    0    0 -0.13881230185E+01 -0.26474610936E+01 -0.56776513294E+01  0.64165146797E+01  0.51100000000E-03 0. -1.
        -11    1    3    3    0    0 -0.14445031769E+02 -0.14209942365E+02 -0.78463154908E+01  0.21728922474E+02  0.51100000000E-03 0.  1.
        -12    1    3    3    0    0 -0.13266976907E+02  0.11021793427E+02 -0.14266211939E+02  0.22383418186E+02  0.00000000000E+00 0.  1.
</event>
<event>
 7    1  0.5913457E-013  0.5052885E+02  0.7816164E-02  0.1300439E+00
        -11   -1    0    0    0    0  0.00000000000E+00  0.00000000000E+00  0.45593999997E+02  0.45594000000E+02  0.51100000000E-03 0.  1.
         11   -1    0    0    0    0 -0.00000000000E+00 -0.00000000000E+00 -0.45593999997E+02  0.45594000000E+02  0.51100000000E-03 0. -1.
    9900012    2    1    2    0    0  0.18134713078E+02  0.10071941359E+02 -0.34969335124E+02  0.50528853179E+02  0.29999979724E+02 0.  0.
        -12    1    1    2    0    0 -0.18134713078E+02 -0.10071941359E+02  0.34969335124E+02  0.40659146821E+02  0.00000000000E+00 0.  1.
         11    1    3    3    0    0 -0.11451791698E+01  0.58011323176E+01 -0.10493405174E+02  0.12044755037E+02  0.51100000000E-03 0. -1.
        -11    1    3    3    0    0  0.72940405763E+01  0.12873336397E+02 -0.14174986213E+02  0.20490389267E+02  0.51100000000E-03 0.  1.
         12    1    3    3    0    0  0.11985851672E+02 -0.86025273558E+01 -0.10300943737E+02  0.17993708875E+02  0.00000000000E+00 0. -1.
</event>
<event>
 7    1  0.5913457E-013  0.5052887E+02  0.7816164E-02  0.1300439E+00
        -11   -1    0    0    0    0  0.00000000000E+00  0.00000000000E+00  0.45593999997E+02  0.45594000000E+02  0.51100000000E-03 0.  1.
         11   -1    0    0    0    0 -0.00000000000E+00 -0.00000000000E+00 -0.45593999997E+02  0.45594000000E+02  0.51100000000E-03 0. -1.
    9900012    2    1    2    0    0 -0.29949066026E+02  0.22836871913E+02 -0.15319787523E+02  0.50528866164E+02  0.30000019191E+02 0.  0.
        -12    1    1    2    0    0  0.29949066026E+02 -0.22836871913E+02  0.15319787523E+02  0.40659133836E+02  0.00000000000E+00 0.  1.
         11    1    3    3    0    0 -0.26323465727E+02  0.11472188846E+02 -0.40654675502E+01  0.29001103280E+02  0.51100000000E-03 0. -1.
        -11    1    3    3    0    0 -0.61473788087E+01  0.66272890732E+01  0.22009833441E-01  0.90394530460E+01  0.51100000000E-03 0.  1.
        -12    1    3    3    0    0  0.25217785097E+01  0.47373939938E+01 -0.11276329806E+02  0.12488309838E+02  0.00000000000E+00 0.  1.
</event>
<event>
 7    1  0.5913457E-013  0.5052887E+02  0.7816164E-02  0.1300439E+00
        -11   -1    0    0    0    0  0.00000000000E+00  0.00000000000E+00  0.45593999997E+02  0.45594000000E+02  0.51100000000E-03 0.  1.
         11   -1    0    0    0    0 -0.00000000000E+00 -0.00000000000E+00 -0.45593999997E+02  0.45594000000E+02  0.51100000000E-03 0. -1.
    9900012    2    1    2    0    0 -0.33468726021E+02 -0.17761110342E+01 -0.23018566511E+02  0.50528873151E+02  0.30000040431E+02 0.  0.
        -12    1    1    2    0    0  0.33468726021E+02  0.17761110342E+01  0.23018566511E+02  0.40659126849E+02  0.00000000000E+00 0.  1.
         11    1    3    3    0    0 -0.93922681148E+00 -0.78042523829E+01 -0.13130322660E+01  0.79694765357E+01  0.51100000000E-03 0. -1.
        -11    1    3    3    0    0 -0.12831109636E+02  0.48120821378E+01 -0.67756245575E+00  0.13720517487E+02  0.51100000000E-03 0.  1.
         12    1    3    3    0    0 -0.19698389574E+02  0.12160592109E+01 -0.21027971789E+02  0.28838879128E+02  0.00000000000E+00 0. -1.
</event>
<event>
 7    1  0.5913457E-013  0.5052887E+02  0.7816164E-02  0.1300439E+00
        -11   -1    0    0    0    0  0.00000000000E+00  0.00000000000E+00  0.45593999997E+02  0.45594000000E+02  0.51100000000E-03 0.  1.
         11   -1    0    0    0    0 -0.00000000000E+00 -0.00000000000E+00 -0.45593999997E+02  0.45594000000E+02  0.51100000000E-03 0. -1.
    9900012    2    1    2    0    0 -0.65382787800E+01 -0.38855889597E+02 -0.10031734400E+02  0.50528868912E+02  0.30000027546E+02 0.  0.
        -12    1    1    2    0    0  0.65382787800E+01  0.38855889597E+02  0.10031734400E+02  0.40659131088E+02  0.00000000000E+00 0.  1.
         11    1    3    3    0    0  0.34467204262E+01 -0.22170441317E+01 -0.71563046941E+01  0.82466880331E+01  0.51100000000E-03 0. -1.
        -11    1    3    3    0    0 -0.14907184239E+01  0.15652267332E+01  0.18704978610E+01  0.28584853777E+01  0.51100000000E-03 0.  1.
         12    1    3    3    0    0 -0.84942807823E+01 -0.38204072198E+02 -0.47459275670E+01  0.39423695501E+02  0.00000000000E+00 0. -1.
</event>
<event>
 7    1  0.5913457E-013  0.5052886E+02  0.7816164E-02  0.1300439E+00
        -11   -1    0    0    0    0  0.00000000000E+00  0.00000000000E+00  0.45593999997E+02  0.45594000000E+02  0.51100000000E-03 0. -1.
         11   -1    0    0    0    0 -0.00000000000E+00 -0.00000000000E+00 -0.45593999997E+02  0.45594000000E+02  0.51100000000E-03 0.  1.
    9900012    2    1    2    0    0  0.17798622015E+02  0.30205882524E+02  0.20590768131E+02  0.50528855679E+02  0.29999987321E+02 0.  0.
        -12    1    1    2    0    0 -0.17798622015E+02 -0.30205882524E+02 -0.20590768131E+02  0.40659144321E+02  0.00000000000E+00 0.  1.
         11    1    3    3    0    0  0.37612646059E+01  0.49990402012E+01 -0.35807934418E+01  0.72083005142E+01  0.51100000000E-03 0. -1.
        -11    1    3    3    0    0  0.13893363941E+02  0.89941706109E+01  0.32744706424E+01  0.16871361084E+02  0.51100000000E-03 0.  1.
         12    1    3    3    0    0  0.14399346828E+00  0.16212671712E+02  0.20897090931E+02  0.26449194081E+02  0.00000000000E+00 0. -1.
</event>
<event>
 7    1  0.5913457E-013  0.5052886E+02  0.7816164E-02  0.1300439E+00
        -11   -1    0    0    0    0  0.00000000000E+00  0.00000000000E+00  0.45593999997E+02  0.45594000000E+02  0.51100000000E-03 0.  1.
         11   -1    0    0    0    0 -0.00000000000E+00 -0.00000000000E+00 -0.45593999997E+02  0.45594000000E+02  0.51100000000E-03 0. -1.
    9900012    2    1    2    0    0  0.19724255275E+02 -0.52126906163E+01 -0.35170259086E+02  0.50528861866E+02  0.30000006129E+02 0.  0.
        -12    1    1    2    0    0 -0.19724255275E+02  0.52126906163E+01  0.35170259086E+02  0.40659138134E+02  0.00000000000E+00 0.  1.
         11    1    3    3    0    0  0.23409997252E+01  0.30340385717E+01 -0.28835560780E+02  0.29089091349E+02  0.51100000000E-03 0. -1.
        -11    1    3    3    0    0  0.21737933245E+01 -0.28544793812E+01 -0.35814523374E+01  0.50695395315E+01  0.51100000000E-03 0.  1.
         12    1    3    3    0    0  0.15209462225E+02 -0.53922498069E+01 -0.27532459681E+01  0.16370230986E+02  0.00000000000E+00 0. -1.
</event>
<event>
 7    1  0.5913457E-013  0.5052886E+02  0.7816164E-02  0.1300439E+00
        -11   -1    0    0    0    0  0.00000000000E+00  0.00000000000E+00  0.45593999997E+02  0.45594000000E+02  0.51100000000E-03 0.  1.
         11   -1    0    0    0    0 -0.00000000000E+00 -0.00000000000E+00 -0.45593999997E+02  0.45594000000E+02  0.51100000000E-03 0. -1.
    9900012    2    1    2    0    0  0.26563473129E+02  0.28294507440E+02 -0.12123051188E+02  0.50528860485E+02  0.30000001931E+02 0.  0.
        -12    1    1    2    0    0 -0.26563473129E+02 -0.28294507440E+02  0.12123051188E+02  0.40659139515E+02  0.00000000000E+00 0.  1.
         11    1    3    3    0    0  0.73796696263E+01  0.15336656771E+02 -0.59033651431E+01  0.18014502074E+02  0.51100000000E-03 0. -1.
        -11    1    3    3    0    0 -0.62969459853E-01  0.12630543372E+02 -0.31959545110E+01  0.13028764965E+02  0.51100000000E-03 0.  1.
         12    1    3    3    0    0  0.19246772963E+02  0.32730729700E+00 -0.30237315340E+01  0.19485593446E+02  0.00000000000E+00 0. -1.
</event>
<event>
 7    1  0.5913457E-013  0.5052886E+02  0.7816164E-02  0.1300439E+00
        -11   -1    0    0    0    0  0.00000000000E+00  0.00000000000E+00  0.45593999997E+02  0.45594000000E+02  0.51100000000E-03 0. -1.
         11   -1    0    0    0    0 -0.00000000000E+00 -0.00000000000E+00 -0.45593999997E+02  0.45594000000E+02  0.51100000000E-03 0.  1.
    9900012    2    1    2    0    0  0.19334781535E+02 -0.35256626797E+02 -0.60251119560E+01  0.50528862230E+02  0.30000007234E+02 0.  0.
        -12    1    1    2    0    0 -0.19334781535E+02  0.35256626797E+02  0.60251119560E+01  0.40659137770E+02  0.00000000000E+00 0.  1.
         11    1    3    3    0    0  0.15754815659E+02 -0.24381226696E+02  0.38901232952E+00  0.29031186033E+02  0.51100000000E-03 0. -1.
        -11    1    3    3    0    0  0.10481251476E+02 -0.64828816733E+01 -0.34684654096E+01  0.12802915287E+02  0.51100000000E-03 0.  1.
         12    1    3    3    0    0 -0.69012855995E+01 -0.43925184280E+01 -0.29456588759E+01  0.86947609098E+01  0.00000000000E+00 0. -1.
</event>
<event>
 7    1  0.5913457E-013  0.5052884E+02  0.7816164E-02  0.1300439E+00
        -11   -1    0    0    0    0  0.00000000000E+00  0.00000000000E+00  0.45593999997E+02  0.45594000000E+02  0.51100000000E-03 0. -1.
         11   -1    0    0    0    0 -0.00000000000E+00 -0.00000000000E+00 -0.45593999997E+02  0.45594000000E+02  0.51100000000E-03 0.  1.
    9900012    2    1    2    0    0  0.94422011436E+01  0.21874229898E+02  0.32947386862E+02  0.50528838707E+02  0.29999935733E+02 0.  0.
        -12    1    1    2    0    0 -0.94422011436E+01 -0.21874229898E+02 -0.32947386862E+02  0.40659161293E+02  0.00000000000E+00 0.  1.
         11    1    3    3    0    0  0.57686314766E+01  0.78352160229E+01  0.55548492859E+01  0.11203752500E+02  0.51100000000E-03 0. -1.
        -11    1    3    3    0    0  0.39605718865E+00  0.14978155917E+02  0.37601116976E+01  0.15447991980E+02  0.51100000000E-03 0.  1.
        -12    1    3    3    0    0  0.32775124784E+01 -0.93914204190E+00  0.23632425878E+02  0.23877094227E+02  0.00000000000E+00 0.  1.
</event>
<event>
 7    1  0.5913457E-013  0.5052887E+02  0.7816164E-02  0.1300439E+00
        -11   -1    0    0    0    0  0.00000000000E+00  0.00000000000E+00  0.45593999997E+02  0.45594000000E+02  0.51100000000E-03 0.  1.
         11   -1    0    0    0    0 -0.00000000000E+00 -0.00000000000E+00 -0.45593999997E+02  0.45594000000E+02  0.51100000000E-03 0. -1.
    9900012    2    1    2    0    0 -0.39757384815E+01  0.38412699911E+02 -0.12720954588E+02  0.50528871916E+02  0.30000036675E+02 0.  0.
        -12    1    1    2    0    0  0.39757384815E+01 -0.38412699911E+02  0.12720954588E+02  0.40659128084E+02  0.00000000000E+00 0.  1.
         11    1    3    3    0    0  0.48142908152E+01  0.41212509300E+01 -0.37262392207E+01  0.73516640478E+01  0.51100000000E-03 0. -1.
        -11    1    3    3    0    0  0.35721422575E+01 -0.18454587203E+01 -0.12120537399E+01  0.41994038536E+01  0.51100000000E-03 0.  1.
         12    1    3    3    0    0 -0.12362171554E+02  0.36136907702E+02 -0.77826616272E+01  0.38977804014E+02  0.00000000000E+00 0. -1.
</event>
<event>
 7    1  0.5913457E-013  0.5052886E+02  0.7816164E-02  0.1300439E+00
        -11   -1    0    0    0    0  0.00000000000E+00  0.00000000000E+00  0.45593999997E+02  0.45594000000E+02  0.51100000000E-03 0.  1.
         11   -1    0    0    0    0 -0.00000000000E+00 -0.00000000000E+00 -0.45593999997E+02  0.45594000000E+02  0.51100000000E-03 0. -1.
    9900012    2    1    2    0    0 -0.31761151046E+02  0.19405504230E+02 -0.16365258863E+02  0.50528855791E+02  0.29999987661E+02 0.  0.
        -12    1    1    2    0    0  0.31761151046E+02 -0.19405504230E+02  0.16365258863E+02  0.40659144209E+02  0.00000000000E+00 0.  1.
         11    1    3    3    0    0 -0.64244545422E+01  0.13881379290E+02 -0.92948753897E+01  0.17898631678E+02  0.51100000000E-03 0. -1.
        -11    1    3    3    0    0 -0.38782795781E+01  0.80002081734E+01  0.21450298093E+01  0.91457933745E+01  0.51100000000E-03 0.  1.
        -12    1    3    3    0    0 -0.21458416925E+02 -0.24760832334E+01 -0.92154132827E+01  0.23484430738E+02  0.00000000000E+00 0.  1.
</event>
<event>
 7    1  0.5913457E-013  0.5052886E+02  0.7816164E-02  0.1300439E+00
        -11   -1    0    0    0    0  0.00000000000E+00  0.00000000000E+00  0.45593999997E+02  0.45594000000E+02  0.51100000000E-03 0. -1.
         11   -1    0    0    0    0 -0.00000000000E+00 -0.00000000000E+00 -0.45593999997E+02  0.45594000000E+02  0.51100000000E-03 0.  1.
    9900012    2    1    2    0    0  0.35044933458E+02 -0.12708277874E+02  0.16233237448E+02  0.50528859753E+02  0.29999999704E+02 0.  0.
        -12    1    1    2    0    0 -0.35044933458E+02  0.12708277874E+02 -0.16233237448E+02  0.40659140247E+02  0.00000000000E+00 0.  1.
         11    1    3    3    0    0  0.17234219981E+02 -0.92660694655E+01  0.19037453264E+02  0.27300238254E+02  0.51100000000E-03 0. -1.
        -11    1    3    3    0    0  0.76364008698E+01 -0.58153721104E+01  0.43787077176E+01  0.10550177845E+02  0.51100000000E-03 0.  1.
        -12    1    3    3    0    0  0.10174312608E+02  0.23731637014E+01 -0.71829235337E+01  0.12678443654E+02  0.00000000000E+00 0.  1.
</event>
<event>
 7    1  0.5913457E-013  0.5052879E+02  0.7816164E-02  0.1300439E+00
        -11   -1    0    0    0    0  0.00000000000E+00  0.00000000000E+00  0.45593999997E+02  0.45594000000E+02  0.51100000000E-03 0.  1.
         11   -1    0    0    0    0 -0.00000000000E+00 -0.00000000000E+00 -0.45593999997E+02  0.45594000000E+02  0.51100000000E-03 0. -1.
    9900012    2    1    2    0    0  0.26265085413E+01  0.24367114329E+02 -0.32442507004E+02  0.50528793557E+02  0.29999798496E+02 0.  0.
        -12    1    1    2    0    0 -0.26265085413E+01 -0.24367114329E+02  0.32442507004E+02  0.40659206443E+02  0.00000000000E+00 0.  1.
         11    1    3    3    0    0  0.66797958246E+01  0.25810794499E+01  0.14715211065E+01  0.73107467479E+01  0.51100000000E-03 0. -1.
        -11    1    3    3    0    0 -0.60650898128E+01  0.66662689080E+01 -0.44752776657E+01  0.10062433405E+02  0.51100000000E-03 0.  1.
         12    1    3    3    0    0  0.20118025295E+01  0.15119765971E+02 -0.29438750445E+02  0.33155613404E+02  0.00000000000E+00 0. -1.
</event>
<event>
 7    1  0.5913457E-013  0.5052886E+02  0.7816164E-02  0.1300439E+00
        -11   -1    0    0    0    0  0.00000000000E+00  0.00000000000E+00  0.45593999997E+02  0.45594000000E+02  0.51100000000E-03 0.  1.
         11   -1    0    0    0    0 -0.00000000000E+00 -0.00000000000E+00 -0.45593999997E+02  0.45594000000E+02  0.51100000000E-03 0. -1.
    9900012    2    1    2    0    0 -0.85481334985E+00  0.76381989967E+01 -0.39926093948E+02  0.50528858743E+02  0.29999996637E+02 0.  0.
        -12    1    1    2    0    0  0.85481334985E+00 -0.76381989967E+01  0.39926093948E+02  0.40659141257E+02  0.00000000000E+00 0.  1.
         11    1    3    3    0    0  0.86296955123E+01  0.60564039522E+01 -0.24560975580E+02  0.26728134899E+02  0.51100000000E-03 0. -1.
        -11    1    3    3    0    0 -0.14872302332E+01  0.72506283094E+01 -0.29155991337E+01  0.79551356505E+01  0.51100000000E-03 0.  1.
         12    1    3    3    0    0 -0.79972786289E+01 -0.56688332649E+01 -0.12449519235E+02  0.15845588194E+02  0.00000000000E+00 0. -1.
</event>
<event>
 7    1  0.7173922E-013  0.5052886E+02  0.7816164E-02  0.1300439E+00
        -11   -1    0    0    0    0  0.00000000000E+00  0.00000000000E+00  0.45593999997E+02  0.45594000000E+02  0.51100000000E-03 0.  1.
         11   -1    0    0    0    0 -0.00000000000E+00 -0.00000000000E+00 -0.45593999997E+02  0.45594000000E+02  0.51100000000E-03 0. -1.
    9900012    2    1    2    0    0 -0.36537953242E+02 -0.73403349845E+01 -0.16256174746E+02  0.50528858811E+02  0.29999996843E+02 0.  0.
        -12    1    1    2    0    0  0.36537953242E+02  0.73403349845E+01  0.16256174746E+02  0.40659141189E+02  0.00000000000E+00 0.  1.
         11    1    3    3    0    0 -0.12035660152E+02 -0.29166331308E+01 -0.17365390770E+02  0.21328869191E+02  0.51100000000E-03 0. -1.
        -11    1    3    3    0    0 -0.11293903033E+02  0.24470151633E+01 -0.56332777280E+01  0.12855891534E+02  0.51100000000E-03 0.  1.
        -12    1    3    3    0    0 -0.13208390058E+02 -0.68707170170E+01  0.67424937521E+01  0.16344098086E+02  0.00000000000E+00 0.  1.
</event>
<event>
 7    1  0.5913457E-013  0.5052884E+02  0.7816164E-02  0.1300439E+00
        -11   -1    0    0    0    0  0.00000000000E+00  0.00000000000E+00  0.45593999997E+02  0.45594000000E+02  0.51100000000E-03 0.  1.
         11   -1    0    0    0    0 -0.00000000000E+00 -0.00000000000E+00 -0.45593999997E+02  0.45594000000E+02  0.51100000000E-03 0. -1.
    9900012    2    1    2    0    0  0.23557094346E+02  0.54807546157E+01 -0.32683208797E+02  0.50528837411E+02  0.29999931793E+02 0.  0.
        -12    1    1    2    0    0 -0.23557094346E+02 -0.54807546157E+01  0.32683208797E+02  0.40659162589E+02  0.00000000000E+00 0.  1.
         11    1    3    3    0    0  0.38222040036E+00  0.19113617964E+01 -0.11981202630E+02  0.12138723700E+02  0.51100000000E-03 0. -1.
        -11    1    3    3    0    0 -0.44033943327E+01  0.14684664697E+01 -0.24080908355E+01  0.52292616262E+01  0.51100000000E-03 0.  1.
         12    1    3    3    0    0  0.27578268279E+02  0.21009263496E+01 -0.18293915331E+02  0.33160852084E+02  0.00000000000E+00 0. -1.
</event>
<event>
 7    1  0.5913457E-013  0.5052886E+02  0.7816164E-02  0.1300439E+00
        -11   -1    0    0    0    0  0.00000000000E+00  0.00000000000E+00  0.45593999997E+02  0.45594000000E+02  0.51100000000E-03 0. -1.
         11   -1    0    0    0    0 -0.00000000000E+00 -0.00000000000E+00 -0.45593999997E+02  0.45594000000E+02  0.51100000000E-03 0.  1.
    9900012    2    1    2    0    0  0.14447694926E+02  0.37875027406E+02  0.31483711134E+01  0.50528857973E+02  0.29999994296E+02 0.  0.
        -12    1    1    2    0    0 -0.14447694926E+02 -0.37875027406E+02 -0.31483711134E+01  0.40659142027E+02  0.00000000000E+00 0.  1.
         11    1    3    3    0    0 -0.15873801523E+01  0.14179730254E+01 -0.48975853079E+00  0.21840986535E+01  0.51100000000E-03 0. -1.
        -11    1    3    3    0    0  0.38461122306E+01  0.63873631316E+01 -0.10560940777E+02  0.12927662489E+02  0.51100000000E-03 0.  1.
         12    1    3    3    0    0  0.12188962848E+02  0.30069691249E+02  0.14199070421E+02  0.35417096831E+02  0.00000000000E+00 0. -1.
</event>
<event>
 7    1  0.5913457E-013  0.5052887E+02  0.7816164E-02  0.1300439E+00
        -11   -1    0    0    0    0  0.00000000000E+00  0.00000000000E+00  0.45593999997E+02  0.45594000000E+02  0.51100000000E-03 0.  1.
         11   -1    0    0    0    0 -0.00000000000E+00 -0.00000000000E+00 -0.45593999997E+02  0.45594000000E+02  0.51100000000E-03 0. -1.
    9900012    2    1    2    0    0 -0.13363414956E+02 -0.27294684967E+01 -0.38303187477E+02  0.50528867835E+02  0.30000024271E+02 0.  0.
        -12    1    1    2    0    0  0.13363414956E+02  0.27294684967E+01  0.38303187477E+02  0.40659132165E+02  0.00000000000E+00 0.  1.
         11    1    3    3    0    0 -0.12408681876E+02 -0.14611679216E+01 -0.13776761555E+02  0.18598643951E+02  0.51100000000E-03 0. -1.
        -11    1    3    3    0    0 -0.92482258138E+01  0.38338617713E+01 -0.82915299634E+01  0.12999140209E+02  0.51100000000E-03 0.  1.
         12    1    3    3    0    0  0.82934927340E+01 -0.51021623464E+01 -0.16234895958E+02  0.18931083675E+02  0.00000000000E+00 0. -1.
</event>
<event>
 7    1  0.5913457E-013  0.5052888E+02  0.7816164E-02  0.1300439E+00
        -11   -1    0    0    0    0  0.00000000000E+00  0.00000000000E+00  0.45593999997E+02  0.45594000000E+02  0.51100000000E-03 0.  1.
         11   -1    0    0    0    0 -0.00000000000E+00 -0.00000000000E+00 -0.45593999997E+02  0.45594000000E+02  0.51100000000E-03 0. -1.
    9900012    2    1    2    0    0 -0.35588299195E+02 -0.18905046127E+02 -0.54070423941E+01  0.50528881513E+02  0.30000065847E+02 0.  0.
        -12    1    1    2    0    0  0.35588299195E+02  0.18905046127E+02  0.54070423941E+01  0.40659118487E+02  0.00000000000E+00 0.  1.
         11    1    3    3    0    0 -0.22204698042E+02  0.11810893248E+01 -0.35655386279E+01  0.22520138834E+02  0.51100000000E-03 0. -1.
        -11    1    3    3    0    0 -0.19287487106E+01  0.72763784105E+00  0.31190553666E+01  0.37387210457E+01  0.51100000000E-03 0.  1.
        -12    1    3    3    0    0 -0.11454852443E+02 -0.20813773293E+02 -0.49605591328E+01  0.24270021634E+02  0.00000000000E+00 0.  1.
</event>
<event>
 7    1  0.5913457E-013  0.5052886E+02  0.7816164E-02  0.1300439E+00
        -11   -1    0    0    0    0  0.00000000000E+00  0.00000000000E+00  0.45593999997E+02  0.45594000000E+02  0.51100000000E-03 0.  1.
         11   -1    0    0    0    0 -0.00000000000E+00 -0.00000000000E+00 -0.45593999997E+02  0.45594000000E+02  0.51100000000E-03 0. -1.
    9900012    2    1    2    0    0 -0.33721975023E+02  0.21379056749E+02 -0.76765847638E+01  0.50528860553E+02  0.30000002138E+02 0.  0.
        -12    1    1    2    0    0  0.33721975023E+02 -0.21379056749E+02  0.76765847638E+01  0.40659139447E+02  0.00000000000E+00 0.  1.
         11    1    3    3    0    0 -0.11637676184E+02  0.50668389211E+01 -0.74885540955E+01  0.14737259119E+02  0.51100000000E-03 0. -1.
        -11    1    3    3    0    0 -0.89289888214E+01 -0.32394407035E+01 -0.63602662045E+01  0.11431264318E+02  0.51100000000E-03 0.  1.
        -12    1    3    3    0    0 -0.13155310017E+02  0.19551658531E+02  0.61722355362E+01  0.24360337117E+02  0.00000000000E+00 0.  1.
</event>
<event>
 7    1  0.5913457E-013  0.5052886E+02  0.7816164E-02  0.1300439E+00
        -11   -1    0    0    0    0  0.00000000000E+00  0.00000000000E+00  0.45593999997E+02  0.45594000000E+02  0.51100000000E-03 0.  1.
         11   -1    0    0    0    0 -0.00000000000E+00 -0.00000000000E+00 -0.45593999997E+02  0.45594000000E+02  0.51100000000E-03 0. -1.
    9900012    2    1    2    0    0 -0.14267697373E+02  0.36293781677E+02 -0.11504763831E+02  0.50528863665E+02  0.30000011595E+02 0.  0.
        -12    1    1    2    0    0  0.14267697373E+02 -0.36293781677E+02  0.11504763831E+02  0.40659136335E+02  0.00000000000E+00 0.  1.
         11    1    3    3    0    0 -0.19052488475E+02  0.21125640031E+02 -0.99322863757E+01  0.30132047669E+02  0.51100000000E-03 0.  1.
        -11    1    3    3    0    0 -0.38210365394E+01  0.88553508374E+01 -0.31084364510E+00  0.96495690433E+01  0.51100000000E-03 0. -1.
         12    1    3    3    0    0  0.86058276416E+01  0.63127908083E+01 -0.12616338101E+01  0.10747246953E+02  0.00000000000E+00 0. -1.
</event>
<event>
 7    1  0.5913457E-013  0.5052886E+02  0.7816164E-02  0.1300439E+00
        -11   -1    0    0    0    0  0.00000000000E+00  0.00000000000E+00  0.45593999997E+02  0.45594000000E+02  0.51100000000E-03 0. -1.
         11   -1    0    0    0    0 -0.00000000000E+00 -0.00000000000E+00 -0.45593999997E+02  0.45594000000E+02  0.51100000000E-03 0.  1.
    9900012    2    1    2    0    0  0.16419556542E+02  0.28977221075E+01  0.37083242663E+02  0.50528861828E+02  0.30000006013E+02 0.  0.
        -12    1    1    2    0    0 -0.16419556542E+02 -0.28977221075E+01 -0.37083242663E+02  0.40659138172E+02  0.00000000000E+00 0.  1.
         11    1    3    3    0    0  0.36076072885E+01 -0.11068380088E+01  0.99978302424E+01  0.10686277675E+02  0.51100000000E-03 0. -1.
        -11    1    3    3    0    0  0.13897553305E+01 -0.10593122918E+02  0.10047797223E+02  0.14666420911E+02  0.51100000000E-03 0.  1.
        -12    1    3    3    0    0  0.11422193923E+02  0.14597683034E+02  0.17037615198E+02  0.25176163243E+02  0.00000000000E+00 0.  1.
</event>
<event>
 7    1  0.5913457E-013  0.5052886E+02  0.7816164E-02  0.1300439E+00
        -11   -1    0    0    0    0  0.00000000000E+00  0.00000000000E+00  0.45593999997E+02  0.45594000000E+02  0.51100000000E-03 0.  1.
         11   -1    0    0    0    0 -0.00000000000E+00 -0.00000000000E+00 -0.45593999997E+02  0.45594000000E+02  0.51100000000E-03 0. -1.
    9900012    2    1    2    0    0 -0.14103761103E+02  0.17248424802E+02 -0.34010900267E+02  0.50528861145E+02  0.30000003938E+02 0.  0.
        -12    1    1    2    0    0  0.14103761103E+02 -0.17248424802E+02  0.34010900267E+02  0.40659138855E+02  0.00000000000E+00 0.  1.
         11    1    3    3    0    0 -0.16738087958E+02  0.42595448601E+00 -0.15572880091E+02  0.22866123858E+02  0.51100000000E-03 0. -1.
        -11    1    3    3    0    0 -0.15022834570E+01 -0.13038949974E+01 -0.12979744638E+01  0.23752338241E+01  0.51100000000E-03 0.  1.
        -12    1    3    3    0    0  0.41366103124E+01  0.18126365313E+02 -0.17140045713E+02  0.25287503463E+02  0.00000000000E+00 0.  1.
</event>
<event>
 7    1  0.5913457E-013  0.5052886E+02  0.7816164E-02  0.1300439E+00
        -11   -1    0    0    0    0  0.00000000000E+00  0.00000000000E+00  0.45593999997E+02  0.45594000000E+02  0.51100000000E-03 0.  1.
         11   -1    0    0    0    0 -0.00000000000E+00 -0.00000000000E+00 -0.45593999997E+02  0.45594000000E+02  0.51100000000E-03 0. -1.
    9900012    2    1    2    0    0  0.33802688951E+02  0.20054790169E+02 -0.10409086093E+02  0.50528862499E+02  0.30000008051E+02 0.  0.
        -12    1    1    2    0    0 -0.33802688951E+02 -0.20054790169E+02  0.10409086093E+02  0.40659137501E+02  0.00000000000E+00 0.  1.
         11    1    3    3    0    0  0.21505295135E+02  0.35096612766E+01 -0.16969840041E+02  0.27618307559E+02  0.51100000000E-03 0. -1.
        -11    1    3    3    0    0  0.52055958270E+01  0.42856781633E+01 -0.10630638734E+01  0.68260801558E+01  0.51100000000E-03 0.  1.
        -12    1    3    3    0    0  0.70917979889E+01  0.12259450729E+02  0.76238178215E+01  0.16084474784E+02  0.00000000000E+00 0.  1.
</event>
<event>
 7    1  0.5913457E-013  0.5052879E+02  0.7816164E-02  0.1300439E+00
        -11   -1    0    0    0    0  0.00000000000E+00  0.00000000000E+00  0.45593999997E+02  0.45594000000E+02  0.51100000000E-03 0.  1.
         11   -1    0    0    0    0 -0.00000000000E+00 -0.00000000000E+00 -0.45593999997E+02  0.45594000000E+02  0.51100000000E-03 0. -1.
    9900012    2    1    2    0    0 -0.26286964074E+02  0.63849042684E+01 -0.30354562788E+02  0.50528794833E+02  0.29999802374E+02 0.  0.
        -12    1    1    2    0    0  0.26286964074E+02 -0.63849042684E+01  0.30354562788E+02  0.40659205167E+02  0.00000000000E+00 0.  1.
         11    1    3    3    0    0 -0.11373350892E+02 -0.42892123710E+01 -0.70158008339E+01  0.14034668321E+02  0.51100000000E-03 0. -1.
        -11    1    3    3    0    0 -0.15472987682E+02  0.11460156653E+01 -0.58713241997E+01  0.16589127398E+02  0.51100000000E-03 0.  1.
         12    1    3    3    0    0  0.55937450054E+00  0.95281009741E+01 -0.17467437754E+02  0.19904999114E+02  0.00000000000E+00 0. -1.
</event>
<event>
 7    1  0.5913457E-013  0.5052885E+02  0.7816164E-02  0.1300439E+00
        -11   -1    0    0    0    0  0.00000000000E+00  0.00000000000E+00  0.45593999997E+02  0.45594000000E+02  0.51100000000E-03 0. -1.
         11   -1    0    0    0    0 -0.00000000000E+00 -0.00000000000E+00 -0.45593999997E+02  0.45594000000E+02  0.51100000000E-03 0.  1.
    9900012    2    1    2    0    0  0.26133697327E+02  0.31141353469E+02  0.64237909115E+00  0.50528847491E+02  0.29999962433E+02 0.  0.
        -12    1    1    2    0    0 -0.26133697327E+02 -0.31141353469E+02 -0.64237909115E+00  0.40659152509E+02  0.00000000000E+00 0.  1.
         11    1    3    3    0    0  0.99476797145E+01  0.23907411224E+02  0.18688130874E+01  0.25961762378E+02  0.51100000000E-03 0. -1.
        -11    1    3    3    0    0 -0.22860575816E+00  0.30731722657E-01  0.54378848330E+01  0.54427747289E+01  0.51100000000E-03 0.  1.
        -12    1    3    3    0    0  0.16414623370E+02  0.72032105225E+01 -0.66643188293E+01  0.19124310384E+02  0.00000000000E+00 0.  1.
</event>
<event>
 7    1  0.5913457E-013  0.5052886E+02  0.7816164E-02  0.1300439E+00
        -11   -1    0    0    0    0  0.00000000000E+00  0.00000000000E+00  0.45593999997E+02  0.45594000000E+02  0.51100000000E-03 0. -1.
         11   -1    0    0    0    0 -0.00000000000E+00 -0.00000000000E+00 -0.45593999997E+02  0.45594000000E+02  0.51100000000E-03 0.  1.
    9900012    2    1    2    0    0 -0.24186699621E+02 -0.23384611065E+02  0.22832634616E+02  0.50528859863E+02  0.30000000039E+02 0.  0.
        -12    1    1    2    0    0  0.24186699621E+02  0.23384611065E+02 -0.22832634616E+02  0.40659140137E+02  0.00000000000E+00 0.  1.
         11    1    3    3    0    0 -0.29026653508E+01 -0.38312780926E+01  0.86170229546E+01  0.98669773904E+01  0.51100000000E-03 0. -1.
        -11    1    3    3    0    0  0.25807770263E+01 -0.13217589304E+01 -0.44431516780E+01  0.53055681905E+01  0.51100000000E-03 0.  1.
         12    1    3    3    0    0 -0.23864811296E+02 -0.18231574042E+02  0.18658763339E+02  0.35356314282E+02  0.00000000000E+00 0. -1.
</event>
<event>
 7    1  0.5913457E-013  0.5052886E+02  0.7816164E-02  0.1300439E+00
        -11   -1    0    0    0    0  0.00000000000E+00  0.00000000000E+00  0.45593999997E+02  0.45594000000E+02  0.51100000000E-03 0.  1.
         11   -1    0    0    0    0 -0.00000000000E+00 -0.00000000000E+00 -0.45593999997E+02  0.45594000000E+02  0.51100000000E-03 0. -1.
    9900012    2    1    2    0    0  0.39634716006E+02 -0.42854682144E+01  0.79931035127E+01  0.50528860137E+02  0.30000000871E+02 0.  0.
        -12    1    1    2    0    0 -0.39634716006E+02  0.42854682144E+01 -0.79931035127E+01  0.40659139863E+02  0.00000000000E+00 0.  1.
         11    1    3    3    0    0  0.98321027418E+01  0.17179912447E+00  0.13595311987E+02  0.16778923314E+02  0.51100000000E-03 0. -1.
        -11    1    3    3    0    0  0.72385316338E+00  0.27938741777E+01 -0.21158621566E+01  0.35786267268E+01  0.51100000000E-03 0.  1.
        -12    1    3    3    0    0  0.29078760100E+02 -0.72511415165E+01 -0.34863463182E+01  0.30171310096E+02  0.00000000000E+00 0.  1.
</event>
<event>
 7    1  0.5913457E-013  0.5052885E+02  0.7816164E-02  0.1300439E+00
        -11   -1    0    0    0    0  0.00000000000E+00  0.00000000000E+00  0.45593999997E+02  0.45594000000E+02  0.51100000000E-03 0. -1.
         11   -1    0    0    0    0 -0.00000000000E+00 -0.00000000000E+00 -0.45593999997E+02  0.45594000000E+02  0.51100000000E-03 0.  1.
    9900012    2    1    2    0    0 -0.46287740135E+01  0.26318513863E+02  0.30644364269E+02  0.50528846267E+02  0.29999958714E+02 0.  0.
        -12    1    1    2    0    0  0.46287740135E+01 -0.26318513863E+02 -0.30644364269E+02  0.40659153733E+02  0.00000000000E+00 0.  1.
         11    1    3    3    0    0 -0.82825884842E+00  0.10689441218E+02 -0.37362408076E+01  0.11353839083E+02  0.51100000000E-03 0.  1.
        -11    1    3    3    0    0  0.32511168319E+01  0.62360331282E+01  0.13079324810E+02  0.14850138301E+02  0.51100000000E-03 0. -1.
        -12    1    3    3    0    0 -0.70516319970E+01  0.93930395168E+01  0.21301280267E+02  0.24324868883E+02  0.00000000000E+00 0.  1.
</event>
<event>
 7    1  0.5913457E-013  0.5052886E+02  0.7816164E-02  0.1300439E+00
        -11   -1    0    0    0    0  0.00000000000E+00  0.00000000000E+00  0.45593999997E+02  0.45594000000E+02  0.51100000000E-03 0.  1.
         11   -1    0    0    0    0 -0.00000000000E+00 -0.00000000000E+00 -0.45593999997E+02  0.45594000000E+02  0.51100000000E-03 0. -1.
    9900012    2    1    2    0    0 -0.40086805607E+02  0.67937144905E+01  0.24254398054E+00  0.50528863659E+02  0.30000011579E+02 0.  0.
        -12    1    1    2    0    0  0.40086805607E+02 -0.67937144905E+01 -0.24254398054E+00  0.40659136341E+02  0.00000000000E+00 0.  1.
         11    1    3    3    0    0 -0.33517693282E+01  0.80211701442E+01 -0.56065965736E+01  0.10344440706E+02  0.51100000000E-03 0. -1.
        -11    1    3    3    0    0 -0.70252304447E+01  0.35095891991E+01 -0.36159076326E+01  0.86455692361E+01  0.51100000000E-03 0.  1.
        -12    1    3    3    0    0 -0.29709805834E+02 -0.47370448528E+01  0.94650481867E+01  0.31538853718E+02  0.00000000000E+00 0.  1.
</event>
<event>
 7    1  0.5913457E-013  0.5052886E+02  0.7816164E-02  0.1300439E+00
        -11   -1    0    0    0    0  0.00000000000E+00  0.00000000000E+00  0.45593999997E+02  0.45594000000E+02  0.51100000000E-03 0.  1.
         11   -1    0    0    0    0 -0.00000000000E+00 -0.00000000000E+00 -0.45593999997E+02  0.45594000000E+02  0.51100000000E-03 0. -1.
    9900012    2    1    2    0    0 -0.40177115055E+01 -0.39307964057E+02 -0.95868406049E+01  0.50528861337E+02  0.30000004520E+02 0.  0.
        -12    1    1    2    0    0  0.40177115055E+01  0.39307964057E+02  0.95868406049E+01  0.40659138663E+02  0.00000000000E+00 0.  1.
         11    1    3    3    0    0  0.90016856950E+01 -0.16269636780E+02 -0.82595372223E+01  0.20345795185E+02  0.51100000000E-03 0. -1.
        -11    1    3    3    0    0 -0.28875328079E+01 -0.17675557418E+02  0.25305100880E+01  0.18087748819E+02  0.51100000000E-03 0.  1.
        -12    1    3    3    0    0 -0.10131864393E+02 -0.53627698586E+01 -0.38578134705E+01  0.12095317334E+02  0.00000000000E+00 0.  1.
</event>
<event>
 7    1  0.5913457E-013  0.5052887E+02  0.7816164E-02  0.1300439E+00
        -11   -1    0    0    0    0  0.00000000000E+00  0.00000000000E+00  0.45593999997E+02  0.45594000000E+02  0.51100000000E-03 0.  1.
         11   -1    0    0    0    0 -0.00000000000E+00 -0.00000000000E+00 -0.45593999997E+02  0.45594000000E+02  0.51100000000E-03 0. -1.
    9900012    2    1    2    0    0 -0.33971904806E+02 -0.19474215213E+02  0.10946675302E+02  0.50528867269E+02  0.30000022551E+02 0.  0.
        -12    1    1    2    0    0  0.33971904806E+02  0.19474215213E+02 -0.10946675302E+02  0.40659132731E+02  0.00000000000E+00 0.  1.
         11    1    3    3    0    0 -0.88102168111E+01 -0.11164158067E+02 -0.98021354753E+00  0.14255495939E+02  0.51100000000E-03 0. -1.
        -11    1    3    3    0    0 -0.11167192553E+02 -0.39903454172E+01 -0.58641010169E+01  0.13229388763E+02  0.51100000000E-03 0.  1.
        -12    1    3    3    0    0 -0.13994495442E+02 -0.43197117280E+01  0.17790989866E+02  0.23043982566E+02  0.00000000000E+00 0.  1.
</event>
<event>
 7    1  0.5913457E-013  0.5052886E+02  0.7816164E-02  0.1300439E+00
        -11   -1    0    0    0    0  0.00000000000E+00  0.00000000000E+00  0.45593999997E+02  0.45594000000E+02  0.51100000000E-03 0.  1.
         11   -1    0    0    0    0 -0.00000000000E+00 -0.00000000000E+00 -0.45593999997E+02  0.45594000000E+02  0.51100000000E-03 0. -1.
    9900012    2    1    2    0    0 -0.22017163107E+02 -0.14187770540E+02 -0.31098508107E+02  0.50528861905E+02  0.30000006245E+02 0.  0.
        -12    1    1    2    0    0  0.22017163107E+02  0.14187770540E+02  0.31098508107E+02  0.40659138095E+02  0.00000000000E+00 0.  1.
         11    1    3    3    0    0 -0.46992324811E+01 -0.12586149708E+01 -0.89185437579E+01  0.10159100382E+02  0.51100000000E-03 0. -1.
        -11    1    3    3    0    0 -0.21926862932E+02 -0.35870618135E+01 -0.19623562578E+02  0.29643524402E+02  0.51100000000E-03 0.  1.
        -12    1    3    3    0    0  0.46089323057E+01 -0.93420937556E+01 -0.25564017710E+01  0.10726237120E+02  0.00000000000E+00 0.  1.
</event>
<event>
 7    1  0.5913457E-013  0.5052886E+02  0.7816164E-02  0.1300439E+00
        -11   -1    0    0    0    0  0.00000000000E+00  0.00000000000E+00  0.45593999997E+02  0.45594000000E+02  0.51100000000E-03 0.  1.
         11   -1    0    0    0    0 -0.00000000000E+00 -0.00000000000E+00 -0.45593999997E+02  0.45594000000E+02  0.51100000000E-03 0. -1.
    9900012    2    1    2    0    0 -0.73900085790E+01 -0.31264274900E+02 -0.24921852139E+02  0.50528858029E+02  0.29999994464E+02 0.  0.
        -12    1    1    2    0    0  0.73900085790E+01  0.31264274900E+02  0.24921852139E+02  0.40659141971E+02  0.00000000000E+00 0.  1.
         11    1    3    3    0    0 -0.27931393729E+01 -0.81374507660E+01 -0.11236765524E+02  0.14152195315E+02  0.51100000000E-03 0. -1.
        -11    1    3    3    0    0  0.35313779447E+00 -0.23438693696E+02 -0.18194103469E+02  0.29673598868E+02  0.51100000000E-03 0.  1.
        -12    1    3    3    0    0 -0.49500070005E+01  0.31186956226E+00  0.45090168540E+01  0.67030638456E+01  0.00000000000E+00 0.  1.
</event>
<event>
 7    1  0.5913457E-013  0.5052886E+02  0.7816164E-02  0.1300439E+00
        -11   -1    0    0    0    0  0.00000000000E+00  0.00000000000E+00  0.45593999997E+02  0.45594000000E+02  0.51100000000E-03 0. -1.
         11   -1    0    0    0    0 -0.00000000000E+00 -0.00000000000E+00 -0.45593999997E+02  0.45594000000E+02  0.51100000000E-03 0.  1.
    9900012    2    1    2    0    0 -0.19162713208E+02  0.30721430754E+02  0.18497281892E+02  0.50528864219E+02  0.30000013280E+02 0.  0.
        -12    1    1    2    0    0  0.19162713208E+02 -0.30721430754E+02 -0.18497281892E+02  0.40659135781E+02  0.00000000000E+00 0.  1.
         11    1    3    3    0    0 -0.12540094635E+02  0.32579672910E+02  0.10609015550E+02  0.36486165482E+02  0.51100000000E-03 0. -1.
        -11    1    3    3    0    0 -0.51772080342E+00  0.88773994448E+00  0.72453327492E+01  0.73178524136E+01  0.51100000000E-03 0.  1.
        -12    1    3    3    0    0 -0.61048977695E+01 -0.27459821002E+01  0.64293359301E+00  0.67248463236E+01  0.00000000000E+00 0.  1.
</event>
<event>
 7    1  0.5913457E-013  0.5052887E+02  0.7816164E-02  0.1300439E+00
        -11   -1    0    0    0    0  0.00000000000E+00  0.00000000000E+00  0.45593999997E+02  0.45594000000E+02  0.51100000000E-03 0.  1.
         11   -1    0    0    0    0 -0.00000000000E+00 -0.00000000000E+00 -0.45593999997E+02  0.45594000000E+02  0.51100000000E-03 0. -1.
    9900012    2    1    2    0    0  0.16216445857E+02  0.37227376250E+02  0.20771067982E+01  0.50528867799E+02  0.30000024162E+02 0.  0.
        -12    1    1    2    0    0 -0.16216445857E+02 -0.37227376250E+02 -0.20771067982E+01  0.40659132201E+02  0.00000000000E+00 0.  1.
         11    1    3    3    0    0  0.48285423088E+01  0.21967112347E+01 -0.67224320151E+01  0.85633786286E+01  0.51100000000E-03 0. -1.
        -11    1    3    3    0    0  0.47351979231E+01  0.11223414363E+02 -0.55466475347E+01  0.13384783467E+02  0.51100000000E-03 0.  1.
        -12    1    3    3    0    0  0.66527056251E+01  0.23807250653E+02  0.14346186348E+02  0.28580705703E+02  0.00000000000E+00 0.  1.
</event>
<event>
 7    1  0.5913457E-013  0.5052887E+02  0.7816164E-02  0.1300439E+00
        -11   -1    0    0    0    0  0.00000000000E+00  0.00000000000E+00  0.45593999997E+02  0.45594000000E+02  0.51100000000E-03 0.  1.
         11   -1    0    0    0    0 -0.00000000000E+00 -0.00000000000E+00 -0.45593999997E+02  0.45594000000E+02  0.51100000000E-03 0. -1.
    9900012    2    1    2    0    0  0.33775802305E+01  0.38540527180E+02 -0.12505369090E+02  0.50528873846E+02  0.30000042543E+02 0.  0.
        -12    1    1    2    0    0 -0.33775802305E+01 -0.38540527180E+02  0.12505369090E+02  0.40659126154E+02  0.00000000000E+00 0.  1.
         11    1    3    3    0    0 -0.67199840695E+01  0.19777965470E+02 -0.79200853734E+01  0.22339513348E+02  0.51100000000E-03 0. -1.
        -11    1    3    3    0    0  0.10413922422E+02  0.13110716006E+02  0.46323094643E+01  0.17372361544E+02  0.51100000000E-03 0.  1.
         12    1    3    3    0    0 -0.31635812198E+00  0.56518457040E+01 -0.92175931811E+01  0.10816998954E+02  0.00000000000E+00 0. -1.
</event>
<event>
 7    1  0.5913457E-013  0.5052887E+02  0.7816164E-02  0.1300439E+00
        -11   -1    0    0    0    0  0.00000000000E+00  0.00000000000E+00  0.45593999997E+02  0.45594000000E+02  0.51100000000E-03 0.  1.
         11   -1    0    0    0    0 -0.00000000000E+00 -0.00000000000E+00 -0.45593999997E+02  0.45594000000E+02  0.51100000000E-03 0. -1.
    9900012    2    1    2    0    0 -0.74916188595E+01 -0.28967195792E+02 -0.27530754647E+02  0.50528865275E+02  0.30000016490E+02 0.  0.
        -12    1    1    2    0    0  0.74916188595E+01  0.28967195792E+02  0.27530754647E+02  0.40659134725E+02  0.00000000000E+00 0.  1.
         11    1    3    3    0    0  0.13470201373E+01 -0.83493513695E-01  0.37346143651E+01  0.39709922103E+01  0.51100000000E-03 0. -1.
        -11    1    3    3    0    0  0.18044836256E+01  0.51882329411E+00  0.54188308816E+00  0.19542201278E+01  0.51100000000E-03 0.  1.
         12    1    3    3    0    0 -0.10643122622E+02 -0.29402525572E+02 -0.31807252100E+02  0.44603652937E+02  0.00000000000E+00 0. -1.
</event>
<event>
 7    1  0.5913457E-013  0.5052886E+02  0.7816164E-02  0.1300439E+00
        -11   -1    0    0    0    0  0.00000000000E+00  0.00000000000E+00  0.45593999997E+02  0.45594000000E+02  0.51100000000E-03 0. -1.
         11   -1    0    0    0    0 -0.00000000000E+00 -0.00000000000E+00 -0.45593999997E+02  0.45594000000E+02  0.51100000000E-03 0.  1.
    9900012    2    1    2    0    0 -0.19811835476E+02  0.14722916649E+02  0.32309328087E+02  0.50528858580E+02  0.29999996139E+02 0.  0.
        -12    1    1    2    0    0  0.19811835476E+02 -0.14722916649E+02 -0.32309328087E+02  0.40659141420E+02  0.00000000000E+00 0.  1.
         11    1    3    3    0    0 -0.90205455249E+01  0.70208410531E+01  0.57415613995E+01  0.12791715218E+02  0.51100000000E-03 0. -1.
        -11    1    3    3    0    0 -0.47996111344E+01  0.13813589200E+02  0.25106089805E+02  0.29054556599E+02  0.51100000000E-03 0.  1.
        -12    1    3    3    0    0 -0.59916788169E+01 -0.61115136041E+01  0.14616768831E+01  0.86825867625E+01  0.00000000000E+00 0.  1.
</event>
<event>
 7    1  0.5913457E-013  0.5052886E+02  0.7816164E-02  0.1300439E+00
        -11   -1    0    0    0    0  0.00000000000E+00  0.00000000000E+00  0.45593999997E+02  0.45594000000E+02  0.51100000000E-03 0.  1.
         11   -1    0    0    0    0 -0.00000000000E+00 -0.00000000000E+00 -0.45593999997E+02  0.45594000000E+02  0.51100000000E-03 0. -1.
    9900012    2    1    2    0    0  0.33708261723E+02 -0.69872021439E+01 -0.21635561708E+02  0.50528862864E+02  0.30000009163E+02 0.  0.
        -12    1    1    2    0    0 -0.33708261723E+02  0.69872021439E+01  0.21635561708E+02  0.40659137136E+02  0.00000000000E+00 0.  1.
         11    1    3    3    0    0  0.31244031856E+02 -0.68736569926E+00 -0.22143906596E+02  0.38301626568E+02  0.51100000000E-03 0. -1.
        -11    1    3    3    0    0  0.21820283238E+01 -0.19190538983E+01 -0.46316651208E+01  0.54677543400E+01  0.51100000000E-03 0.  1.
        -12    1    3    3    0    0  0.28220154338E+00 -0.43807825463E+01  0.51400100082E+01  0.67594819559E+01  0.00000000000E+00 0.  1.
</event>
<event>
 7    1  0.5913457E-013  0.5052884E+02  0.7816164E-02  0.1300439E+00
        -11   -1    0    0    0    0  0.00000000000E+00  0.00000000000E+00  0.45593999997E+02  0.45594000000E+02  0.51100000000E-03 0.  1.
         11   -1    0    0    0    0 -0.00000000000E+00 -0.00000000000E+00 -0.45593999997E+02  0.45594000000E+02  0.51100000000E-03 0. -1.
    9900012    2    1    2    0    0  0.17522757190E+02 -0.11612580231E+02 -0.34803274892E+02  0.50528843806E+02  0.29999951232E+02 0.  0.
        -12    1    1    2    0    0 -0.17522757190E+02  0.11612580231E+02  0.34803274892E+02  0.40659156194E+02  0.00000000000E+00 0.  1.
         11    1    3    3    0    0  0.35986557591E+01 -0.53758795900E+00 -0.12829157415E+02  0.13335164203E+02  0.51100000000E-03 0. -1.
        -11    1    3    3    0    0  0.14160931718E+02  0.24039540449E+01 -0.18217776817E+02  0.23199102883E+02  0.51100000000E-03 0.  1.
        -12    1    3    3    0    0 -0.23683028650E+00 -0.13478946317E+02 -0.37563406607E+01  0.13994576720E+02  0.00000000000E+00 0.  1.
</event>
<event>
 7    1  0.5913457E-013  0.5052887E+02  0.7816164E-02  0.1300439E+00
        -11   -1    0    0    0    0  0.00000000000E+00  0.00000000000E+00  0.45593999997E+02  0.45594000000E+02  0.51100000000E-03 0.  1.
         11   -1    0    0    0    0 -0.00000000000E+00 -0.00000000000E+00 -0.45593999997E+02  0.45594000000E+02  0.51100000000E-03 0. -1.
    9900012    2    1    2    0    0 -0.29232971865E+02 -0.17488908856E+01 -0.28205314627E+02  0.50528867734E+02  0.30000023964E+02 0.  0.
        -12    1    1    2    0    0  0.29232971865E+02  0.17488908856E+01  0.28205314627E+02  0.40659132266E+02  0.00000000000E+00 0.  1.
         11    1    3    3    0    0 -0.67282731999E+01 -0.65256905604E+01 -0.17471216207E+02  0.19826691443E+02  0.51100000000E-03 0. -1.
        -11    1    3    3    0    0  0.50155748086E+00 -0.28420818401E+01  0.18166050950E+01  0.34101383293E+01  0.51100000000E-03 0.  1.
         12    1    3    3    0    0 -0.23006256146E+02  0.76188815149E+01 -0.12550703515E+02  0.27292037962E+02  0.00000000000E+00 0. -1.
</event>
<event>
 7    1  0.5913457E-013  0.5052886E+02  0.7816164E-02  0.1300439E+00
        -11   -1    0    0    0    0  0.00000000000E+00  0.00000000000E+00  0.45593999997E+02  0.45594000000E+02  0.51100000000E-03 0.  1.
         11   -1    0    0    0    0 -0.00000000000E+00 -0.00000000000E+00 -0.45593999997E+02  0.45594000000E+02  0.51100000000E-03 0. -1.
    9900012    2    1    2    0    0  0.39336768273E+02 -0.53372937847E+01 -0.87919188408E+01  0.50528857363E+02  0.29999992440E+02 0.  0.
        -12    1    1    2    0    0 -0.39336768273E+02  0.53372937847E+01  0.87919188408E+01  0.40659142637E+02  0.00000000000E+00 0.  1.
         11    1    3    3    0    0  0.33107407318E+02 -0.79807591976E+01  0.59852554730E+00  0.34060991909E+02  0.51100000000E-03 0.  1.
        -11    1    3    3    0    0  0.94285132966E+01  0.37070953438E+01 -0.65976366482E+01  0.12090005313E+02  0.51100000000E-03 0. -1.
        -12    1    3    3    0    0 -0.31991523423E+01 -0.10636299309E+01 -0.27928077399E+01  0.43778601407E+01  0.00000000000E+00 0.  1.
</event>
<event>
 7    1  0.5913457E-013  0.5052884E+02  0.7816164E-02  0.1300439E+00
        -11   -1    0    0    0    0  0.00000000000E+00  0.00000000000E+00  0.45593999997E+02  0.45594000000E+02  0.51100000000E-03 0.  1.
         11   -1    0    0    0    0 -0.00000000000E+00 -0.00000000000E+00 -0.45593999997E+02  0.45594000000E+02  0.51100000000E-03 0. -1.
    9900012    2    1    2    0    0  0.27615273909E+02  0.10552712246E+02 -0.27914235957E+02  0.50528835500E+02  0.29999925984E+02 0.  0.
        -12    1    1    2    0    0 -0.27615273909E+02 -0.10552712246E+02  0.27914235957E+02  0.40659164500E+02  0.00000000000E+00 0.  1.
         11    1    3    3    0    0  0.23603639023E+02  0.36156102201E+01 -0.14259713555E+02  0.27812656172E+02  0.51100000000E-03 0.  1.
        -11    1    3    3    0    0  0.92940936514E+01  0.11549774312E+01 -0.10999512815E+02  0.14446571638E+02  0.51100000000E-03 0. -1.
        -12    1    3    3    0    0 -0.52824587658E+01  0.57821245943E+01 -0.26550095879E+01  0.82696076901E+01  0.00000000000E+00 0.  1.
</event>
<event>
 7    1  0.5913457E-013  0.5052886E+02  0.7816164E-02  0.1300439E+00
        -11   -1    0    0    0    0  0.00000000000E+00  0.00000000000E+00  0.45593999997E+02  0.45594000000E+02  0.51100000000E-03 0.  1.
         11   -1    0    0    0    0 -0.00000000000E+00 -0.00000000000E+00 -0.45593999997E+02  0.45594000000E+02  0.51100000000E-03 0. -1.
    9900012    2    1    2    0    0  0.14208235183E+01  0.24516055519E+02 -0.32405405689E+02  0.50528855450E+02  0.29999986627E+02 0.  0.
        -12    1    1    2    0    0 -0.14208235183E+01 -0.24516055519E+02  0.32405405689E+02  0.40659144550E+02  0.00000000000E+00 0.  1.
         11    1    3    3    0    0 -0.54205778940E+01  0.14470899711E+02 -0.17284752830E+02  0.23185173793E+02  0.51100000000E-03 0. -1.
        -11    1    3    3    0    0 -0.58820816859E+00  0.13013558243E+02 -0.39674113804E+01  0.13617600388E+02  0.51100000000E-03 0.  1.
        -12    1    3    3    0    0  0.74296095809E+01 -0.29684024357E+01 -0.11153241478E+02  0.13726081269E+02  0.00000000000E+00 0.  1.
</event>
<event>
 7    1  0.5913457E-013  0.5052886E+02  0.7816164E-02  0.1300439E+00
        -11   -1    0    0    0    0  0.00000000000E+00  0.00000000000E+00  0.45593999997E+02  0.45594000000E+02  0.51100000000E-03 0.  1.
         11   -1    0    0    0    0 -0.00000000000E+00 -0.00000000000E+00 -0.45593999997E+02  0.45594000000E+02  0.51100000000E-03 0. -1.
    9900012    2    1    2    0    0  0.22622582461E+02 -0.27763892563E+02 -0.19249684954E+02  0.50528864025E+02  0.30000012690E+02 0.  0.
        -12    1    1    2    0    0 -0.22622582461E+02  0.27763892563E+02  0.19249684954E+02  0.40659135975E+02  0.00000000000E+00 0.  1.
         11    1    3    3    0    0  0.22329357804E+02 -0.13670844368E+02 -0.11248889193E+02  0.28496135071E+02  0.51100000000E-03 0. -1.
        -11    1    3    3    0    0  0.44126022115E+01 -0.13437475501E+02 -0.13841235686E+01  0.14211002936E+02  0.51100000000E-03 0.  1.
        -12    1    3    3    0    0 -0.41193775546E+01 -0.65557269330E+00 -0.66166721922E+01  0.78217260175E+01  0.00000000000E+00 0.  1.
</event>
<event>
 7    1  0.5913457E-013  0.5052886E+02  0.7816164E-02  0.1300439E+00
        -11   -1    0    0    0    0  0.00000000000E+00  0.00000000000E+00  0.45593999997E+02  0.45594000000E+02  0.51100000000E-03 0.  1.
         11   -1    0    0    0    0 -0.00000000000E+00 -0.00000000000E+00 -0.45593999997E+02  0.45594000000E+02  0.51100000000E-03 0. -1.
    9900012    2    1    2    0    0 -0.36483103211E+02  0.12459405917E+02  0.12919436635E+02  0.50528862544E+02  0.30000008189E+02 0.  0.
        -12    1    1    2    0    0  0.36483103211E+02 -0.12459405917E+02 -0.12919436635E+02  0.40659137456E+02  0.00000000000E+00 0.  1.
         11    1    3    3    0    0 -0.20617821200E+02  0.39123537336E+01 -0.14606010716E+01  0.21036502051E+02  0.51100000000E-03 0. -1.
        -11    1    3    3    0    0 -0.45970820862E+01  0.19231895287E+01 -0.43755112096E+01  0.66315096529E+01  0.51100000000E-03 0.  1.
        -12    1    3    3    0    0 -0.11268199924E+02  0.66238626545E+01  0.18755548917E+02  0.22860850841E+02  0.00000000000E+00 0.  1.
</event>
<event>
 7    1  0.5913457E-013  0.5052886E+02  0.7816164E-02  0.1300439E+00
        -11   -1    0    0    0    0  0.00000000000E+00  0.00000000000E+00  0.45593999997E+02  0.45594000000E+02  0.51100000000E-03 0.  1.
         11   -1    0    0    0    0 -0.00000000000E+00 -0.00000000000E+00 -0.45593999997E+02  0.45594000000E+02  0.51100000000E-03 0. -1.
    9900012    2    1    2    0    0  0.19246900891E+02  0.27350769425E+02 -0.23122672769E+02  0.50528858616E+02  0.29999996250E+02 0.  0.
        -12    1    1    2    0    0 -0.19246900891E+02 -0.27350769425E+02  0.23122672769E+02  0.40659141384E+02  0.00000000000E+00 0.  1.
         11    1    3    3    0    0  0.13379395426E+02  0.13922882444E+02 -0.18157833339E+02  0.26505882165E+02  0.51100000000E-03 0. -1.
        -11    1    3    3    0    0  0.12504253931E+02  0.78477668909E+01 -0.40219742803E+01  0.15300983266E+02  0.51100000000E-03 0.  1.
        -12    1    3    3    0    0 -0.66367484660E+01  0.55801200905E+01 -0.94286514976E+00  0.87219931848E+01  0.00000000000E+00 0.  1.
</event>
<event>
 7    1  0.5913457E-013  0.5052885E+02  0.7816164E-02  0.1300439E+00
        -11   -1    0    0    0    0  0.00000000000E+00  0.00000000000E+00  0.45593999997E+02  0.45594000000E+02  0.51100000000E-03 0.  1.
         11   -1    0    0    0    0 -0.00000000000E+00 -0.00000000000E+00 -0.45593999997E+02  0.45594000000E+02  0.51100000000E-03 0. -1.
    9900012    2    1    2    0    0 -0.28061507480E+02  0.21538836940E+02 -0.20044865664E+02  0.50528851728E+02  0.29999975311E+02 0.  0.
        -12    1    1    2    0    0  0.28061507480E+02 -0.21538836940E+02  0.20044865664E+02  0.40659148272E+02  0.00000000000E+00 0.  1.
         11    1    3    3    0    0 -0.20568847105E+02  0.17956943922E+02 -0.15163615135E+02  0.31232427547E+02  0.51100000000E-03 0. -1.
        -11    1    3    3    0    0 -0.14716818528E+01  0.60821187657E+01 -0.94510145253E+01  0.11334888265E+02  0.51100000000E-03 0.  1.
        -12    1    3    3    0    0 -0.60209785218E+01 -0.25002257482E+01  0.45697639963E+01  0.79615359155E+01  0.00000000000E+00 0.  1.
</event>
<event>
 7    1  0.5913457E-013  0.5052887E+02  0.7816164E-02  0.1300439E+00
        -11   -1    0    0    0    0  0.00000000000E+00  0.00000000000E+00  0.45593999997E+02  0.45594000000E+02  0.51100000000E-03 0. -1.
         11   -1    0    0    0    0 -0.00000000000E+00 -0.00000000000E+00 -0.45593999997E+02  0.45594000000E+02  0.51100000000E-03 0.  1.
    9900012    2    1    2    0    0 -0.35994637517E+02  0.83952647350E+01  0.16943164600E+02  0.50528865398E+02  0.30000016863E+02 0.  0.
        -12    1    1    2    0    0  0.35994637517E+02 -0.83952647350E+01 -0.16943164600E+02  0.40659134602E+02  0.00000000000E+00 0.  1.
         11    1    3    3    0    0 -0.18554196351E+02  0.21386376614E+01  0.66609599862E+01  0.19829280408E+02  0.51100000000E-03 0. -1.
        -11    1    3    3    0    0 -0.17852032232E+02  0.76323254793E+01 -0.88995667903E+00  0.19435520836E+02  0.51100000000E-03 0.  1.
        -12    1    3    3    0    0  0.41159106638E+00 -0.13756984057E+01  0.11172161293E+02  0.11264064154E+02  0.00000000000E+00 0.  1.
</event>
<event>
 7    1  0.5913457E-013  0.5052890E+02  0.7816164E-02  0.1300439E+00
        -11   -1    0    0    0    0  0.00000000000E+00  0.00000000000E+00  0.45593999997E+02  0.45594000000E+02  0.51100000000E-03 0.  1.
         11   -1    0    0    0    0 -0.00000000000E+00 -0.00000000000E+00 -0.45593999997E+02  0.45594000000E+02  0.51100000000E-03 0. -1.
    9900012    2    1    2    0    0  0.42978170518E+00  0.37910821763E+02 -0.14688339695E+02  0.50528899641E+02  0.30000120947E+02 0.  0.
        -12    1    1    2    0    0 -0.42978170518E+00 -0.37910821763E+02  0.14688339695E+02  0.40659100359E+02  0.00000000000E+00 0.  1.
         11    1    3    3    0    0 -0.26129260938E+01  0.25895204897E+02 -0.77948623032E+01  0.27168895782E+02  0.51100000000E-03 0. -1.
        -11    1    3    3    0    0 -0.37220586673E+01  0.13692150759E+02 -0.80221165172E+01  0.16299787324E+02  0.51100000000E-03 0.  1.
        -12    1    3    3    0    0  0.67647664663E+01 -0.16765338935E+01  0.11286391250E+01  0.70602165345E+01  0.00000000000E+00 0.  1.
</event>
<event>
 7    1  0.5913457E-013  0.5052885E+02  0.7816164E-02  0.1300439E+00
        -11   -1    0    0    0    0  0.00000000000E+00  0.00000000000E+00  0.45593999997E+02  0.45594000000E+02  0.51100000000E-03 0. -1.
         11   -1    0    0    0    0 -0.00000000000E+00 -0.00000000000E+00 -0.45593999997E+02  0.45594000000E+02  0.51100000000E-03 0.  1.
    9900012    2    1    2    0    0 -0.85274648162E+01 -0.37849229924E+02  0.12160769508E+02  0.50528853710E+02  0.29999981337E+02 0.  0.
        -12    1    1    2    0    0  0.85274648162E+01  0.37849229924E+02 -0.12160769508E+02  0.40659146290E+02  0.00000000000E+00 0.  1.
         11    1    3    3    0    0  0.15559480109E+00 -0.82118363040E+00 -0.10401625713E+01  0.13343503036E+01  0.51100000000E-03 0.  1.
        -11    1    3    3    0    0 -0.17960262941E+02 -0.15168932514E+02  0.84230570797E+01  0.24972293635E+02  0.51100000000E-03 0. -1.
         12    1    3    3    0    0  0.92772033242E+01 -0.21859113779E+02  0.47778749991E+01  0.24222209772E+02  0.00000000000E+00 0. -1.
</event>
<event>
 7    1  0.5913457E-013  0.5052886E+02  0.7816164E-02  0.1300439E+00
        -11   -1    0    0    0    0  0.00000000000E+00  0.00000000000E+00  0.45593999997E+02  0.45594000000E+02  0.51100000000E-03 0.  1.
         11   -1    0    0    0    0 -0.00000000000E+00 -0.00000000000E+00 -0.45593999997E+02  0.45594000000E+02  0.51100000000E-03 0. -1.
    9900012    2    1    2    0    0 -0.39823028584E+02  0.81798437351E+01  0.61814486165E+00  0.50528861394E+02  0.30000004694E+02 0.  0.
        -12    1    1    2    0    0  0.39823028584E+02 -0.81798437351E+01 -0.61814486165E+00  0.40659138606E+02  0.00000000000E+00 0.  1.
         11    1    3    3    0    0 -0.19396782426E+02  0.84872459668E+01 -0.67368558276E+01  0.22218319903E+02  0.51100000000E-03 0. -1.
        -11    1    3    3    0    0 -0.92090226152E+01  0.81403565156E+01 -0.34415412922E+00  0.12295932012E+02  0.51100000000E-03 0.  1.
        -12    1    3    3    0    0 -0.11217223542E+02 -0.84477587473E+01  0.76991548185E+01  0.16014609479E+02  0.00000000000E+00 0.  1.
</event>
<event>
 7    1  0.5913457E-013  0.5052887E+02  0.7816164E-02  0.1300439E+00
        -11   -1    0    0    0    0  0.00000000000E+00  0.00000000000E+00  0.45593999997E+02  0.45594000000E+02  0.51100000000E-03 0.  1.
         11   -1    0    0    0    0 -0.00000000000E+00 -0.00000000000E+00 -0.45593999997E+02  0.45594000000E+02  0.51100000000E-03 0. -1.
    9900012    2    1    2    0    0 -0.36314691780E+02  0.82995806369E+01 -0.16294936219E+02  0.50528870346E+02  0.30000031903E+02 0.  0.
        -12    1    1    2    0    0  0.36314691780E+02 -0.82995806369E+01  0.16294936219E+02  0.40659129654E+02  0.00000000000E+00 0.  1.
         11    1    3    3    0    0 -0.91424536038E+01  0.70080181059E+01 -0.31233140260E+01  0.11935320123E+02  0.51100000000E-03 0. -1.
        -11    1    3    3    0    0 -0.48205432742E+00  0.57541508661E+01  0.35547602969E+01  0.67807779491E+01  0.51100000000E-03 0.  1.
        -12    1    3    3    0    0 -0.26690183849E+02 -0.44625883351E+01 -0.16726382490E+02  0.31812772274E+02  0.00000000000E+00 0.  1.
</event>
<event>
 7    1  0.5913457E-013  0.5052886E+02  0.7816164E-02  0.1300439E+00
        -11   -1    0    0    0    0  0.00000000000E+00  0.00000000000E+00  0.45593999997E+02  0.45594000000E+02  0.51100000000E-03 0. -1.
         11   -1    0    0    0    0 -0.00000000000E+00 -0.00000000000E+00 -0.45593999997E+02  0.45594000000E+02  0.51100000000E-03 0.  1.
    9900012    2    1    2    0    0  0.22733817563E+02 -0.24883308271E+02  0.22741153958E+02  0.50528861115E+02  0.30000003846E+02 0.  0.
        -12    1    1    2    0    0 -0.22733817563E+02  0.24883308271E+02 -0.22741153958E+02  0.40659138885E+02  0.00000000000E+00 0.  1.
         11    1    3    3    0    0  0.25195247125E+01 -0.15067079782E+02  0.16402649816E+02  0.22414544813E+02  0.51100000000E-03 0.  1.
        -11    1    3    3    0    0  0.17847245865E+02 -0.49559369350E+01  0.10500333375E+02  0.21291841093E+02  0.51100000000E-03 0. -1.
        -12    1    3    3    0    0  0.23670469857E+01 -0.48602915536E+01 -0.41618292327E+01  0.68224752092E+01  0.00000000000E+00 0.  1.
</event>
<event>
 7    1  0.5913457E-013  0.5052886E+02  0.7816164E-02  0.1300439E+00
        -11   -1    0    0    0    0  0.00000000000E+00  0.00000000000E+00  0.45593999997E+02  0.45594000000E+02  0.51100000000E-03 0.  1.
         11   -1    0    0    0    0 -0.00000000000E+00 -0.00000000000E+00 -0.45593999997E+02  0.45594000000E+02  0.51100000000E-03 0. -1.
    9900012    2    1    2    0    0  0.32506850911E+01  0.12056874038E+02 -0.38694063445E+02  0.50528859441E+02  0.29999998757E+02 0.  0.
        -12    1    1    2    0    0 -0.32506850911E+01 -0.12056874038E+02  0.38694063445E+02  0.40659140559E+02  0.00000000000E+00 0.  1.
         11    1    3    3    0    0  0.90069783107E+01  0.61261710204E+01 -0.10490960923E+02  0.15123355812E+02  0.51100000000E-03 0. -1.
        -11    1    3    3    0    0  0.47130838949E+01  0.85213329421E+01 -0.84191681731E+01  0.12872787884E+02  0.51100000000E-03 0.  1.
         12    1    3    3    0    0 -0.10469377115E+02 -0.25906299248E+01 -0.19783934348E+02  0.22532715746E+02  0.00000000000E+00 0. -1.
</event>
<event>
 7    1  0.5913457E-013  0.5052885E+02  0.7816164E-02  0.1300439E+00
        -11   -1    0    0    0    0  0.00000000000E+00  0.00000000000E+00  0.45593999997E+02  0.45594000000E+02  0.51100000000E-03 0.  1.
         11   -1    0    0    0    0 -0.00000000000E+00 -0.00000000000E+00 -0.45593999997E+02  0.45594000000E+02  0.51100000000E-03 0. -1.
    9900012    2    1    2    0    0 -0.25404448120E+02  0.27843757187E+02 -0.15248135710E+02  0.50528850461E+02  0.29999971461E+02 0.  0.
        -12    1    1    2    0    0  0.25404448120E+02 -0.27843757187E+02  0.15248135710E+02  0.40659149539E+02  0.00000000000E+00 0.  1.
         11    1    3    3    0    0 -0.92883140103E+01  0.12165677067E+02 -0.85590209216E+01  0.17536627813E+02  0.51100000000E-03 0. -1.
        -11    1    3    3    0    0 -0.11489516118E+01  0.16453491065E+02 -0.71992325691E+01  0.17996288725E+02  0.51100000000E-03 0.  1.
        -12    1    3    3    0    0 -0.14967182498E+02 -0.77541094452E+00  0.51011778046E+00  0.14995933923E+02  0.00000000000E+00 0.  1.
</event>
<event>
 7    1  0.5913457E-013  0.5052886E+02  0.7816164E-02  0.1300439E+00
        -11   -1    0    0    0    0  0.00000000000E+00  0.00000000000E+00  0.45593999997E+02  0.45594000000E+02  0.51100000000E-03 0.  1.
         11   -1    0    0    0    0 -0.00000000000E+00 -0.00000000000E+00 -0.45593999997E+02  0.45594000000E+02  0.51100000000E-03 0. -1.
    9900012    2    1    2    0    0  0.26895532349E+02  0.29446228699E+02 -0.79193174115E+01  0.50528860398E+02  0.30000001666E+02 0.  0.
        -12    1    1    2    0    0 -0.26895532349E+02 -0.29446228699E+02  0.79193174115E+01  0.40659139602E+02  0.00000000000E+00 0.  1.
         11    1    3    3    0    0  0.19138396331E+02  0.19002276432E+02  0.31008946425E+01  0.27147380565E+02  0.51100000000E-03 0. -1.
        -11    1    3    3    0    0  0.98302954211E+01  0.12652082641E+02 -0.12192469782E+02  0.20133708622E+02  0.51100000000E-03 0.  1.
        -12    1    3    3    0    0 -0.20731594031E+01 -0.22081303734E+01  0.11722577284E+01  0.32477712109E+01  0.00000000000E+00 0.  1.
</event>
<event>
 7    1  0.5913457E-013  0.5052892E+02  0.7816164E-02  0.1300439E+00
        -11   -1    0    0    0    0  0.00000000000E+00  0.00000000000E+00  0.45593999997E+02  0.45594000000E+02  0.51100000000E-03 0.  1.
         11   -1    0    0    0    0 -0.00000000000E+00 -0.00000000000E+00 -0.45593999997E+02  0.45594000000E+02  0.51100000000E-03 0. -1.
    9900012    2    1    2    0    0  0.20836046298E+02 -0.11327622078E+02 -0.33025822044E+02  0.50528920215E+02  0.30000183485E+02 0.  0.
        -12    1    1    2    0    0 -0.20836046298E+02  0.11327622078E+02  0.33025822044E+02  0.40659079785E+02  0.00000000000E+00 0.  1.
         11    1    3    3    0    0  0.49027061696E+01 -0.50178831949E+01  0.28486209560E+01  0.75716788862E+01  0.51100000000E-03 0. -1.
        -11    1    3    3    0    0  0.12806894740E+01  0.25109340423E+01  0.40593735484E+00  0.28477606449E+01  0.51100000000E-03 0.  1.
         12    1    3    3    0    0  0.14652650654E+02 -0.88206729252E+01 -0.36280380355E+02  0.40109480684E+02  0.00000000000E+00 0. -1.
</event>
<event>
 7    1  0.5913457E-013  0.5052886E+02  0.7816164E-02  0.1300439E+00
        -11   -1    0    0    0    0  0.00000000000E+00  0.00000000000E+00  0.45593999997E+02  0.45594000000E+02  0.51100000000E-03 0.  1.
         11   -1    0    0    0    0 -0.00000000000E+00 -0.00000000000E+00 -0.45593999997E+02  0.45594000000E+02  0.51100000000E-03 0. -1.
    9900012    2    1    2    0    0 -0.47685358200E+01  0.24928334309E+02 -0.31764839773E+02  0.50528857964E+02  0.29999994269E+02 0.  0.
        -12    1    1    2    0    0  0.47685358200E+01 -0.24928334309E+02  0.31764839773E+02  0.40659142036E+02  0.00000000000E+00 0.  1.
         11    1    3    3    0    0  0.50044792261E+01  0.65307351755E+01 -0.73800393231E+01  0.11052614846E+02  0.51100000000E-03 0. -1.
        -11    1    3    3    0    0  0.23722717484E+01  0.18196680983E+02 -0.18199798320E+02  0.25845299983E+02  0.51100000000E-03 0.  1.
        -12    1    3    3    0    0 -0.12145286795E+02  0.20091815007E+00 -0.61850021294E+01  0.13630943136E+02  0.00000000000E+00 0.  1.
</event>
<event>
 7    1  0.5913457E-013  0.5052886E+02  0.7816164E-02  0.1300439E+00
        -11   -1    0    0    0    0  0.00000000000E+00  0.00000000000E+00  0.45593999997E+02  0.45594000000E+02  0.51100000000E-03 0.  1.
         11   -1    0    0    0    0 -0.00000000000E+00 -0.00000000000E+00 -0.45593999997E+02  0.45594000000E+02  0.51100000000E-03 0. -1.
    9900012    2    1    2    0    0  0.20160238503E+02 -0.19331979581E+02 -0.29546656509E+02  0.50528861275E+02  0.30000004331E+02 0.  0.
        -12    1    1    2    0    0 -0.20160238503E+02  0.19331979581E+02  0.29546656509E+02  0.40659138725E+02  0.00000000000E+00 0.  1.
         11    1    3    3    0    0  0.10713409620E+02 -0.16353783286E+02 -0.13613364735E+02  0.23823246486E+02  0.51100000000E-03 0. -1.
        -11    1    3    3    0    0 -0.22385537205E+01 -0.37675298906E+01 -0.14206390395E+02  0.14866974560E+02  0.51100000000E-03 0.  1.
        -12    1    3    3    0    0  0.11685382603E+02  0.78933359605E+00 -0.17269013789E+01  0.11838640229E+02  0.00000000000E+00 0.  1.
</event>
<event>
 7    1  0.5913457E-013  0.5052886E+02  0.7816164E-02  0.1300439E+00
        -11   -1    0    0    0    0  0.00000000000E+00  0.00000000000E+00  0.45593999997E+02  0.45594000000E+02  0.51100000000E-03 0. -1.
         11   -1    0    0    0    0 -0.00000000000E+00 -0.00000000000E+00 -0.45593999997E+02  0.45594000000E+02  0.51100000000E-03 0.  1.
    9900012    2    1    2    0    0  0.38698365097E+02 -0.11894774773E+02 -0.37571626832E+01  0.50528863272E+02  0.30000010401E+02 0.  0.
        -12    1    1    2    0    0 -0.38698365097E+02  0.11894774773E+02  0.37571626832E+01  0.40659136728E+02  0.00000000000E+00 0.  1.
         11    1    3    3    0    0  0.20657341806E+02 -0.16140873199E+02 -0.57727721609E+01  0.26843592472E+02  0.51100000000E-03 0. -1.
        -11    1    3    3    0    0 -0.23254851789E+01  0.48922221123E+00 -0.13042247323E+01  0.27107604288E+01  0.51100000000E-03 0.  1.
        -12    1    3    3    0    0  0.20366508469E+02  0.37568762143E+01  0.33198342100E+01  0.20974510371E+02  0.00000000000E+00 0.  1.
</event>
<event>
 7    1  0.5913457E-013  0.5052887E+02  0.7816164E-02  0.1300439E+00
        -11   -1    0    0    0    0  0.00000000000E+00  0.00000000000E+00  0.45593999997E+02  0.45594000000E+02  0.51100000000E-03 0.  1.
         11   -1    0    0    0    0 -0.00000000000E+00 -0.00000000000E+00 -0.45593999997E+02  0.45594000000E+02  0.51100000000E-03 0. -1.
    9900012    2    1    2    0    0 -0.36906592628E+02 -0.41212607064E+01 -0.16555478668E+02  0.50528865194E+02  0.30000016245E+02 0.  0.
        -12    1    1    2    0    0  0.36906592628E+02  0.41212607064E+01  0.16555478668E+02  0.40659134806E+02  0.00000000000E+00 0.  1.
         11    1    3    3    0    0 -0.31432125550E+02 -0.62335579028E+01 -0.91391984968E+01  0.33322075418E+02  0.51100000000E-03 0. -1.
        -11    1    3    3    0    0 -0.10206612173E+02  0.30748258873E+01 -0.56529629581E+01  0.12065880687E+02  0.51100000000E-03 0.  1.
        -12    1    3    3    0    0  0.47321450946E+01 -0.96252869093E+00 -0.17633172129E+01  0.51409090899E+01  0.00000000000E+00 0.  1.
</event>
<event>
 7    1  0.5913457E-013  0.5052886E+02  0.7816164E-02  0.1300439E+00
        -11   -1    0    0    0    0  0.00000000000E+00  0.00000000000E+00  0.45593999997E+02  0.45594000000E+02  0.51100000000E-03 0. -1.
         11   -1    0    0    0    0 -0.00000000000E+00 -0.00000000000E+00 -0.45593999997E+02  0.45594000000E+02  0.51100000000E-03 0.  1.
    9900012    2    1    2    0    0  0.31326853459E+02 -0.26742914930E+01  0.25780658684E+02  0.50528856566E+02  0.29999990018E+02 0.  0.
        -12    1    1    2    0    0 -0.31326853459E+02  0.26742914930E+01 -0.25780658684E+02  0.40659143434E+02  0.00000000000E+00 0.  1.
         11    1    3    3    0    0 -0.40893620449E+01 -0.34513618347E+00 -0.21263559788E+00  0.41094056843E+01  0.51100000000E-03 0. -1.
        -11    1    3    3    0    0  0.51958184598E+01 -0.52627307515E+01  0.18377727226E+01  0.76203853755E+01  0.51100000000E-03 0.  1.
         12    1    3    3    0    0  0.30220397044E+02  0.29335754420E+01  0.24155521559E+02  0.38799065506E+02  0.00000000000E+00 0. -1.
</event>
<event>
 7    1  0.5913457E-013  0.5052886E+02  0.7816164E-02  0.1300439E+00
        -11   -1    0    0    0    0  0.00000000000E+00  0.00000000000E+00  0.45593999997E+02  0.45594000000E+02  0.51100000000E-03 0. -1.
         11   -1    0    0    0    0 -0.00000000000E+00 -0.00000000000E+00 -0.45593999997E+02  0.45594000000E+02  0.51100000000E-03 0.  1.
    9900012    2    1    2    0    0  0.23927962107E+02  0.20233656131E+02  0.25907864918E+02  0.50528859876E+02  0.30000000079E+02 0.  0.
        -12    1    1    2    0    0 -0.23927962107E+02 -0.20233656131E+02 -0.25907864918E+02  0.40659140124E+02  0.00000000000E+00 0.  1.
         11    1    3    3    0    0  0.88223602234E+01  0.98207559457E+01  0.42637626994E+01  0.13873029946E+02  0.51100000000E-03 0. -1.
        -11    1    3    3    0    0  0.11029049199E+02  0.14914290730E+02  0.54086456727E+01  0.19321734976E+02  0.51100000000E-03 0.  1.
         12    1    3    3    0    0  0.40765526840E+01 -0.45013905442E+01  0.16235456546E+02  0.17334094954E+02  0.00000000000E+00 0. -1.
</event>
<event>
 7    1  0.5913457E-013  0.5052886E+02  0.7816164E-02  0.1300439E+00
        -11   -1    0    0    0    0  0.00000000000E+00  0.00000000000E+00  0.45593999997E+02  0.45594000000E+02  0.51100000000E-03 0.  1.
         11   -1    0    0    0    0 -0.00000000000E+00 -0.00000000000E+00 -0.45593999997E+02  0.45594000000E+02  0.51100000000E-03 0. -1.
    9900012    2    1    2    0    0 -0.32269424898E+02  0.18563310631E+02 -0.16347897866E+02  0.50528855278E+02  0.29999986104E+02 0.  0.
        -12    1    1    2    0    0  0.32269424898E+02 -0.18563310631E+02  0.16347897866E+02  0.40659144722E+02  0.00000000000E+00 0.  1.
         11    1    3    3    0    0 -0.12808929564E+02 -0.29504228336E+01  0.53563121002E+00  0.13155248859E+02  0.51100000000E-03 0. -1.
        -11    1    3    3    0    0  0.12712663136E+01  0.71182067535E+01 -0.75751636654E+01  0.10472253351E+02  0.51100000000E-03 0.  1.
         12    1    3    3    0    0 -0.20731761648E+02  0.14395526711E+02 -0.93083654106E+01  0.26901353069E+02  0.00000000000E+00 0. -1.
</event>
<event>
 7    1  0.5913457E-013  0.5052886E+02  0.7816164E-02  0.1300439E+00
        -11   -1    0    0    0    0  0.00000000000E+00  0.00000000000E+00  0.45593999997E+02  0.45594000000E+02  0.51100000000E-03 0. -1.
         11   -1    0    0    0    0 -0.00000000000E+00 -0.00000000000E+00 -0.45593999997E+02  0.45594000000E+02  0.51100000000E-03 0.  1.
    9900012    2    1    2    0    0  0.10388078623E+02 -0.31176791311E+02 -0.23942867174E+02  0.50528863482E+02  0.30000011039E+02 0.  0.
        -12    1    1    2    0    0 -0.10388078623E+02  0.31176791311E+02  0.23942867174E+02  0.40659136518E+02  0.00000000000E+00 0.  1.
         11    1    3    3    0    0  0.31957735030E+01 -0.14336502143E+02 -0.22986068125E+02  0.27278335545E+02  0.51100000000E-03 0.  1.
        -11    1    3    3    0    0  0.58981654690E+01 -0.21459045579E+01 -0.49213780162E+01  0.79757898738E+01  0.51100000000E-03 0. -1.
         12    1    3    3    0    0  0.12941396515E+01 -0.14694384610E+02  0.39645789677E+01  0.15274738063E+02  0.00000000000E+00 0. -1.
</event>
<event>
 7    1  0.5913457E-013  0.5052886E+02  0.7816164E-02  0.1300439E+00
        -11   -1    0    0    0    0  0.00000000000E+00  0.00000000000E+00  0.45593999997E+02  0.45594000000E+02  0.51100000000E-03 0. -1.
         11   -1    0    0    0    0 -0.00000000000E+00 -0.00000000000E+00 -0.45593999997E+02  0.45594000000E+02  0.51100000000E-03 0.  1.
    9900012    2    1    2    0    0  0.30688230212E+02 -0.96085853102E+01 -0.24881180672E+02  0.50528861583E+02  0.30000005268E+02 0.  0.
        -12    1    1    2    0    0 -0.30688230212E+02  0.96085853102E+01  0.24881180672E+02  0.40659138417E+02  0.00000000000E+00 0.  1.
         11    1    3    3    0    0  0.55110062349E+01 -0.35095583816E+00  0.89707442669E+00  0.55945600818E+01  0.51100000000E-03 0. -1.
        -11    1    3    3    0    0  0.11379298052E+02 -0.45175424784E+01  0.30562999580E+01  0.12618937511E+02  0.51100000000E-03 0.  1.
        -12    1    3    3    0    0  0.13797925925E+02 -0.47400869937E+01 -0.28834555056E+02  0.32315363990E+02  0.00000000000E+00 0.  1.
</event>
<event>
 7    1  0.5913457E-013  0.5052887E+02  0.7816164E-02  0.1300439E+00
        -11   -1    0    0    0    0  0.00000000000E+00  0.00000000000E+00  0.45593999997E+02  0.45594000000E+02  0.51100000000E-03 0.  1.
         11   -1    0    0    0    0 -0.00000000000E+00 -0.00000000000E+00 -0.45593999997E+02  0.45594000000E+02  0.51100000000E-03 0. -1.
    9900012    2    1    2    0    0  0.13409013385E+02  0.19986105556E+02 -0.32770705334E+02  0.50528865930E+02  0.30000018480E+02 0.  0.
        -12    1    1    2    0    0 -0.13409013385E+02 -0.19986105556E+02  0.32770705334E+02  0.40659134070E+02  0.00000000000E+00 0.  1.
         11    1    3    3    0    0  0.10661350941E+02  0.39535370301E+01 -0.10365699359E+02  0.15386441512E+02  0.51100000000E-03 0. -1.
        -11    1    3    3    0    0  0.71827332212E+01 -0.27656038576E+01 -0.74891237782E+01  0.10739050072E+02  0.51100000000E-03 0.  1.
        -12    1    3    3    0    0 -0.44350707773E+01  0.18798172383E+02 -0.14915882197E+02  0.24403374346E+02  0.00000000000E+00 0.  1.
</event>
<event>
 7    1  0.5913457E-013  0.5052886E+02  0.7816164E-02  0.1300439E+00
        -11   -1    0    0    0    0  0.00000000000E+00  0.00000000000E+00  0.45593999997E+02  0.45594000000E+02  0.51100000000E-03 0.  1.
         11   -1    0    0    0    0 -0.00000000000E+00 -0.00000000000E+00 -0.45593999997E+02  0.45594000000E+02  0.51100000000E-03 0. -1.
    9900012    2    1    2    0    0 -0.29096622969E+02  0.22115183024E+02 -0.17817716334E+02  0.50528858300E+02  0.29999995289E+02 0.  0.
        -12    1    1    2    0    0  0.29096622969E+02 -0.22115183024E+02  0.17817716334E+02  0.40659141700E+02  0.00000000000E+00 0.  1.
         11    1    3    3    0    0 -0.44721045141E+01 -0.25744514331E+01 -0.14412491176E+01  0.53576784381E+01  0.51100000000E-03 0.  1.
        -11    1    3    3    0    0 -0.28573685045E+01  0.30684261803E+01  0.59130955836E+01  0.72487580755E+01  0.51100000000E-03 0. -1.
         12    1    3    3    0    0 -0.21767149950E+02  0.21621208277E+02 -0.22289562801E+02  0.37922421787E+02  0.00000000000E+00 0. -1.
</event>
<event>
 7    1  0.5913457E-013  0.5052886E+02  0.7816164E-02  0.1300439E+00
        -11   -1    0    0    0    0  0.00000000000E+00  0.00000000000E+00  0.45593999997E+02  0.45594000000E+02  0.51100000000E-03 0. -1.
         11   -1    0    0    0    0 -0.00000000000E+00 -0.00000000000E+00 -0.45593999997E+02  0.45594000000E+02  0.51100000000E-03 0.  1.
    9900012    2    1    2    0    0 -0.96296236281E+01  0.33465149004E+02  0.20988564796E+02  0.50528859561E+02  0.29999999121E+02 0.  0.
        -12    1    1    2    0    0  0.96296236281E+01 -0.33465149004E+02 -0.20988564796E+02  0.40659140439E+02  0.00000000000E+00 0.  1.
         11    1    3    3    0    0 -0.61087687429E+01  0.18467900149E+02  0.13316399503E+02  0.23573436056E+02  0.51100000000E-03 0. -1.
        -11    1    3    3    0    0 -0.29972099232E+01  0.20284977634E+02  0.56424671088E+01  0.21267369848E+02  0.51100000000E-03 0.  1.
         12    1    3    3    0    0 -0.52364496202E+00 -0.52877287790E+01  0.20296981836E+01  0.56880536568E+01  0.00000000000E+00 0. -1.
</event>
<event>
 7    1  0.5913457E-013  0.5052886E+02  0.7816164E-02  0.1300439E+00
        -11   -1    0    0    0    0  0.00000000000E+00  0.00000000000E+00  0.45593999997E+02  0.45594000000E+02  0.51100000000E-03 0.  1.
         11   -1    0    0    0    0 -0.00000000000E+00 -0.00000000000E+00 -0.45593999997E+02  0.45594000000E+02  0.51100000000E-03 0. -1.
    9900012    2    1    2    0    0  0.23498654016E+02 -0.25140670926E+01 -0.33085625665E+02  0.50528857122E+02  0.29999991709E+02 0.  0.
        -12    1    1    2    0    0 -0.23498654016E+02  0.25140670926E+01  0.33085625665E+02  0.40659142878E+02  0.00000000000E+00 0.  1.
         11    1    3    3    0    0 -0.10752571964E+01 -0.13720702528E+01 -0.58310984818E+00  0.18381436759E+01  0.51100000000E-03 0. -1.
        -11    1    3    3    0    0  0.84101104086E+00  0.49635453213E+01 -0.21045171863E+02  0.21638931137E+02  0.51100000000E-03 0.  1.
        -12    1    3    3    0    0  0.23732900172E+02 -0.61055421610E+01 -0.11457343953E+02  0.27051782309E+02  0.00000000000E+00 0.  1.
</event>
<event>
 7    1  0.5913457E-013  0.5052885E+02  0.7816164E-02  0.1300439E+00
        -11   -1    0    0    0    0  0.00000000000E+00  0.00000000000E+00  0.45593999997E+02  0.45594000000E+02  0.51100000000E-03 0.  1.
         11   -1    0    0    0    0 -0.00000000000E+00 -0.00000000000E+00 -0.45593999997E+02  0.45594000000E+02  0.51100000000E-03 0. -1.
    9900012    2    1    2    0    0  0.16315742850E+02  0.20978485929E+02 -0.30771183531E+02  0.50528854995E+02  0.29999985243E+02 0.  0.
        -12    1    1    2    0    0 -0.16315742850E+02 -0.20978485929E+02  0.30771183531E+02  0.40659145005E+02  0.00000000000E+00 0.  1.
         11    1    3    3    0    0  0.56929094101E+01  0.82911793014E+01 -0.14929818469E+02  0.18001454151E+02  0.51100000000E-03 0. -1.
        -11    1    3    3    0    0  0.15562435634E+02  0.10885842343E+02 -0.18605924422E+02  0.26587053056E+02  0.51100000000E-03 0.  1.
        -12    1    3    3    0    0 -0.49396021934E+01  0.18014642847E+01  0.27645593592E+01  0.59403477885E+01  0.00000000000E+00 0.  1.
</event>
<event>
 7    1  0.5913457E-013  0.5052883E+02  0.7816164E-02  0.1300439E+00
        -11   -1    0    0    0    0  0.00000000000E+00  0.00000000000E+00  0.45593999997E+02  0.45594000000E+02  0.51100000000E-03 0.  1.
         11   -1    0    0    0    0 -0.00000000000E+00 -0.00000000000E+00 -0.45593999997E+02  0.45594000000E+02  0.51100000000E-03 0. -1.
    9900012    2    1    2    0    0  0.24879827853E+02  0.24670187276E+02 -0.20628718140E+02  0.50528831460E+02  0.29999913707E+02 0.  0.
        -12    1    1    2    0    0 -0.24879827853E+02 -0.24670187276E+02  0.20628718140E+02  0.40659168540E+02  0.00000000000E+00 0.  1.
         11    1    3    3    0    0  0.24347978173E+02  0.11591908380E+02 -0.14014840648E+02  0.30390987803E+02  0.51100000000E-03 0. -1.
        -11    1    3    3    0    0  0.60957321160E+01  0.37503805562E+01  0.46705763456E+00  0.71722693369E+01  0.51100000000E-03 0.  1.
        -12    1    3    3    0    0 -0.55638824358E+01  0.93278983395E+01 -0.70809351266E+01  0.12965574320E+02  0.00000000000E+00 0.  1.
</event>
<event>
 7    1  0.5913457E-013  0.5052885E+02  0.7816164E-02  0.1300439E+00
        -11   -1    0    0    0    0  0.00000000000E+00  0.00000000000E+00  0.45593999997E+02  0.45594000000E+02  0.51100000000E-03 0.  1.
         11   -1    0    0    0    0 -0.00000000000E+00 -0.00000000000E+00 -0.45593999997E+02  0.45594000000E+02  0.51100000000E-03 0. -1.
    9900012    2    1    2    0    0  0.32727351337E+01 -0.36250320534E+02 -0.18120982891E+02  0.50528849061E+02  0.29999967207E+02 0.  0.
        -12    1    1    2    0    0 -0.32727351337E+01  0.36250320534E+02  0.18120982891E+02  0.40659150939E+02  0.00000000000E+00 0.  1.
         11    1    3    3    0    0 -0.77685217409E+01 -0.10912810200E+02 -0.92047786407E+01  0.16253224498E+02  0.51100000000E-03 0. -1.
        -11    1    3    3    0    0 -0.37152096001E+01 -0.16847731839E+01  0.17334088106E+01  0.44323751443E+01  0.51100000000E-03 0.  1.
        -12    1    3    3    0    0  0.14756466475E+02 -0.23652737150E+02 -0.10649613061E+02  0.29843249419E+02  0.00000000000E+00 0.  1.
</event>
<event>
 7    1  0.5913457E-013  0.5052888E+02  0.7816164E-02  0.1300439E+00
        -11   -1    0    0    0    0  0.00000000000E+00  0.00000000000E+00  0.45593999997E+02  0.45594000000E+02  0.51100000000E-03 0.  1.
         11   -1    0    0    0    0 -0.00000000000E+00 -0.00000000000E+00 -0.45593999997E+02  0.45594000000E+02  0.51100000000E-03 0. -1.
    9900012    2    1    2    0    0  0.96631719588E+01 -0.27206739819E+01 -0.39400319625E+02  0.50528878689E+02  0.30000057263E+02 0.  0.
        -12    1    1    2    0    0 -0.96631719588E+01  0.27206739819E+01  0.39400319625E+02  0.40659121311E+02  0.00000000000E+00 0.  1.
         11    1    3    3    0    0  0.24414691846E+01  0.10350562582E+02 -0.18312629109E+02  0.21176574385E+02  0.51100000000E-03 0. -1.
        -11    1    3    3    0    0 -0.73514594373E-01 -0.25791650248E+01  0.17949656379E+01  0.31431510500E+01  0.51100000000E-03 0.  1.
        -12    1    3    3    0    0  0.72952173686E+01 -0.10492071539E+02 -0.22882656154E+02  0.26209153254E+02  0.00000000000E+00 0.  1.
</event>
<event>
 7    1  0.5913457E-013  0.5052887E+02  0.7816164E-02  0.1300439E+00
        -11   -1    0    0    0    0  0.00000000000E+00  0.00000000000E+00  0.45593999997E+02  0.45594000000E+02  0.51100000000E-03 0.  1.
         11   -1    0    0    0    0 -0.00000000000E+00 -0.00000000000E+00 -0.45593999997E+02  0.45594000000E+02  0.51100000000E-03 0. -1.
    9900012    2    1    2    0    0 -0.37416494822E+02  0.15761687327E+02 -0.21772256587E+01  0.50528865925E+02  0.30000018467E+02 0.  0.
        -12    1    1    2    0    0  0.37416494822E+02 -0.15761687327E+02  0.21772256587E+01  0.40659134075E+02  0.00000000000E+00 0.  1.
         11    1    3    3    0    0 -0.20667524604E+02  0.14253432085E+02  0.99061509534E+01  0.26989604043E+02  0.51100000000E-03 0.  1.
        -11    1    3    3    0    0 -0.12578702350E+02 -0.30683510998E+01 -0.44068778644E+01  0.13676955219E+02  0.51100000000E-03 0. -1.
        -12    1    3    3    0    0 -0.41702678681E+01  0.45766063418E+01 -0.76764987477E+01  0.98623066634E+01  0.00000000000E+00 0.  1.
</event>
<event>
 7    1  0.5913457E-013  0.5052900E+02  0.7816164E-02  0.1300438E+00
        -11   -1    0    0    0    0  0.00000000000E+00  0.00000000000E+00  0.45593999997E+02  0.45594000000E+02  0.51100000000E-03 0.  1.
         11   -1    0    0    0    0 -0.00000000000E+00 -0.00000000000E+00 -0.45593999997E+02  0.45594000000E+02  0.51100000000E-03 0. -1.
    9900012    2    1    2    0    0  0.12168091831E+02 -0.34491512586E+02 -0.17760280724E+02  0.50528997668E+02  0.30000418908E+02 0.  0.
        -12    1    1    2    0    0 -0.12168091831E+02  0.34491512586E+02  0.17760280724E+02  0.40659002332E+02  0.00000000000E+00 0.  1.
         11    1    3    3    0    0  0.26546195920E+01 -0.49528670422E+00  0.18284324274E+01  0.32612082884E+01  0.51100000000E-03 0. -1.
        -11    1    3    3    0    0 -0.33260755285E-01 -0.19950841464E+02  0.17137026322E+01  0.20024334156E+02  0.51100000000E-03 0.  1.
         12    1    3    3    0    0  0.95467329944E+01 -0.14045384417E+02 -0.21302415784E+02  0.27243455223E+02  0.00000000000E+00 0. -1.
</event>
<event>
 7    1  0.5913457E-013  0.5052887E+02  0.7816164E-02  0.1300439E+00
        -11   -1    0    0    0    0  0.00000000000E+00  0.00000000000E+00  0.45593999997E+02  0.45594000000E+02  0.51100000000E-03 0. -1.
         11   -1    0    0    0    0 -0.00000000000E+00 -0.00000000000E+00 -0.45593999997E+02  0.45594000000E+02  0.51100000000E-03 0.  1.
    9900012    2    1    2    0    0  0.16894179339E+02  0.21096603469E+02  0.30375728927E+02  0.50528869644E+02  0.30000029770E+02 0.  0.
        -12    1    1    2    0    0 -0.16894179339E+02 -0.21096603469E+02 -0.30375728927E+02  0.40659130356E+02  0.00000000000E+00 0.  1.
         11    1    3    3    0    0  0.14576126794E+01  0.33707276902E+00  0.61737658655E+01  0.63524513377E+01  0.51100000000E-03 0. -1.
        -11    1    3    3    0    0  0.32254317475E+01  0.21624984679E+02  0.67948365102E+01  0.22895702124E+02  0.51100000000E-03 0.  1.
         12    1    3    3    0    0  0.12211134912E+02 -0.86545397903E+00  0.17407126552E+02  0.21280716182E+02  0.00000000000E+00 0. -1.
</event>
<event>
 7    1  0.5913457E-013  0.5052885E+02  0.7816164E-02  0.1300439E+00
        -11   -1    0    0    0    0  0.00000000000E+00  0.00000000000E+00  0.45593999997E+02  0.45594000000E+02  0.51100000000E-03 0.  1.
         11   -1    0    0    0    0 -0.00000000000E+00 -0.00000000000E+00 -0.45593999997E+02  0.45594000000E+02  0.51100000000E-03 0. -1.
    9900012    2    1    2    0    0 -0.16478103502E+02 -0.32639140248E+02 -0.17785523779E+02  0.50528853093E+02  0.29999979461E+02 0.  0.
        -12    1    1    2    0    0  0.16478103502E+02  0.32639140248E+02  0.17785523779E+02  0.40659146907E+02  0.00000000000E+00 0.  1.
         11    1    3    3    0    0  0.12114062862E+01  0.24942934307E+01 -0.64758677626E+01  0.70445630418E+01  0.51100000000E-03 0. -1.
        -11    1    3    3    0    0 -0.18719612114E+01 -0.33068953822E+01 -0.66236291929E+01  0.76362464465E+01  0.51100000000E-03 0.  1.
        -12    1    3    3    0    0 -0.15817548577E+02 -0.31826538296E+02 -0.46860268230E+01  0.35848043605E+02  0.00000000000E+00 0.  1.
</event>
<event>
 7    1  0.5913457E-013  0.5052885E+02  0.7816164E-02  0.1300439E+00
        -11   -1    0    0    0    0  0.00000000000E+00  0.00000000000E+00  0.45593999997E+02  0.45594000000E+02  0.51100000000E-03 0.  1.
         11   -1    0    0    0    0 -0.00000000000E+00 -0.00000000000E+00 -0.45593999997E+02  0.45594000000E+02  0.51100000000E-03 0. -1.
    9900012    2    1    2    0    0 -0.33904541347E+01 -0.40509888321E+02 -0.78746868458E+00  0.50528851731E+02  0.29999975321E+02 0.  0.
        -12    1    1    2    0    0  0.33904541347E+01  0.40509888321E+02  0.78746868458E+00  0.40659148269E+02  0.00000000000E+00 0.  1.
         11    1    3    3    0    0 -0.90956027554E+01 -0.34140694220E+02 -0.99056054874E+01  0.36693841604E+02  0.51100000000E-03 0. -1.
        -11    1    3    3    0    0 -0.10390263327E+01 -0.19171178737E+01  0.10665800197E+01  0.24274492500E+01  0.51100000000E-03 0.  1.
         12    1    3    3    0    0  0.67441749534E+01 -0.44520762278E+01  0.80515567830E+01  0.11407560877E+02  0.00000000000E+00 0. -1.
</event>
<event>
 7    1  0.5913457E-013  0.5052886E+02  0.7816164E-02  0.1300439E+00
        -11   -1    0    0    0    0  0.00000000000E+00  0.00000000000E+00  0.45593999997E+02  0.45594000000E+02  0.51100000000E-03 0. -1.
         11   -1    0    0    0    0 -0.00000000000E+00 -0.00000000000E+00 -0.45593999997E+02  0.45594000000E+02  0.51100000000E-03 0.  1.
    9900012    2    1    2    0    0  0.29632902073E+02  0.23735106930E+02 -0.14549960540E+02  0.50528861569E+02  0.30000005224E+02 0.  0.
        -12    1    1    2    0    0 -0.29632902073E+02 -0.23735106930E+02  0.14549960540E+02  0.40659138431E+02  0.00000000000E+00 0.  1.
         11    1    3    3    0    0  0.79611632062E+01  0.88399686798E+00 -0.11611910168E+01  0.80938207848E+01  0.51100000000E-03 0. -1.
        -11    1    3    3    0    0  0.99945755926E+01  0.71286307588E+01  0.70263765485E+01  0.14144924370E+02  0.51100000000E-03 0.  1.
        -12    1    3    3    0    0  0.11677163274E+02  0.15722479304E+02 -0.20415146072E+02  0.28290116414E+02  0.00000000000E+00 0.  1.
</event>
<event>
 7    1  0.5913457E-013  0.5052887E+02  0.7816164E-02  0.1300439E+00
        -11   -1    0    0    0    0  0.00000000000E+00  0.00000000000E+00  0.45593999997E+02  0.45594000000E+02  0.51100000000E-03 0.  1.
         11   -1    0    0    0    0 -0.00000000000E+00 -0.00000000000E+00 -0.45593999997E+02  0.45594000000E+02  0.51100000000E-03 0. -1.
    9900012    2    1    2    0    0 -0.14128205946E+02  0.96373978871E+01 -0.36887390192E+02  0.50528865768E+02  0.30000017988E+02 0.  0.
        -12    1    1    2    0    0  0.14128205946E+02 -0.96373978871E+01  0.36887390192E+02  0.40659134232E+02  0.00000000000E+00 0.  1.
         11    1    3    3    0    0 -0.29620628466E+01  0.51739065792E+01 -0.47476938717E+01  0.76212678051E+01  0.51100000000E-03 0. -1.
        -11    1    3    3    0    0 -0.83128882639E+01  0.71140246140E+01 -0.41968124317E+00  0.10949410491E+02  0.51100000000E-03 0.  1.
         12    1    3    3    0    0 -0.28532548359E+01 -0.26505333061E+01 -0.31720015077E+02  0.31958187472E+02  0.00000000000E+00 0. -1.
</event>
<event>
 7    1  0.5913457E-013  0.5052886E+02  0.7816164E-02  0.1300439E+00
        -11   -1    0    0    0    0  0.00000000000E+00  0.00000000000E+00  0.45593999997E+02  0.45594000000E+02  0.51100000000E-03 0.  1.
         11   -1    0    0    0    0 -0.00000000000E+00 -0.00000000000E+00 -0.45593999997E+02  0.45594000000E+02  0.51100000000E-03 0. -1.
    9900012    2    1    2    0    0 -0.18722922303E+02 -0.12013315386E+02 -0.34033778651E+02  0.50528860124E+02  0.30000000834E+02 0.  0.
        -12    1    1    2    0    0  0.18722922303E+02  0.12013315386E+02  0.34033778651E+02  0.40659139876E+02  0.00000000000E+00 0.  1.
         11    1    3    3    0    0 -0.99396123257E+01 -0.68771339818E+01 -0.92049440101E+01  0.15192822630E+02  0.51100000000E-03 0. -1.
        -11    1    3    3    0    0 -0.68016936645E+01  0.80378810757E+01 -0.55519476457E+01  0.11903557948E+02  0.51100000000E-03 0.  1.
         12    1    3    3    0    0 -0.19816163130E+01 -0.13174062480E+02 -0.19276886995E+02  0.23432479546E+02  0.00000000000E+00 0. -1.
</event>
<event>
 7    1  0.5913457E-013  0.5052887E+02  0.7816164E-02  0.1300439E+00
        -11   -1    0    0    0    0  0.00000000000E+00  0.00000000000E+00  0.45593999997E+02  0.45594000000E+02  0.51100000000E-03 0.  1.
         11   -1    0    0    0    0 -0.00000000000E+00 -0.00000000000E+00 -0.45593999997E+02  0.45594000000E+02  0.51100000000E-03 0. -1.
    9900012    2    1    2    0    0  0.10746596763E+02 -0.13141074877E+01 -0.39191177468E+02  0.50528872958E+02  0.30000039844E+02 0.  0.
        -12    1    1    2    0    0 -0.10746596763E+02  0.13141074877E+01  0.39191177468E+02  0.40659127042E+02  0.00000000000E+00 0.  1.
         11    1    3    3    0    0 -0.42572196211E+01  0.24716738167E+00 -0.17826967173E+00  0.42681132780E+01  0.51100000000E-03 0. -1.
        -11    1    3    3    0    0  0.11081233075E+01  0.21773639212E+01  0.17678621015E+01  0.30156570728E+01  0.51100000000E-03 0.  1.
         12    1    3    3    0    0  0.13895693076E+02 -0.37386387905E+01 -0.40780769898E+02  0.43245102607E+02  0.00000000000E+00 0. -1.
</event>
<event>
 7    1  0.5913457E-013  0.5052886E+02  0.7816164E-02  0.1300439E+00
        -11   -1    0    0    0    0  0.00000000000E+00  0.00000000000E+00  0.45593999997E+02  0.45594000000E+02  0.51100000000E-03 0. -1.
         11   -1    0    0    0    0 -0.00000000000E+00 -0.00000000000E+00 -0.45593999997E+02  0.45594000000E+02  0.51100000000E-03 0.  1.
    9900012    2    1    2    0    0  0.32821513305E+02 -0.18830901304E+02  0.14876517611E+02  0.50528863810E+02  0.30000012036E+02 0.  0.
        -12    1    1    2    0    0 -0.32821513305E+02  0.18830901304E+02 -0.14876517611E+02  0.40659136190E+02  0.00000000000E+00 0.  1.
         11    1    3    3    0    0  0.46268478060E+01  0.26734741626E+01  0.30720324532E+01  0.61638111890E+01  0.51100000000E-03 0. -1.
        -11    1    3    3    0    0 -0.15507340554E+01  0.23168273667E+01 -0.24168777564E+01  0.36896833886E+01  0.51100000000E-03 0.  1.
        -12    1    3    3    0    0  0.29745399554E+02 -0.23821202833E+02  0.14221362914E+02  0.40675369232E+02  0.00000000000E+00 0.  1.
</event>
<event>
 7    1  0.5913457E-013  0.5052886E+02  0.7816164E-02  0.1300439E+00
        -11   -1    0    0    0    0  0.00000000000E+00  0.00000000000E+00  0.45593999997E+02  0.45594000000E+02  0.51100000000E-03 0. -1.
         11   -1    0    0    0    0 -0.00000000000E+00 -0.00000000000E+00 -0.45593999997E+02  0.45594000000E+02  0.51100000000E-03 0.  1.
    9900012    2    1    2    0    0  0.33509415178E+02  0.18901981943E+02  0.13152927249E+02  0.50528864222E+02  0.30000013289E+02 0.  0.
        -12    1    1    2    0    0 -0.33509415178E+02 -0.18901981943E+02 -0.13152927249E+02  0.40659135778E+02  0.00000000000E+00 0.  1.
         11    1    3    3    0    0  0.80668771867E+01 -0.54258026925E+01  0.25952336324E+01  0.10062260197E+02  0.51100000000E-03 0. -1.
        -11    1    3    3    0    0  0.86754678216E+01  0.54492774470E+01 -0.43661730267E+01  0.11136509048E+02  0.51100000000E-03 0.  1.
         12    1    3    3    0    0  0.16767070170E+02  0.18878507189E+02  0.14923866644E+02  0.29330094977E+02  0.00000000000E+00 0. -1.
</event>
<event>
 7    1  0.5913457E-013  0.5052886E+02  0.7816164E-02  0.1300439E+00
        -11   -1    0    0    0    0  0.00000000000E+00  0.00000000000E+00  0.45593999997E+02  0.45594000000E+02  0.51100000000E-03 0. -1.
         11   -1    0    0    0    0 -0.00000000000E+00 -0.00000000000E+00 -0.45593999997E+02  0.45594000000E+02  0.51100000000E-03 0.  1.
    9900012    2    1    2    0    0  0.13061462764E+02 -0.22415603574E+02  0.31306617247E+02  0.50528863554E+02  0.30000011258E+02 0.  0.
        -12    1    1    2    0    0 -0.13061462764E+02  0.22415603574E+02 -0.31306617247E+02  0.40659136446E+02  0.00000000000E+00 0.  1.
         11    1    3    3    0    0  0.41525223234E+01 -0.17931504814E+02  0.18413885482E+02  0.26035619550E+02  0.51100000000E-03 0. -1.
        -11    1    3    3    0    0  0.11181573980E+02 -0.37537572643E+01  0.42864439767E+00  0.11802627951E+02  0.51100000000E-03 0.  1.
         12    1    3    3    0    0 -0.22726335401E+01 -0.73034149593E+00  0.12464087367E+02  0.12690616053E+02  0.00000000000E+00 0. -1.
</event>
<event>
 7    1  0.5913457E-013  0.5052885E+02  0.7816164E-02  0.1300439E+00
        -11   -1    0    0    0    0  0.00000000000E+00  0.00000000000E+00  0.45593999997E+02  0.45594000000E+02  0.51100000000E-03 0.  1.
         11   -1    0    0    0    0 -0.00000000000E+00 -0.00000000000E+00 -0.45593999997E+02  0.45594000000E+02  0.51100000000E-03 0. -1.
    9900012    2    1    2    0    0 -0.81978570493E+01  0.15674422176E+02 -0.36609751885E+02  0.50528852151E+02  0.29999976597E+02 0.  0.
        -12    1    1    2    0    0  0.81978570493E+01 -0.15674422176E+02  0.36609751885E+02  0.40659147849E+02  0.00000000000E+00 0.  1.
         11    1    3    3    0    0 -0.15959323108E+02  0.10603619649E+02 -0.11151352651E+02  0.22169560437E+02  0.51100000000E-03 0. -1.
        -11    1    3    3    0    0  0.11234094577E+01  0.34002523214E+01 -0.24113352973E+01  0.43172100755E+01  0.51100000000E-03 0.  1.
         12    1    3    3    0    0  0.66380566012E+01  0.16705502062E+01 -0.23047063936E+02  0.24042081639E+02  0.00000000000E+00 0. -1.
</event>
<event>
 7    1  0.5913457E-013  0.5052882E+02  0.7816164E-02  0.1300439E+00
        -11   -1    0    0    0    0  0.00000000000E+00  0.00000000000E+00  0.45593999997E+02  0.45594000000E+02  0.51100000000E-03 0.  1.
         11   -1    0    0    0    0 -0.00000000000E+00 -0.00000000000E+00 -0.45593999997E+02  0.45594000000E+02  0.51100000000E-03 0. -1.
    9900012    2    1    2    0    0 -0.37381878515E+02 -0.31538099919E+01 -0.15678560647E+02  0.50528823634E+02  0.29999889918E+02 0.  0.
        -12    1    1    2    0    0  0.37381878515E+02  0.31538099919E+01  0.15678560647E+02  0.40659176366E+02  0.00000000000E+00 0.  1.
         11    1    3    3    0    0 -0.18863583219E+02  0.54959213914E+01 -0.86227816072E+01  0.21456753871E+02  0.51100000000E-03 0. -1.
        -11    1    3    3    0    0 -0.77149569982E+01  0.59068351416E+01 -0.46953491604E+01  0.10791550717E+02  0.51100000000E-03 0.  1.
        -12    1    3    3    0    0 -0.10803338298E+02 -0.14556566525E+02 -0.23604298792E+01  0.18280519046E+02  0.00000000000E+00 0.  1.
</event>
<event>
 7    1  0.5913457E-013  0.5052886E+02  0.7816164E-02  0.1300439E+00
        -11   -1    0    0    0    0  0.00000000000E+00  0.00000000000E+00  0.45593999997E+02  0.45594000000E+02  0.51100000000E-03 0. -1.
         11   -1    0    0    0    0 -0.00000000000E+00 -0.00000000000E+00 -0.45593999997E+02  0.45594000000E+02  0.51100000000E-03 0.  1.
    9900012    2    1    2    0    0 -0.35591743036E+02  0.47040049381E+01  0.19085751514E+02  0.50528859015E+02  0.29999997460E+02 0.  0.
        -12    1    1    2    0    0  0.35591743036E+02 -0.47040049381E+01 -0.19085751514E+02  0.40659140985E+02  0.00000000000E+00 0.  1.
         11    1    3    3    0    0 -0.67282505558E+01  0.78440178281E+01  0.31849738923E+01  0.10813973839E+02  0.51100000000E-03 0. -1.
        -11    1    3    3    0    0 -0.28619249895E+02  0.42476301727E+01  0.11666624497E+02  0.31196377258E+02  0.51100000000E-03 0.  1.
        -12    1    3    3    0    0 -0.24424258607E+00 -0.73876430626E+01  0.42341531248E+01  0.85185079178E+01  0.00000000000E+00 0.  1.
</event>
<event>
 7    1  0.5913457E-013  0.5052885E+02  0.7816164E-02  0.1300439E+00
        -11   -1    0    0    0    0  0.00000000000E+00  0.00000000000E+00  0.45593999997E+02  0.45594000000E+02  0.51100000000E-03 0. -1.
         11   -1    0    0    0    0 -0.00000000000E+00 -0.00000000000E+00 -0.45593999997E+02  0.45594000000E+02  0.51100000000E-03 0.  1.
    9900012    2    1    2    0    0 -0.24807139598E+02  0.29488772514E+02  0.12968596566E+02  0.50528851259E+02  0.29999973887E+02 0.  0.
        -12    1    1    2    0    0  0.24807139598E+02 -0.29488772514E+02 -0.12968596566E+02  0.40659148741E+02  0.00000000000E+00 0.  1.
         11    1    3    3    0    0 -0.11559899093E+02  0.14432924798E+02  0.16658713479E+02  0.24888819182E+02  0.51100000000E-03 0. -1.
        -11    1    3    3    0    0 -0.80232565689E+01  0.67509353700E+01  0.58060778422E+01  0.11985754649E+02  0.51100000000E-03 0.  1.
        -12    1    3    3    0    0 -0.52239839363E+01  0.83049123461E+01 -0.94961947549E+01  0.13654277427E+02  0.00000000000E+00 0.  1.
</event>
<event>
 7    1  0.5913457E-013  0.5052885E+02  0.7816164E-02  0.1300439E+00
        -11   -1    0    0    0    0  0.00000000000E+00  0.00000000000E+00  0.45593999997E+02  0.45594000000E+02  0.51100000000E-03 0.  1.
         11   -1    0    0    0    0 -0.00000000000E+00 -0.00000000000E+00 -0.45593999997E+02  0.45594000000E+02  0.51100000000E-03 0. -1.
    9900012    2    1    2    0    0 -0.28953669770E+00  0.38612073850E+02 -0.12735396702E+02  0.50528850874E+02  0.29999972718E+02 0.  0.
        -12    1    1    2    0    0  0.28953669770E+00 -0.38612073850E+02  0.12735396702E+02  0.40659149126E+02  0.00000000000E+00 0.  1.
         11    1    3    3    0    0  0.11665818183E+01  0.26875143659E+02 -0.18539575808E+02  0.32670324933E+02  0.51100000000E-03 0. -1.
        -11    1    3    3    0    0  0.29645704029E+00 -0.28117218880E+00 -0.28921743810E+01  0.29208932688E+01  0.51100000000E-03 0.  1.
         12    1    3    3    0    0 -0.17525755563E+01  0.12018102380E+02  0.86963534871E+01  0.14937632673E+02  0.00000000000E+00 0. -1.
</event>
<event>
 7    1  0.5913457E-013  0.5052882E+02  0.7816164E-02  0.1300439E+00
        -11   -1    0    0    0    0  0.00000000000E+00  0.00000000000E+00  0.45593999997E+02  0.45594000000E+02  0.51100000000E-03 0. -1.
         11   -1    0    0    0    0 -0.00000000000E+00 -0.00000000000E+00 -0.45593999997E+02  0.45594000000E+02  0.51100000000E-03 0.  1.
    9900012    2    1    2    0    0 -0.10053240512E+02  0.94604767822E+01  0.38243961371E+02  0.50528820876E+02  0.29999881534E+02 0.  0.
        -12    1    1    2    0    0  0.10053240512E+02 -0.94604767822E+01 -0.38243961371E+02  0.40659179124E+02  0.00000000000E+00 0.  1.
         11    1    3    3    0    0 -0.67208094655E+01 -0.13268204754E+01  0.64006246591E+01  0.93753788581E+01  0.51100000000E-03 0. -1.
        -11    1    3    3    0    0 -0.10708470832E+02  0.10112688676E+01  0.54516216026E+01  0.12058780645E+02  0.51100000000E-03 0.  1.
         12    1    3    3    0    0  0.73760397853E+01  0.97760283900E+01  0.26391715109E+02  0.29094661372E+02  0.00000000000E+00 0. -1.
</event>
<event>
 7    1  0.5913457E-013  0.5052887E+02  0.7816164E-02  0.1300439E+00
        -11   -1    0    0    0    0  0.00000000000E+00  0.00000000000E+00  0.45593999997E+02  0.45594000000E+02  0.51100000000E-03 0.  1.
         11   -1    0    0    0    0 -0.00000000000E+00 -0.00000000000E+00 -0.45593999997E+02  0.45594000000E+02  0.51100000000E-03 0. -1.
    9900012    2    1    2    0    0 -0.15840109563E+01 -0.44949696592E+01 -0.40378839910E+02  0.50528873652E+02  0.30000041952E+02 0.  0.
        -12    1    1    2    0    0  0.15840109563E+01  0.44949696592E+01  0.40378839910E+02  0.40659126348E+02  0.00000000000E+00 0.  1.
         11    1    3    3    0    0  0.22094076812E+00 -0.79172126883E+01 -0.17205503895E+02  0.18940972417E+02  0.51100000000E-03 0. -1.
        -11    1    3    3    0    0  0.68474141256E+01  0.55154344519E+01 -0.20479700890E+02  0.22287333762E+02  0.51100000000E-03 0.  1.
        -12    1    3    3    0    0 -0.86523658501E+01 -0.20931914229E+01 -0.26936351249E+01  0.93005674731E+01  0.00000000000E+00 0.  1.
</event>
<event>
 7    1  0.5913457E-013  0.5052887E+02  0.7816164E-02  0.1300439E+00
        -11   -1    0    0    0    0  0.00000000000E+00  0.00000000000E+00  0.45593999997E+02  0.45594000000E+02  0.51100000000E-03 0.  1.
         11   -1    0    0    0    0 -0.00000000000E+00 -0.00000000000E+00 -0.45593999997E+02  0.45594000000E+02  0.51100000000E-03 0. -1.
    9900012    2    1    2    0    0 -0.31942813922E+02 -0.22322933037E+02 -0.11597781192E+02  0.50528865365E+02  0.30000016765E+02 0.  0.
        -12    1    1    2    0    0  0.31942813922E+02  0.22322933037E+02  0.11597781192E+02  0.40659134635E+02  0.00000000000E+00 0.  1.
         11    1    3    3    0    0 -0.18005011369E+02 -0.11139013395E+02 -0.78156538560E+01  0.22568617575E+02  0.51100000000E-03 0. -1.
        -11    1    3    3    0    0  0.18099190116E+01 -0.11249844308E+02 -0.43640797077E+01  0.12201639060E+02  0.51100000000E-03 0.  1.
         12    1    3    3    0    0 -0.15747721565E+02  0.65924666056E-01  0.58195237211E+00  0.15758608731E+02  0.00000000000E+00 0. -1.
</event>
<event>
 7    1  0.5913457E-013  0.5052886E+02  0.7816164E-02  0.1300439E+00
        -11   -1    0    0    0    0  0.00000000000E+00  0.00000000000E+00  0.45593999997E+02  0.45594000000E+02  0.51100000000E-03 0.  1.
         11   -1    0    0    0    0 -0.00000000000E+00 -0.00000000000E+00 -0.45593999997E+02  0.45594000000E+02  0.51100000000E-03 0. -1.
    9900012    2    1    2    0    0  0.10109459355E+02  0.38686651222E+02  0.73693635581E+01  0.50528859940E+02  0.30000000272E+02 0.  0.
        -12    1    1    2    0    0 -0.10109459355E+02 -0.38686651222E+02 -0.73693635581E+01  0.40659140060E+02  0.00000000000E+00 0.  1.
         11    1    3    3    0    0  0.12216731606E+02  0.11084824731E+02  0.18699835003E+01  0.16601768250E+02  0.51100000000E-03 0. -1.
        -11    1    3    3    0    0 -0.33753266786E+01 -0.15617155397E+01  0.27126321094E+01  0.46032769671E+01  0.51100000000E-03 0.  1.
         12    1    3    3    0    0  0.12680544274E+01  0.29163542030E+02  0.27867479484E+01  0.29323814723E+02  0.00000000000E+00 0. -1.
</event>
<event>
 7    1  0.5913457E-013  0.5052886E+02  0.7816164E-02  0.1300439E+00
        -11   -1    0    0    0    0  0.00000000000E+00  0.00000000000E+00  0.45593999997E+02  0.45594000000E+02  0.51100000000E-03 0. -1.
         11   -1    0    0    0    0 -0.00000000000E+00 -0.00000000000E+00 -0.45593999997E+02  0.45594000000E+02  0.51100000000E-03 0.  1.
    9900012    2    1    2    0    0  0.33560808562E+02  0.12910543772E+01 -0.22916607774E+02  0.50528860749E+02  0.30000002733E+02 0.  0.
        -12    1    1    2    0    0 -0.33560808562E+02 -0.12910543772E+01  0.22916607774E+02  0.40659139251E+02  0.00000000000E+00 0.  1.
         11    1    3    3    0    0  0.68685541304E+01 -0.55201750267E+01  0.14521001215E+00  0.88130842715E+01  0.51100000000E-03 0. -1.
        -11    1    3    3    0    0  0.13856809732E+02  0.10890085490E+02 -0.35034025679E+01  0.17968833233E+02  0.51100000000E-03 0.  1.
        -12    1    3    3    0    0  0.12835444700E+02 -0.40788560865E+01 -0.19558415218E+02  0.23746943245E+02  0.00000000000E+00 0.  1.
</event>
<event>
 7    1  0.5913457E-013  0.5052886E+02  0.7816164E-02  0.1300439E+00
        -11   -1    0    0    0    0  0.00000000000E+00  0.00000000000E+00  0.45593999997E+02  0.45594000000E+02  0.51100000000E-03 0.  1.
         11   -1    0    0    0    0 -0.00000000000E+00 -0.00000000000E+00 -0.45593999997E+02  0.45594000000E+02  0.51100000000E-03 0. -1.
    9900012    2    1    2    0    0  0.37911063321E+02 -0.11923974386E+02 -0.85869675997E+01  0.50528857118E+02  0.29999991696E+02 0.  0.
        -12    1    1    2    0    0 -0.37911063321E+02  0.11923974386E+02  0.85869675997E+01  0.40659142882E+02  0.00000000000E+00 0.  1.
         11    1    3    3    0    0  0.18818354145E+02 -0.91544670084E+01 -0.58075386397E+01  0.21717785896E+02  0.51100000000E-03 0. -1.
        -11    1    3    3    0    0  0.13163410792E+02 -0.54374264278E+01 -0.11238213066E+02  0.18142172500E+02  0.51100000000E-03 0.  1.
         12    1    3    3    0    0  0.59292983844E+01  0.26679190501E+01  0.84587841059E+01  0.10668898722E+02  0.00000000000E+00 0. -1.
</event>
<event>
 7    1  0.5913457E-013  0.5052886E+02  0.7816164E-02  0.1300439E+00
        -11   -1    0    0    0    0  0.00000000000E+00  0.00000000000E+00  0.45593999997E+02  0.45594000000E+02  0.51100000000E-03 0.  1.
         11   -1    0    0    0    0 -0.00000000000E+00 -0.00000000000E+00 -0.45593999997E+02  0.45594000000E+02  0.51100000000E-03 0. -1.
    9900012    2    1    2    0    0 -0.24777253675E+02  0.22962360796E+02 -0.22627049927E+02  0.50528859559E+02  0.29999999115E+02 0.  0.
        -12    1    1    2    0    0  0.24777253675E+02 -0.22962360796E+02  0.22627049927E+02  0.40659140441E+02  0.00000000000E+00 0.  1.
         11    1    3    3    0    0 -0.65085986223E-01  0.98022024620E+01 -0.13997278501E+02  0.17088335641E+02  0.51100000000E-03 0.  1.
        -11    1    3    3    0    0 -0.15212829992E+01  0.19369506019E+01 -0.72307290600E+01  0.76386859209E+01  0.51100000000E-03 0. -1.
        -12    1    3    3    0    0 -0.23190884689E+02  0.11223207732E+02 -0.13990423667E+01  0.25801837997E+02  0.00000000000E+00 0.  1.
</event>
<event>
 7    1  0.5913457E-013  0.5052886E+02  0.7816164E-02  0.1300439E+00
        -11   -1    0    0    0    0  0.00000000000E+00  0.00000000000E+00  0.45593999997E+02  0.45594000000E+02  0.51100000000E-03 0.  1.
         11   -1    0    0    0    0 -0.00000000000E+00 -0.00000000000E+00 -0.45593999997E+02  0.45594000000E+02  0.51100000000E-03 0. -1.
    9900012    2    1    2    0    0 -0.96343641616E+01 -0.24892074581E+02 -0.30671314397E+02  0.50528857405E+02  0.29999992569E+02 0.  0.
        -12    1    1    2    0    0  0.96343641616E+01  0.24892074581E+02  0.30671314397E+02  0.40659142595E+02  0.00000000000E+00 0.  1.
         11    1    3    3    0    0 -0.12373977201E+02 -0.15035460110E+02 -0.21815911574E+02  0.29242338664E+02  0.51100000000E-03 0. -1.
        -11    1    3    3    0    0 -0.42936912536E+01  0.13739626661E+00 -0.79447910680E+01  0.90318529489E+01  0.51100000000E-03 0.  1.
        -12    1    3    3    0    0  0.70333042933E+01 -0.99940107375E+01 -0.91061175416E+00  0.12254665792E+02  0.00000000000E+00 0.  1.
</event>
<event>
 7    1  0.5913457E-013  0.5052885E+02  0.7816164E-02  0.1300439E+00
        -11   -1    0    0    0    0  0.00000000000E+00  0.00000000000E+00  0.45593999997E+02  0.45594000000E+02  0.51100000000E-03 0. -1.
         11   -1    0    0    0    0 -0.00000000000E+00 -0.00000000000E+00 -0.45593999997E+02  0.45594000000E+02  0.51100000000E-03 0.  1.
    9900012    2    1    2    0    0  0.32422019158E+02 -0.22721736525E+02 -0.92575211114E+01  0.50528851778E+02  0.29999975463E+02 0.  0.
        -12    1    1    2    0    0 -0.32422019158E+02  0.22721736525E+02  0.92575211114E+01  0.40659148222E+02  0.00000000000E+00 0.  1.
         11    1    3    3    0    0 -0.34491806657E+01 -0.35854139768E+01 -0.57233276958E+01  0.75834372697E+01  0.51100000000E-03 0.  1.
        -11    1    3    3    0    0  0.10196587220E+02 -0.57549342014E+01 -0.72255113032E+01  0.13758549068E+02  0.51100000000E-03 0. -1.
        -12    1    3    3    0    0  0.25674612604E+02 -0.13381388347E+02  0.36913178875E+01  0.29186865440E+02  0.00000000000E+00 0.  1.
</event>
<event>
 7    1  0.5913457E-013  0.5052896E+02  0.7816164E-02  0.1300438E+00
        -11   -1    0    0    0    0  0.00000000000E+00  0.00000000000E+00  0.45593999997E+02  0.45594000000E+02  0.51100000000E-03 0.  1.
         11   -1    0    0    0    0 -0.00000000000E+00 -0.00000000000E+00 -0.45593999997E+02  0.45594000000E+02  0.51100000000E-03 0. -1.
    9900012    2    1    2    0    0  0.14368569091E+02 -0.30029831924E+02 -0.23343320754E+02  0.50528964019E+02  0.30000316629E+02 0.  0.
        -12    1    1    2    0    0 -0.14368569091E+02  0.30029831924E+02  0.23343320754E+02  0.40659035981E+02  0.00000000000E+00 0.  1.
         11    1    3    3    0    0  0.41188335466E+01 -0.84243391498E+00 -0.11329403907E+02  0.12084282264E+02  0.51100000000E-03 0.  1.
        -11    1    3    3    0    0 -0.21352010592E+01 -0.22193118178E+02 -0.74044993138E+01  0.23492981683E+02  0.51100000000E-03 0. -1.
         12    1    3    3    0    0  0.12384936603E+02 -0.69942798310E+01 -0.46094175337E+01  0.14951700071E+02  0.00000000000E+00 0. -1.
</event>
<event>
 7    1  0.5913457E-013  0.5052886E+02  0.7816164E-02  0.1300439E+00
        -11   -1    0    0    0    0  0.00000000000E+00  0.00000000000E+00  0.45593999997E+02  0.45594000000E+02  0.51100000000E-03 0.  1.
         11   -1    0    0    0    0 -0.00000000000E+00 -0.00000000000E+00 -0.45593999997E+02  0.45594000000E+02  0.51100000000E-03 0. -1.
    9900012    2    1    2    0    0  0.78416982338E+01 -0.23193764179E+02 -0.32461094350E+02  0.50528861121E+02  0.30000003864E+02 0.  0.
        -12    1    1    2    0    0 -0.78416982338E+01  0.23193764179E+02  0.32461094350E+02  0.40659138879E+02  0.00000000000E+00 0.  1.
         11    1    3    3    0    0  0.17754880701E+02 -0.13437081523E+02 -0.15865635027E+02  0.27340616739E+02  0.51100000000E-03 0. -1.
        -11    1    3    3    0    0  0.14967877149E+00 -0.51062571463E+01 -0.53725608911E+01  0.74135468279E+01  0.51100000000E-03 0.  1.
         12    1    3    3    0    0 -0.10062861239E+02 -0.46504255095E+01 -0.11222898431E+02  0.15774697555E+02  0.00000000000E+00 0. -1.
</event>
<event>
 7    1  0.5913457E-013  0.5052887E+02  0.7816164E-02  0.1300439E+00
        -11   -1    0    0    0    0  0.00000000000E+00  0.00000000000E+00  0.45593999997E+02  0.45594000000E+02  0.51100000000E-03 0. -1.
         11   -1    0    0    0    0 -0.00000000000E+00 -0.00000000000E+00 -0.45593999997E+02  0.45594000000E+02  0.51100000000E-03 0.  1.
    9900012    2    1    2    0    0  0.32744361584E+02  0.22212964297E+02 -0.93571342371E+01  0.50528868682E+02  0.30000026845E+02 0.  0.
        -12    1    1    2    0    0 -0.32744361584E+02 -0.22212964297E+02  0.93571342371E+01  0.40659131318E+02  0.00000000000E+00 0.  1.
         11    1    3    3    0    0  0.79852428171E+01  0.73565512073E+01 -0.36294003434E+01  0.11447947223E+02  0.51100000000E-03 0. -1.
        -11    1    3    3    0    0  0.29249607513E+02  0.10260821056E+02 -0.84113153764E+00  0.31008571249E+02  0.51100000000E-03 0.  1.
        -12    1    3    3    0    0 -0.44904887456E+01  0.45955920337E+01 -0.48866023561E+01  0.80723502093E+01  0.00000000000E+00 0.  1.
</event>
<event>
 7    1  0.5913457E-013  0.5052890E+02  0.7816164E-02  0.1300439E+00
        -11   -1    0    0    0    0  0.00000000000E+00  0.00000000000E+00  0.45593999997E+02  0.45594000000E+02  0.51100000000E-03 0. -1.
         11   -1    0    0    0    0 -0.00000000000E+00 -0.00000000000E+00 -0.45593999997E+02  0.45594000000E+02  0.51100000000E-03 0.  1.
    9900012    2    1    2    0    0 -0.33344287310E+02  0.23255289895E+02  0.71586745428E+00  0.50528899290E+02  0.30000119882E+02 0.  0.
        -12    1    1    2    0    0  0.33344287310E+02 -0.23255289895E+02 -0.71586745428E+00  0.40659100710E+02  0.00000000000E+00 0.  1.
         11    1    3    3    0    0 -0.27389116073E+02  0.26615079171E+02 -0.57970908949E+00  0.38195054411E+02  0.51100000000E-03 0. -1.
        -11    1    3    3    0    0  0.24172451198E+00  0.21294235073E+01 -0.24434804261E+01  0.32501495453E+01  0.51100000000E-03 0.  1.
        -12    1    3    3    0    0 -0.61968957487E+01 -0.54892127831E+01  0.37390569698E+01  0.90836953340E+01  0.00000000000E+00 0.  1.
</event>
<event>
 7    1  0.5913457E-013  0.5052886E+02  0.7816164E-02  0.1300439E+00
        -11   -1    0    0    0    0  0.00000000000E+00  0.00000000000E+00  0.45593999997E+02  0.45594000000E+02  0.51100000000E-03 0.  1.
         11   -1    0    0    0    0 -0.00000000000E+00 -0.00000000000E+00 -0.45593999997E+02  0.45594000000E+02  0.51100000000E-03 0. -1.
    9900012    2    1    2    0    0  0.27370653937E+02 -0.11301465717E+02 -0.27861984324E+02  0.50528855952E+02  0.29999988151E+02 0.  0.
        -12    1    1    2    0    0 -0.27370653937E+02  0.11301465717E+02  0.27861984324E+02  0.40659144048E+02  0.00000000000E+00 0.  1.
         11    1    3    3    0    0  0.17745477947E+02 -0.36754720493E+01 -0.39484575307E+01  0.18547274718E+02  0.51100000000E-03 0. -1.
        -11    1    3    3    0    0  0.10073622444E+02 -0.82559262861E+01 -0.65099329334E+01  0.14560817801E+02  0.51100000000E-03 0.  1.
         12    1    3    3    0    0 -0.44844645385E+00  0.62993261830E+00 -0.17403593860E+02  0.17420763432E+02  0.00000000000E+00 0. -1.
</event>
<event>
 7    1  0.5913457E-013  0.5052886E+02  0.7816164E-02  0.1300439E+00
        -11   -1    0    0    0    0  0.00000000000E+00  0.00000000000E+00  0.45593999997E+02  0.45594000000E+02  0.51100000000E-03 0. -1.
         11   -1    0    0    0    0 -0.00000000000E+00 -0.00000000000E+00 -0.45593999997E+02  0.45594000000E+02  0.51100000000E-03 0.  1.
    9900012    2    1    2    0    0 -0.31568771641E+02  0.22950823638E+02  0.11394643614E+02  0.50528861400E+02  0.30000004712E+02 0.  0.
        -12    1    1    2    0    0  0.31568771641E+02 -0.22950823638E+02 -0.11394643614E+02  0.40659138600E+02  0.00000000000E+00 0.  1.
         11    1    3    3    0    0 -0.17017297709E+01 -0.10757865481E+01  0.37872814971E+00  0.20485693014E+01  0.51100000000E-03 0. -1.
        -11    1    3    3    0    0 -0.11027807469E+02 -0.96588784598E+00 -0.62740858605E+01  0.12724371519E+02  0.51100000000E-03 0.  1.
         12    1    3    3    0    0 -0.18839234402E+02  0.24992498032E+02  0.17290001325E+02  0.35755920580E+02  0.00000000000E+00 0. -1.
</event>
<event>
 7    1  0.5913457E-013  0.5052886E+02  0.7816164E-02  0.1300439E+00
        -11   -1    0    0    0    0  0.00000000000E+00  0.00000000000E+00  0.45593999997E+02  0.45594000000E+02  0.51100000000E-03 0.  1.
         11   -1    0    0    0    0 -0.00000000000E+00 -0.00000000000E+00 -0.45593999997E+02  0.45594000000E+02  0.51100000000E-03 0. -1.
    9900012    2    1    2    0    0 -0.95841184521E+01  0.17954352535E+02 -0.35198748127E+02  0.50528856241E+02  0.29999989031E+02 0.  0.
        -12    1    1    2    0    0  0.95841184521E+01 -0.17954352535E+02  0.35198748127E+02  0.40659143759E+02  0.00000000000E+00 0.  1.
         11    1    3    3    0    0 -0.11649675798E+02  0.59213151710E+01 -0.23264975875E+02  0.26684003115E+02  0.51100000000E-03 0. -1.
        -11    1    3    3    0    0 -0.54798236430E+01  0.73564052955E+01 -0.11826572420E+02  0.14967063222E+02  0.51100000000E-03 0.  1.
         12    1    3    3    0    0  0.75453809889E+01  0.46766320687E+01 -0.10719983279E+00  0.88777899039E+01  0.00000000000E+00 0. -1.
</event>
<event>
 7    1  0.5913457E-013  0.5052886E+02  0.7816164E-02  0.1300439E+00
        -11   -1    0    0    0    0  0.00000000000E+00  0.00000000000E+00  0.45593999997E+02  0.45594000000E+02  0.51100000000E-03 0.  1.
         11   -1    0    0    0    0 -0.00000000000E+00 -0.00000000000E+00 -0.45593999997E+02  0.45594000000E+02  0.51100000000E-03 0. -1.
    9900012    2    1    2    0    0 -0.31457904502E+02 -0.24271657569E+02 -0.86285992933E+01  0.50528857823E+02  0.29999993840E+02 0.  0.
        -12    1    1    2    0    0  0.31457904502E+02  0.24271657569E+02  0.86285992933E+01  0.40659142177E+02  0.00000000000E+00 0.  1.
         11    1    3    3    0    0 -0.57487513376E+01  0.44622929398E+01  0.34580883743E+00  0.72855874325E+01  0.51100000000E-03 0. -1.
        -11    1    3    3    0    0 -0.55691934372E+01  0.28516118070E-01  0.27679921024E+01  0.62192048728E+01  0.51100000000E-03 0.  1.
        -12    1    3    3    0    0 -0.20139959727E+02 -0.28762466626E+02 -0.11742400233E+02  0.37024065518E+02  0.00000000000E+00 0.  1.
</event>
<event>
 7    1  0.5913457E-013  0.5052888E+02  0.7816164E-02  0.1300439E+00
        -11   -1    0    0    0    0  0.00000000000E+00  0.00000000000E+00  0.45593999997E+02  0.45594000000E+02  0.51100000000E-03 0.  1.
         11   -1    0    0    0    0 -0.00000000000E+00 -0.00000000000E+00 -0.45593999997E+02  0.45594000000E+02  0.51100000000E-03 0. -1.
    9900012    2    1    2    0    0  0.16065716831E+02 -0.14277245124E+00 -0.37350184573E+02  0.50528881356E+02  0.30000065369E+02 0.  0.
        -12    1    1    2    0    0 -0.16065716831E+02  0.14277245124E+00  0.37350184573E+02  0.40659118644E+02  0.00000000000E+00 0.  1.
         11    1    3    3    0    0  0.60131029312E+01  0.99797077643E+01 -0.14921939675E+02  0.18931884688E+02  0.51100000000E-03 0. -1.
        -11    1    3    3    0    0  0.28042572825E+01  0.48171397407E+01 -0.68174318326E+01  0.88060247127E+01  0.51100000000E-03 0.  1.
        -12    1    3    3    0    0  0.72483566176E+01 -0.14939619956E+02 -0.15610813066E+02  0.22790971955E+02  0.00000000000E+00 0.  1.
</event>
<event>
 7    1  0.5913457E-013  0.5052886E+02  0.7816164E-02  0.1300439E+00
        -11   -1    0    0    0    0  0.00000000000E+00  0.00000000000E+00  0.45593999997E+02  0.45594000000E+02  0.51100000000E-03 0. -1.
         11   -1    0    0    0    0 -0.00000000000E+00 -0.00000000000E+00 -0.45593999997E+02  0.45594000000E+02  0.51100000000E-03 0.  1.
    9900012    2    1    2    0    0  0.21744008274E+02  0.31753367369E+02 -0.13118218382E+02  0.50528857257E+02  0.29999992118E+02 0.  0.
        -12    1    1    2    0    0 -0.21744008274E+02 -0.31753367369E+02  0.13118218382E+02  0.40659142743E+02  0.00000000000E+00 0.  1.
         11    1    3    3    0    0  0.20720637594E+02  0.99642892864E+01 -0.49144428354E+01  0.23511351129E+02  0.51100000000E-03 0. -1.
        -11    1    3    3    0    0  0.68745509810E+01  0.70691808958E+01 -0.38919325844E+01  0.10600939073E+02  0.51100000000E-03 0.  1.
        -12    1    3    3    0    0 -0.58511803013E+01  0.14719897187E+02 -0.43118429620E+01  0.16416567054E+02  0.00000000000E+00 0.  1.
</event>
<event>
 7    1  0.5913457E-013  0.5052887E+02  0.7816164E-02  0.1300439E+00
        -11   -1    0    0    0    0  0.00000000000E+00  0.00000000000E+00  0.45593999997E+02  0.45594000000E+02  0.51100000000E-03 0. -1.
         11   -1    0    0    0    0 -0.00000000000E+00 -0.00000000000E+00 -0.45593999997E+02  0.45594000000E+02  0.51100000000E-03 0.  1.
    9900012    2    1    2    0    0  0.25479635277E+02  0.31506284034E+02 -0.33626619372E+01  0.50528865199E+02  0.30000016260E+02 0.  0.
        -12    1    1    2    0    0 -0.25479635277E+02 -0.31506284034E+02  0.33626619372E+01  0.40659134801E+02  0.00000000000E+00 0.  1.
         11    1    3    3    0    0  0.36257705549E+01  0.61924027791E+00 -0.64799017944E+00  0.37349112670E+01  0.51100000000E-03 0. -1.
        -11    1    3    3    0    0  0.20508139877E+02  0.35992569456E+02 -0.21003306848E+01  0.41478431100E+02  0.51100000000E-03 0.  1.
        -12    1    3    3    0    0  0.13457248449E+01 -0.51055257001E+01 -0.61434107300E+00  0.53155228328E+01  0.00000000000E+00 0.  1.
</event>
<event>
 7    1  0.5913457E-013  0.5052887E+02  0.7816164E-02  0.1300439E+00
        -11   -1    0    0    0    0  0.00000000000E+00  0.00000000000E+00  0.45593999997E+02  0.45594000000E+02  0.51100000000E-03 0.  1.
         11   -1    0    0    0    0 -0.00000000000E+00 -0.00000000000E+00 -0.45593999997E+02  0.45594000000E+02  0.51100000000E-03 0. -1.
    9900012    2    1    2    0    0  0.26209697374E+02  0.21361589049E+02 -0.22580953310E+02  0.50528866026E+02  0.30000018773E+02 0.  0.
        -12    1    1    2    0    0 -0.26209697374E+02 -0.21361589049E+02  0.22580953310E+02  0.40659133974E+02  0.00000000000E+00 0.  1.
         11    1    3    3    0    0  0.19824463612E+02  0.58298384391E+01 -0.13605991621E+02  0.24741046502E+02  0.51100000000E-03 0. -1.
        -11    1    3    3    0    0  0.52985289327E+01  0.88345958917E+00  0.35878295688E+01  0.64596773118E+01  0.51100000000E-03 0.  1.
         12    1    3    3    0    0  0.10867048289E+01  0.14648291020E+02 -0.12562791258E+02  0.19328142213E+02  0.00000000000E+00 0. -1.
</event>
<event>
 7    1  0.5913457E-013  0.5052886E+02  0.7816164E-02  0.1300439E+00
        -11   -1    0    0    0    0  0.00000000000E+00  0.00000000000E+00  0.45593999997E+02  0.45594000000E+02  0.51100000000E-03 0.  1.
         11   -1    0    0    0    0 -0.00000000000E+00 -0.00000000000E+00 -0.45593999997E+02  0.45594000000E+02  0.51100000000E-03 0. -1.
    9900012    2    1    2    0    0  0.25850628101E+02  0.82654149999E+01 -0.30275293670E+02  0.50528862464E+02  0.30000007946E+02 0.  0.
        -12    1    1    2    0    0 -0.25850628101E+02 -0.82654149999E+01  0.30275293670E+02  0.40659137536E+02  0.00000000000E+00 0.  1.
         11    1    3    3    0    0 -0.41551764243E+01  0.29457883338E+01 -0.87932054787E+00  0.51687875669E+01  0.51100000000E-03 0. -1.
        -11    1    3    3    0    0  0.50087933236E+01  0.52115095293E+01 -0.63781991760E+00  0.72563528471E+01  0.51100000000E-03 0.  1.
         12    1    3    3    0    0  0.24997011202E+02  0.10811713675E+00 -0.28758153204E+02  0.38103722050E+02  0.00000000000E+00 0. -1.
</event>
<event>
 7    1  0.5913457E-013  0.5052883E+02  0.7816164E-02  0.1300439E+00
        -11   -1    0    0    0    0  0.00000000000E+00  0.00000000000E+00  0.45593999997E+02  0.45594000000E+02  0.51100000000E-03 0.  1.
         11   -1    0    0    0    0 -0.00000000000E+00 -0.00000000000E+00 -0.45593999997E+02  0.45594000000E+02  0.51100000000E-03 0. -1.
    9900012    2    1    2    0    0  0.77198171756E+01  0.54291898818E+01 -0.39548661428E+02  0.50528827594E+02  0.29999901955E+02 0.  0.
        -12    1    1    2    0    0 -0.77198171756E+01 -0.54291898818E+01  0.39548661428E+02  0.40659172406E+02  0.00000000000E+00 0.  1.
         11    1    3    3    0    0 -0.39332645397E+01  0.10529253579E+01 -0.11511147786E+01  0.42313457957E+01  0.51100000000E-03 0. -1.
        -11    1    3    3    0    0  0.18695466357E+01 -0.78656606006E+01 -0.52712475676E+01  0.96514181594E+01  0.51100000000E-03 0.  1.
         12    1    3    3    0    0  0.97835350796E+01  0.12241925124E+02 -0.33126299082E+02  0.36646063639E+02  0.00000000000E+00 0. -1.
</event>
<event>
 7    1  0.5913457E-013  0.5052885E+02  0.7816164E-02  0.1300439E+00
        -11   -1    0    0    0    0  0.00000000000E+00  0.00000000000E+00  0.45593999997E+02  0.45594000000E+02  0.51100000000E-03 0.  1.
         11   -1    0    0    0    0 -0.00000000000E+00 -0.00000000000E+00 -0.45593999997E+02  0.45594000000E+02  0.51100000000E-03 0. -1.
    9900012    2    1    2    0    0  0.25466356493E+01  0.35665433911E+02 -0.19356077260E+02  0.50528852737E+02  0.29999978381E+02 0.  0.
        -12    1    1    2    0    0 -0.25466356493E+01 -0.35665433911E+02  0.19356077260E+02  0.40659147263E+02  0.00000000000E+00 0.  1.
         11    1    3    3    0    0 -0.22130414868E+01  0.34271465103E+01  0.30703008867E+01  0.51058430863E+01  0.51100000000E-03 0. -1.
        -11    1    3    3    0    0 -0.28274679799E+01 -0.18019131789E+01  0.89278878686E+00  0.34696596894E+01  0.51100000000E-03 0.  1.
         12    1    3    3    0    0  0.75871451160E+01  0.34040200580E+02 -0.23319166934E+02  0.41953349962E+02  0.00000000000E+00 0. -1.
</event>
<event>
 7    1  0.5913457E-013  0.5052888E+02  0.7816164E-02  0.1300439E+00
        -11   -1    0    0    0    0  0.00000000000E+00  0.00000000000E+00  0.45593999997E+02  0.45594000000E+02  0.51100000000E-03 0.  1.
         11   -1    0    0    0    0 -0.00000000000E+00 -0.00000000000E+00 -0.45593999997E+02  0.45594000000E+02  0.51100000000E-03 0. -1.
    9900012    2    1    2    0    0  0.54104384946E+01 -0.16290000411E+02 -0.36858199303E+02  0.50528882770E+02  0.30000069666E+02 0.  0.
        -12    1    1    2    0    0 -0.54104384946E+01  0.16290000411E+02  0.36858199303E+02  0.40659117230E+02  0.00000000000E+00 0.  1.
         11    1    3    3    0    0  0.73395541904E+01 -0.62237310668E+01 -0.18816941596E+02  0.21134833224E+02  0.51100000000E-03 0. -1.
        -11    1    3    3    0    0 -0.21025831135E+01 -0.16518632940E+02 -0.11746247993E+02  0.20377939840E+02  0.51100000000E-03 0.  1.
         12    1    3    3    0    0  0.17346741772E+00  0.64523635961E+01 -0.62950097140E+01  0.90161097054E+01  0.00000000000E+00 0. -1.
</event>
<event>
 7    1  0.5913457E-013  0.5052886E+02  0.7816164E-02  0.1300439E+00
        -11   -1    0    0    0    0  0.00000000000E+00  0.00000000000E+00  0.45593999997E+02  0.45594000000E+02  0.51100000000E-03 0.  1.
         11   -1    0    0    0    0 -0.00000000000E+00 -0.00000000000E+00 -0.45593999997E+02  0.45594000000E+02  0.51100000000E-03 0. -1.
    9900012    2    1    2    0    0 -0.12236267865E+02 -0.32645789972E+02 -0.20921086293E+02  0.50528859504E+02  0.29999998949E+02 0.  0.
        -12    1    1    2    0    0  0.12236267865E+02  0.32645789972E+02  0.20921086293E+02  0.40659140496E+02  0.00000000000E+00 0.  1.
         11    1    3    3    0    0  0.43819116633E+01 -0.76178827574E+01 -0.39810418116E+01  0.96479003776E+01  0.51100000000E-03 0. -1.
        -11    1    3    3    0    0  0.42125721794E+00 -0.76966377399E+01  0.41032964350E+01  0.87322810329E+01  0.51100000000E-03 0.  1.
         12    1    3    3    0    0 -0.17039436746E+02 -0.17331269475E+02 -0.21043340916E+02  0.32148678094E+02  0.00000000000E+00 0. -1.
</event>
<event>
 7    1  0.5913457E-013  0.5052886E+02  0.7816164E-02  0.1300439E+00
        -11   -1    0    0    0    0  0.00000000000E+00  0.00000000000E+00  0.45593999997E+02  0.45594000000E+02  0.51100000000E-03 0.  1.
         11   -1    0    0    0    0 -0.00000000000E+00 -0.00000000000E+00 -0.45593999997E+02  0.45594000000E+02  0.51100000000E-03 0. -1.
    9900012    2    1    2    0    0  0.19172913134E+02  0.29344443668E+02 -0.20602635348E+02  0.50528861353E+02  0.30000004568E+02 0.  0.
        -12    1    1    2    0    0 -0.19172913134E+02 -0.29344443668E+02  0.20602635348E+02  0.40659138647E+02  0.00000000000E+00 0.  1.
         11    1    3    3    0    0  0.52428093166E+01  0.12811790927E+02 -0.13382731821E+02  0.19254260503E+02  0.51100000000E-03 0. -1.
        -11    1    3    3    0    0 -0.32557052337E+01  0.95856196814E+01 -0.77198406704E+01  0.12731051075E+02  0.51100000000E-03 0.  1.
        -12    1    3    3    0    0  0.17185809051E+02  0.69470330602E+01  0.49993714332E+00  0.18543549774E+02  0.00000000000E+00 0.  1.
</event>
<event>
 7    1  0.5913457E-013  0.5052886E+02  0.7816164E-02  0.1300439E+00
        -11   -1    0    0    0    0  0.00000000000E+00  0.00000000000E+00  0.45593999997E+02  0.45594000000E+02  0.51100000000E-03 0. -1.
         11   -1    0    0    0    0 -0.00000000000E+00 -0.00000000000E+00 -0.45593999997E+02  0.45594000000E+02  0.51100000000E-03 0.  1.
    9900012    2    1    2    0    0  0.18015619882E+02 -0.27686292579E+02 -0.23708067137E+02  0.50528858299E+02  0.29999995285E+02 0.  0.
        -12    1    1    2    0    0 -0.18015619882E+02  0.27686292579E+02  0.23708067137E+02  0.40659141701E+02  0.00000000000E+00 0.  1.
         11    1    3    3    0    0 -0.25891796036E+01  0.12981459928E+01  0.76711823254E+00  0.29962484347E+01  0.51100000000E-03 0. -1.
        -11    1    3    3    0    0 -0.37286929081E+01 -0.24870432889E+01 -0.46408168039E+01  0.64517994383E+01  0.51100000000E-03 0.  1.
         12    1    3    3    0    0  0.24333492394E+02 -0.26497395283E+02 -0.19834368565E+02  0.41080810426E+02  0.00000000000E+00 0. -1.
</event>
<event>
 7    1  0.5913457E-013  0.5052886E+02  0.7816164E-02  0.1300439E+00
        -11   -1    0    0    0    0  0.00000000000E+00  0.00000000000E+00  0.45593999997E+02  0.45594000000E+02  0.51100000000E-03 0.  1.
         11   -1    0    0    0    0 -0.00000000000E+00 -0.00000000000E+00 -0.45593999997E+02  0.45594000000E+02  0.51100000000E-03 0. -1.
    9900012    2    1    2    0    0  0.22981341111E+02  0.27708924921E+01 -0.33426721063E+02  0.50528861230E+02  0.30000004194E+02 0.  0.
        -12    1    1    2    0    0 -0.22981341111E+02 -0.27708924921E+01  0.33426721063E+02  0.40659138770E+02  0.00000000000E+00 0.  1.
         11    1    3    3    0    0  0.93367502641E+01  0.46473482737E+01 -0.33379364571E+02  0.34970769664E+02  0.51100000000E-03 0. -1.
        -11    1    3    3    0    0  0.76728693710E+01 -0.45323234552E+01 -0.94330081282E+00  0.89612888008E+01  0.51100000000E-03 0.  1.
        -12    1    3    3    0    0  0.59717214764E+01  0.26558676736E+01  0.89594432076E+00  0.65968027647E+01  0.00000000000E+00 0.  1.
</event>
<event>
 7    1  0.5913457E-013  0.5052887E+02  0.7816164E-02  0.1300439E+00
        -11   -1    0    0    0    0  0.00000000000E+00  0.00000000000E+00  0.45593999997E+02  0.45594000000E+02  0.51100000000E-03 0.  1.
         11   -1    0    0    0    0 -0.00000000000E+00 -0.00000000000E+00 -0.45593999997E+02  0.45594000000E+02  0.51100000000E-03 0. -1.
    9900012    2    1    2    0    0 -0.19458000396E+02 -0.32301486635E+02 -0.15204118796E+02  0.50528867611E+02  0.30000023591E+02 0.  0.
        -12    1    1    2    0    0  0.19458000396E+02  0.32301486635E+02  0.15204118796E+02  0.40659132389E+02  0.00000000000E+00 0.  1.
         11    1    3    3    0    0 -0.15464061050E+02 -0.17708648439E+02 -0.11389986327E-01  0.23510285913E+02  0.51100000000E-03 0. -1.
        -11    1    3    3    0    0 -0.61647002913E+01 -0.50946939909E+00 -0.10181785538E+02  0.11913515256E+02  0.51100000000E-03 0.  1.
        -12    1    3    3    0    0  0.21707609460E+01 -0.14083368797E+02 -0.50109432717E+01  0.15105066442E+02  0.00000000000E+00 0.  1.
</event>
<event>
 7    1  0.5913457E-013  0.5052886E+02  0.7816164E-02  0.1300439E+00
        -11   -1    0    0    0    0  0.00000000000E+00  0.00000000000E+00  0.45593999997E+02  0.45594000000E+02  0.51100000000E-03 0.  1.
         11   -1    0    0    0    0 -0.00000000000E+00 -0.00000000000E+00 -0.45593999997E+02  0.45594000000E+02  0.51100000000E-03 0. -1.
    9900012    2    1    2    0    0  0.36248158099E+02  0.42301725581E+01 -0.17926015004E+02  0.50528864011E+02  0.30000012649E+02 0.  0.
        -12    1    1    2    0    0 -0.36248158099E+02 -0.42301725581E+01  0.17926015004E+02  0.40659135989E+02  0.00000000000E+00 0.  1.
         11    1    3    3    0    0  0.19570802228E+02 -0.64402772620E+01 -0.39700846837E+01  0.20982255449E+02  0.51100000000E-03 0. -1.
        -11    1    3    3    0    0  0.14363534668E+01  0.72586169179E+01  0.15262055461E+01  0.75551263704E+01  0.51100000000E-03 0.  1.
         12    1    3    3    0    0  0.15241002404E+02  0.34118329021E+01 -0.15482135866E+02  0.21991482192E+02  0.00000000000E+00 0. -1.
</event>
<event>
 7    1  0.5913457E-013  0.5052886E+02  0.7816164E-02  0.1300439E+00
        -11   -1    0    0    0    0  0.00000000000E+00  0.00000000000E+00  0.45593999997E+02  0.45594000000E+02  0.51100000000E-03 0.  1.
         11   -1    0    0    0    0 -0.00000000000E+00 -0.00000000000E+00 -0.45593999997E+02  0.45594000000E+02  0.51100000000E-03 0. -1.
    9900012    2    1    2    0    0 -0.25623866798E+02  0.21981001276E+02 -0.22658750859E+02  0.50528856412E+02  0.29999989551E+02 0.  0.
        -12    1    1    2    0    0  0.25623866798E+02 -0.21981001276E+02  0.22658750859E+02  0.40659143588E+02  0.00000000000E+00 0.  1.
         11    1    3    3    0    0 -0.10418838567E+01  0.61513357163E+01  0.13976226831E+01  0.63935750946E+01  0.51100000000E-03 0.  1.
        -11    1    3    3    0    0 -0.28507292033E+02  0.13785635080E+02 -0.23959628575E+02  0.39708604047E+02  0.51100000000E-03 0. -1.
         12    1    3    3    0    0  0.39253090925E+01  0.20440304793E+01 -0.96744967863E-01  0.44266772709E+01  0.00000000000E+00 0. -1.
</event>
<event>
 7    1  0.5913457E-013  0.5052886E+02  0.7816164E-02  0.1300439E+00
        -11   -1    0    0    0    0  0.00000000000E+00  0.00000000000E+00  0.45593999997E+02  0.45594000000E+02  0.51100000000E-03 0.  1.
         11   -1    0    0    0    0 -0.00000000000E+00 -0.00000000000E+00 -0.45593999997E+02  0.45594000000E+02  0.51100000000E-03 0. -1.
    9900012    2    1    2    0    0  0.62652797061E+01 -0.28735129854E+02 -0.28074975437E+02  0.50528860027E+02  0.30000000539E+02 0.  0.
        -12    1    1    2    0    0 -0.62652797061E+01  0.28735129854E+02  0.28074975437E+02  0.40659139973E+02  0.00000000000E+00 0.  1.
         11    1    3    3    0    0 -0.46666616697E+00 -0.32304434391E+01 -0.70541853095E+01  0.77727133465E+01  0.51100000000E-03 0. -1.
        -11    1    3    3    0    0 -0.40461736111E+01  0.30734427959E+01 -0.81669924244E+01  0.96185932980E+01  0.51100000000E-03 0.  1.
         12    1    3    3    0    0  0.10778119484E+02 -0.28578129211E+02 -0.12853797703E+02  0.33137553383E+02  0.00000000000E+00 0. -1.
</event>
<event>
 7    1  0.5913457E-013  0.5052886E+02  0.7816164E-02  0.1300439E+00
        -11   -1    0    0    0    0  0.00000000000E+00  0.00000000000E+00  0.45593999997E+02  0.45594000000E+02  0.51100000000E-03 0.  1.
         11   -1    0    0    0    0 -0.00000000000E+00 -0.00000000000E+00 -0.45593999997E+02  0.45594000000E+02  0.51100000000E-03 0. -1.
    9900012    2    1    2    0    0  0.68717320167E+01 -0.81295830422E+01 -0.39240985503E+02  0.50528858781E+02  0.29999996752E+02 0.  0.
        -12    1    1    2    0    0 -0.68717320167E+01  0.81295830422E+01  0.39240985503E+02  0.40659141219E+02  0.00000000000E+00 0.  1.
         11    1    3    3    0    0  0.81487456645E+00 -0.41447679206E+01 -0.12344386813E+02  0.13047107255E+02  0.51100000000E-03 0. -1.
        -11    1    3    3    0    0  0.10798207656E+02  0.18563491378E+01 -0.27822086401E+02  0.29901769390E+02  0.51100000000E-03 0.  1.
        -12    1    3    3    0    0 -0.47413502060E+01 -0.58411642594E+01  0.92548771040E+00  0.75799821361E+01  0.00000000000E+00 0.  1.
</event>
<event>
 7    1  0.5913457E-013  0.5052886E+02  0.7816164E-02  0.1300439E+00
        -11   -1    0    0    0    0  0.00000000000E+00  0.00000000000E+00  0.45593999997E+02  0.45594000000E+02  0.51100000000E-03 0.  1.
         11   -1    0    0    0    0 -0.00000000000E+00 -0.00000000000E+00 -0.45593999997E+02  0.45594000000E+02  0.51100000000E-03 0. -1.
    9900012    2    1    2    0    0  0.14482301108E+02  0.41529162706E+01 -0.37764821696E+02  0.50528861831E+02  0.30000006020E+02 0.  0.
        -12    1    1    2    0    0 -0.14482301108E+02 -0.41529162706E+01  0.37764821696E+02  0.40659138169E+02  0.00000000000E+00 0.  1.
         11    1    3    3    0    0  0.28939702533E+01  0.69569786733E+01 -0.34983070352E+01  0.83073923984E+01  0.51100000000E-03 0. -1.
        -11    1    3    3    0    0  0.39691214416E+01 -0.96925144397E+01 -0.58305122575E+01  0.11987227979E+02  0.51100000000E-03 0.  1.
         12    1    3    3    0    0  0.76192094131E+01  0.68884520370E+01 -0.28436002403E+02  0.30234241453E+02  0.00000000000E+00 0. -1.
</event>
<event>
 7    1  0.5913457E-013  0.5052886E+02  0.7816164E-02  0.1300439E+00
        -11   -1    0    0    0    0  0.00000000000E+00  0.00000000000E+00  0.45593999997E+02  0.45594000000E+02  0.51100000000E-03 0.  1.
         11   -1    0    0    0    0 -0.00000000000E+00 -0.00000000000E+00 -0.45593999997E+02  0.45594000000E+02  0.51100000000E-03 0. -1.
    9900012    2    1    2    0    0 -0.43215856627E+01 -0.24949422684E+02 -0.31812193273E+02  0.50528862826E+02  0.30000009046E+02 0.  0.
        -12    1    1    2    0    0  0.43215856627E+01  0.24949422684E+02  0.31812193273E+02  0.40659137174E+02  0.00000000000E+00 0.  1.
         11    1    3    3    0    0 -0.11800357119E+01  0.96419635560E+00  0.17883809308E+01  0.23495670896E+01  0.51100000000E-03 0. -1.
        -11    1    3    3    0    0  0.10029339268E+01 -0.87681082681E+01  0.14469962031E+01  0.89431201119E+01  0.51100000000E-03 0.  1.
         12    1    3    3    0    0 -0.41444838776E+01 -0.17145510771E+02 -0.35047570407E+02  0.39236175625E+02  0.00000000000E+00 0. -1.
</event>
<event>
 7    1  0.5913457E-013  0.5052885E+02  0.7816164E-02  0.1300439E+00
        -11   -1    0    0    0    0  0.00000000000E+00  0.00000000000E+00  0.45593999997E+02  0.45594000000E+02  0.51100000000E-03 0. -1.
         11   -1    0    0    0    0 -0.00000000000E+00 -0.00000000000E+00 -0.45593999997E+02  0.45594000000E+02  0.51100000000E-03 0.  1.
    9900012    2    1    2    0    0  0.29486629736E+02 -0.38217844369E-01  0.27994710317E+02  0.50528848514E+02  0.29999965544E+02 0.  0.
        -12    1    1    2    0    0 -0.29486629736E+02  0.38217844369E-01 -0.27994710317E+02  0.40659151486E+02  0.00000000000E+00 0.  1.
         11    1    3    3    0    0  0.16746396830E+02  0.20675994473E+01  0.18913638731E+02  0.25346449545E+02  0.51100000000E-03 0. -1.
        -11    1    3    3    0    0  0.62372145447E+01  0.64133536212E+01  0.11120726025E+02  0.14272508453E+02  0.51100000000E-03 0.  1.
         12    1    3    3    0    0  0.65030183613E+01 -0.85191709129E+01 -0.20396544383E+01  0.10909890516E+02  0.00000000000E+00 0. -1.
</event>
<event>
 7    1  0.5913457E-013  0.5052886E+02  0.7816164E-02  0.1300439E+00
        -11   -1    0    0    0    0  0.00000000000E+00  0.00000000000E+00  0.45593999997E+02  0.45594000000E+02  0.51100000000E-03 0.  1.
         11   -1    0    0    0    0 -0.00000000000E+00 -0.00000000000E+00 -0.45593999997E+02  0.45594000000E+02  0.51100000000E-03 0. -1.
    9900012    2    1    2    0    0 -0.22385482173E+02 -0.29656857032E+02 -0.16508375520E+02  0.50528862732E+02  0.30000008760E+02 0.  0.
        -12    1    1    2    0    0  0.22385482173E+02  0.29656857032E+02  0.16508375520E+02  0.40659137268E+02  0.00000000000E+00 0.  1.
         11    1    3    3    0    0 -0.23891827152E+02 -0.22460442047E+02 -0.82586031437E+01  0.33815608640E+02  0.51100000000E-03 0. -1.
        -11    1    3    3    0    0 -0.75780580419E+00 -0.10941060102E+01  0.32429354306E+01  0.35054198132E+01  0.51100000000E-03 0.  1.
        -12    1    3    3    0    0  0.22641507833E+01 -0.61023089749E+01 -0.11492707806E+02  0.13207834278E+02  0.00000000000E+00 0.  1.
</event>
<event>
 7    1  0.5913457E-013  0.5052886E+02  0.7816164E-02  0.1300439E+00
        -11   -1    0    0    0    0  0.00000000000E+00  0.00000000000E+00  0.45593999997E+02  0.45594000000E+02  0.51100000000E-03 0.  1.
         11   -1    0    0    0    0 -0.00000000000E+00 -0.00000000000E+00 -0.45593999997E+02  0.45594000000E+02  0.51100000000E-03 0. -1.
    9900012    2    1    2    0    0 -0.19208948253E+02  0.34907442790E+02 -0.81026358169E+01  0.50528856351E+02  0.29999989363E+02 0.  0.
        -12    1    1    2    0    0  0.19208948253E+02 -0.34907442790E+02  0.81026358169E+01  0.40659143649E+02  0.00000000000E+00 0.  1.
         11    1    3    3    0    0 -0.36865170226E+01  0.21411818807E+01 -0.89680105393E+01  0.99297674141E+01  0.51100000000E-03 0. -1.
        -11    1    3    3    0    0  0.29123989754E+01 -0.80016153297E-01 -0.17571986709E+00  0.29187922347E+01  0.51100000000E-03 0.  1.
         12    1    3    3    0    0 -0.18434830206E+02  0.32846277063E+02  0.10410945895E+01  0.37680296702E+02  0.00000000000E+00 0. -1.
</event>
<event>
 7    1  0.5913457E-013  0.5052886E+02  0.7816164E-02  0.1300439E+00
        -11   -1    0    0    0    0  0.00000000000E+00  0.00000000000E+00  0.45593999997E+02  0.45594000000E+02  0.51100000000E-03 0.  1.
         11   -1    0    0    0    0 -0.00000000000E+00 -0.00000000000E+00 -0.45593999997E+02  0.45594000000E+02  0.51100000000E-03 0. -1.
    9900012    2    1    2    0    0  0.11864756361E+02 -0.38829412168E+02  0.21610005167E+01  0.50528860609E+02  0.30000002306E+02 0.  0.
        -12    1    1    2    0    0 -0.11864756361E+02  0.38829412168E+02 -0.21610005167E+01  0.40659139391E+02  0.00000000000E+00 0.  1.
         11    1    3    3    0    0  0.83561075504E+01 -0.13036998923E+02  0.35868899728E+01  0.15895082707E+02  0.51100000000E-03 0. -1.
        -11    1    3    3    0    0  0.21330271856E+00 -0.20737739614E+01  0.84702552015E+01  0.87230304329E+01  0.51100000000E-03 0.  1.
         12    1    3    3    0    0  0.32953460924E+01 -0.23718639283E+02 -0.98961446576E+01  0.25910747469E+02  0.00000000000E+00 0. -1.
</event>
<event>
 7    1  0.5913457E-013  0.5052886E+02  0.7816164E-02  0.1300439E+00
        -11   -1    0    0    0    0  0.00000000000E+00  0.00000000000E+00  0.45593999997E+02  0.45594000000E+02  0.51100000000E-03 0.  1.
         11   -1    0    0    0    0 -0.00000000000E+00 -0.00000000000E+00 -0.45593999997E+02  0.45594000000E+02  0.51100000000E-03 0. -1.
    9900012    2    1    2    0    0 -0.38159958491E+02  0.91433548856E+01 -0.10648128862E+02  0.50528855655E+02  0.29999987249E+02 0.  0.
        -12    1    1    2    0    0  0.38159958491E+02 -0.91433548856E+01  0.10648128862E+02  0.40659144345E+02  0.00000000000E+00 0.  1.
         11    1    3    3    0    0 -0.13199388916E+02  0.12473868704E+02 -0.12783043264E+01  0.18205914709E+02  0.51100000000E-03 0. -1.
        -11    1    3    3    0    0 -0.20977686193E+02 -0.12615453664E+01  0.98356223850E+00  0.21038588586E+02  0.51100000000E-03 0.  1.
        -12    1    3    3    0    0 -0.39828833819E+01 -0.20689684519E+01 -0.10353386774E+02  0.11284352360E+02  0.00000000000E+00 0.  1.
</event>
<event>
 7    1  0.5913457E-013  0.5052886E+02  0.7816164E-02  0.1300439E+00
        -11   -1    0    0    0    0  0.00000000000E+00  0.00000000000E+00  0.45593999997E+02  0.45594000000E+02  0.51100000000E-03 0.  1.
         11   -1    0    0    0    0 -0.00000000000E+00 -0.00000000000E+00 -0.45593999997E+02  0.45594000000E+02  0.51100000000E-03 0. -1.
    9900012    2    1    2    0    0 -0.75838654634E+01 -0.21960931638E+02 -0.33367167995E+02  0.50528862850E+02  0.30000009119E+02 0.  0.
        -12    1    1    2    0    0  0.75838654634E+01  0.21960931638E+02  0.33367167995E+02  0.40659137150E+02  0.00000000000E+00 0.  1.
         11    1    3    3    0    0  0.27543647187E+00  0.47105333084E+01 -0.27102771660E+01  0.54415615293E+01  0.51100000000E-03 0. -1.
        -11    1    3    3    0    0 -0.19607534990E+01  0.13422449130E+01 -0.86719939589E+01  0.89916436303E+01  0.51100000000E-03 0.  1.
         12    1    3    3    0    0 -0.58985484362E+01 -0.28013709859E+02 -0.21984896870E+02  0.36095657691E+02  0.00000000000E+00 0. -1.
</event>
<event>
 7    1  0.5913457E-013  0.5052887E+02  0.7816164E-02  0.1300439E+00
        -11   -1    0    0    0    0  0.00000000000E+00  0.00000000000E+00  0.45593999997E+02  0.45594000000E+02  0.51100000000E-03 0. -1.
         11   -1    0    0    0    0 -0.00000000000E+00 -0.00000000000E+00 -0.45593999997E+02  0.45594000000E+02  0.51100000000E-03 0.  1.
    9900012    2    1    2    0    0 -0.29443432041E+02 -0.44811687230E+01  0.27679750620E+02  0.50528866243E+02  0.30000019432E+02 0.  0.
        -12    1    1    2    0    0  0.29443432041E+02  0.44811687230E+01 -0.27679750620E+02  0.40659133757E+02  0.00000000000E+00 0.  1.
         11    1    3    3    0    0 -0.21469660086E+02  0.17946839631E+01  0.94056611535E+01  0.23508161491E+02  0.51100000000E-03 0. -1.
        -11    1    3    3    0    0 -0.64762893106E+01 -0.26985844768E+01 -0.12402048506E+01  0.71248010320E+01  0.51100000000E-03 0.  1.
         12    1    3    3    0    0 -0.14974826454E+01 -0.35772682093E+01  0.19514294317E+02  0.19895903719E+02  0.00000000000E+00 0. -1.
</event>
<event>
 7    1  0.5913457E-013  0.5052887E+02  0.7816164E-02  0.1300439E+00
        -11   -1    0    0    0    0  0.00000000000E+00  0.00000000000E+00  0.45593999997E+02  0.45594000000E+02  0.51100000000E-03 0.  1.
         11   -1    0    0    0    0 -0.00000000000E+00 -0.00000000000E+00 -0.45593999997E+02  0.45594000000E+02  0.51100000000E-03 0. -1.
    9900012    2    1    2    0    0  0.36611379696E+02 -0.17290341646E+02 -0.37169701724E+01  0.50528869356E+02  0.30000028895E+02 0.  0.
        -12    1    1    2    0    0 -0.36611379696E+02  0.17290341646E+02  0.37169701724E+01  0.40659130644E+02  0.00000000000E+00 0.  1.
         11    1    3    3    0    0  0.59057773075E+01 -0.59576779457E+00 -0.18586834759E+01  0.62199557390E+01  0.51100000000E-03 0. -1.
        -11    1    3    3    0    0  0.10596342376E+02  0.73550804000E+01  0.92286638892E-01  0.12899154876E+02  0.51100000000E-03 0.  1.
         12    1    3    3    0    0  0.20109260013E+02 -0.24049654251E+02 -0.19505733354E+01  0.31409758741E+02  0.00000000000E+00 0. -1.
</event>
<event>
 7    1  0.5913457E-013  0.5052885E+02  0.7816164E-02  0.1300439E+00
        -11   -1    0    0    0    0  0.00000000000E+00  0.00000000000E+00  0.45593999997E+02  0.45594000000E+02  0.51100000000E-03 0.  1.
         11   -1    0    0    0    0 -0.00000000000E+00 -0.00000000000E+00 -0.45593999997E+02  0.45594000000E+02  0.51100000000E-03 0. -1.
    9900012    2    1    2    0    0 -0.31160949200E+02  0.22251672985E+02  0.13675705357E+02  0.50528848229E+02  0.29999964677E+02 0.  0.
        -12    1    1    2    0    0  0.31160949200E+02 -0.22251672985E+02 -0.13675705357E+02  0.40659151771E+02  0.00000000000E+00 0.  1.
         11    1    3    3    0    0 -0.11996887979E+02 -0.18992006416E+01  0.54795987723E+01  0.13325099896E+02  0.51100000000E-03 0. -1.
        -11    1    3    3    0    0 -0.20877114024E+02  0.21913437650E+02  0.11924114818E+02  0.32530557236E+02  0.51100000000E-03 0.  1.
        -12    1    3    3    0    0  0.17130528026E+01  0.22374359762E+01 -0.37280082328E+01  0.46731910978E+01  0.00000000000E+00 0.  1.
</event>
<event>
 7    1  0.5913457E-013  0.5052889E+02  0.7816164E-02  0.1300439E+00
        -11   -1    0    0    0    0  0.00000000000E+00  0.00000000000E+00  0.45593999997E+02  0.45594000000E+02  0.51100000000E-03 0. -1.
         11   -1    0    0    0    0 -0.00000000000E+00 -0.00000000000E+00 -0.45593999997E+02  0.45594000000E+02  0.51100000000E-03 0.  1.
    9900012    2    1    2    0    0 -0.89211022146E+01 -0.27863289180E+02  0.28234984954E+02  0.50528888795E+02  0.30000087981E+02 0.  0.
        -12    1    1    2    0    0  0.89211022146E+01  0.27863289180E+02 -0.28234984954E+02  0.40659111205E+02  0.00000000000E+00 0.  1.
         11    1    3    3    0    0  0.74351524345E+01 -0.12643286329E+02  0.94792368893E+01  0.17463966135E+02  0.51100000000E-03 0. -1.
        -11    1    3    3    0    0  0.23091365360E+01 -0.30222936243E+00 -0.49468392057E+00  0.23807911651E+01  0.51100000000E-03 0.  1.
         12    1    3    3    0    0 -0.18665391185E+02 -0.14917773489E+02  0.19250431985E+02  0.30684131494E+02  0.00000000000E+00 0. -1.
</event>
<event>
 7    1  0.5913457E-013  0.5052886E+02  0.7816164E-02  0.1300439E+00
        -11   -1    0    0    0    0  0.00000000000E+00  0.00000000000E+00  0.45593999997E+02  0.45594000000E+02  0.51100000000E-03 0. -1.
         11   -1    0    0    0    0 -0.00000000000E+00 -0.00000000000E+00 -0.45593999997E+02  0.45594000000E+02  0.51100000000E-03 0.  1.
    9900012    2    1    2    0    0  0.28357330793E+02  0.28922272042E+02 -0.35397162955E+01  0.50528860544E+02  0.30000002111E+02 0.  0.
        -12    1    1    2    0    0 -0.28357330793E+02 -0.28922272042E+02  0.35397162955E+01  0.40659139456E+02  0.00000000000E+00 0.  1.
         11    1    3    3    0    0  0.10851835799E+02  0.92489098203E+01  0.61378462642E+01  0.15523460635E+02  0.51100000000E-03 0. -1.
        -11    1    3    3    0    0  0.16381564902E+02  0.15239825160E+02  0.20005789348E+01  0.22463531687E+02  0.51100000000E-03 0.  1.
        -12    1    3    3    0    0  0.11239300929E+01  0.44335370620E+01 -0.11678141494E+02  0.12541868222E+02  0.00000000000E+00 0.  1.
</event>
<event>
 7    1  0.5913457E-013  0.5052886E+02  0.7816164E-02  0.1300439E+00
        -11   -1    0    0    0    0  0.00000000000E+00  0.00000000000E+00  0.45593999997E+02  0.45594000000E+02  0.51100000000E-03 0.  1.
         11   -1    0    0    0    0 -0.00000000000E+00 -0.00000000000E+00 -0.45593999997E+02  0.45594000000E+02  0.51100000000E-03 0. -1.
    9900012    2    1    2    0    0 -0.49579004135E+01  0.14517172454E+02 -0.37654165749E+02  0.50528864854E+02  0.30000015210E+02 0.  0.
        -12    1    1    2    0    0  0.49579004135E+01 -0.14517172454E+02  0.37654165749E+02  0.40659135146E+02  0.00000000000E+00 0.  1.
         11    1    3    3    0    0 -0.12670850183E+02  0.19834711441E+01 -0.18569854925E+02  0.22568210260E+02  0.51100000000E-03 0.  1.
        -11    1    3    3    0    0 -0.87152504253E+00 -0.79520506965E+00 -0.92051147142E+01  0.92804118532E+01  0.51100000000E-03 0. -1.
        -12    1    3    3    0    0  0.85844748125E+01  0.13328906379E+02 -0.98791961098E+01  0.18680242741E+02  0.00000000000E+00 0.  1.
</event>
<event>
 7    1  0.5913457E-013  0.5052886E+02  0.7816164E-02  0.1300439E+00
        -11   -1    0    0    0    0  0.00000000000E+00  0.00000000000E+00  0.45593999997E+02  0.45594000000E+02  0.51100000000E-03 0.  1.
         11   -1    0    0    0    0 -0.00000000000E+00 -0.00000000000E+00 -0.45593999997E+02  0.45594000000E+02  0.51100000000E-03 0. -1.
    9900012    2    1    2    0    0  0.21865677644E+02 -0.23896816468E+02 -0.24576413874E+02  0.50528858161E+02  0.29999994868E+02 0.  0.
        -12    1    1    2    0    0 -0.21865677644E+02  0.23896816468E+02  0.24576413874E+02  0.40659141839E+02  0.00000000000E+00 0.  1.
         11    1    3    3    0    0 -0.22762689409E+01 -0.54963079025E+00  0.15027231248E+01  0.27823859093E+01  0.51100000000E-03 0. -1.
        -11    1    3    3    0    0  0.58512489774E+01 -0.34695099191E+01  0.35324876997E+01  0.76650559870E+01  0.51100000000E-03 0.  1.
         12    1    3    3    0    0  0.18290697608E+02 -0.19877675758E+02 -0.29611624699E+02  0.40081416265E+02  0.00000000000E+00 0. -1.
</event>
<event>
 7    1  0.5913457E-013  0.5052886E+02  0.7816164E-02  0.1300439E+00
        -11   -1    0    0    0    0  0.00000000000E+00  0.00000000000E+00  0.45593999997E+02  0.45594000000E+02  0.51100000000E-03 0.  1.
         11   -1    0    0    0    0 -0.00000000000E+00 -0.00000000000E+00 -0.45593999997E+02  0.45594000000E+02  0.51100000000E-03 0. -1.
    9900012    2    1    2    0    0 -0.27825715120E+02 -0.17525416290E+02  0.23911397990E+02  0.50528860905E+02  0.30000003208E+02 0.  0.
        -12    1    1    2    0    0  0.27825715120E+02  0.17525416290E+02 -0.23911397990E+02  0.40659139095E+02  0.00000000000E+00 0.  1.
         11    1    3    3    0    0 -0.35760528505E+01  0.36709149634E+01  0.60945484921E+01  0.79628695985E+01  0.51100000000E-03 0. -1.
        -11    1    3    3    0    0 -0.88774980916E+01  0.14721914926E+01  0.11239706184E+02  0.14398205288E+02  0.51100000000E-03 0.  1.
         12    1    3    3    0    0 -0.15372164178E+02 -0.22668522746E+02  0.65771433133E+01  0.28167786019E+02  0.00000000000E+00 0. -1.
</event>
<event>
 7    1  0.5913457E-013  0.5052886E+02  0.7816164E-02  0.1300439E+00
        -11   -1    0    0    0    0  0.00000000000E+00  0.00000000000E+00  0.45593999997E+02  0.45594000000E+02  0.51100000000E-03 0. -1.
         11   -1    0    0    0    0 -0.00000000000E+00 -0.00000000000E+00 -0.45593999997E+02  0.45594000000E+02  0.51100000000E-03 0.  1.
    9900012    2    1    2    0    0  0.28279917730E+02 -0.29050968007E+02 -0.30746220732E+01  0.50528858471E+02  0.29999995809E+02 0.  0.
        -12    1    1    2    0    0 -0.28279917730E+02  0.29050968007E+02  0.30746220732E+01  0.40659141529E+02  0.00000000000E+00 0.  1.
         11    1    3    3    0    0  0.19394464806E+02 -0.17944805771E+02  0.59588099290E+01  0.27086320077E+02  0.51100000000E-03 0. -1.
        -11    1    3    3    0    0  0.12182285536E+02 -0.11215675774E+02 -0.33849462022E+01  0.16901400090E+02  0.51100000000E-03 0.  1.
         12    1    3    3    0    0 -0.32968326120E+01  0.10951353802E+00 -0.56484858000E+01  0.65411383045E+01  0.00000000000E+00 0. -1.
</event>
<event>
 7    1  0.5913457E-013  0.5052886E+02  0.7816164E-02  0.1300439E+00
        -11   -1    0    0    0    0  0.00000000000E+00  0.00000000000E+00  0.45593999997E+02  0.45594000000E+02  0.51100000000E-03 0. -1.
         11   -1    0    0    0    0 -0.00000000000E+00 -0.00000000000E+00 -0.45593999997E+02  0.45594000000E+02  0.51100000000E-03 0.  1.
    9900012    2    1    2    0    0 -0.19425241932E+02 -0.15735108435E+02  0.32066052123E+02  0.50528863753E+02  0.30000011863E+02 0.  0.
        -12    1    1    2    0    0  0.19425241932E+02  0.15735108435E+02 -0.32066052123E+02  0.40659136247E+02  0.00000000000E+00 0.  1.
         11    1    3    3    0    0 -0.26600024382E+01 -0.98110343754E+01  0.11153251637E+02  0.15090627251E+02  0.51100000000E-03 0. -1.
        -11    1    3    3    0    0 -0.39646117582E+01 -0.95313937354E+01  0.19500388587E+02  0.22064241846E+02  0.51100000000E-03 0.  1.
        -12    1    3    3    0    0 -0.12800627736E+02  0.36073196755E+01  0.14124118986E+01  0.13373994655E+02  0.00000000000E+00 0.  1.
</event>
<event>
 7    1  0.5913457E-013  0.5052886E+02  0.7816164E-02  0.1300439E+00
        -11   -1    0    0    0    0  0.00000000000E+00  0.00000000000E+00  0.45593999997E+02  0.45594000000E+02  0.51100000000E-03 0. -1.
         11   -1    0    0    0    0 -0.00000000000E+00 -0.00000000000E+00 -0.45593999997E+02  0.45594000000E+02  0.51100000000E-03 0.  1.
    9900012    2    1    2    0    0 -0.83212108123E+01  0.24418155876E+02  0.31427329843E+02  0.50528856541E+02  0.29999989941E+02 0.  0.
        -12    1    1    2    0    0  0.83212108123E+01 -0.24418155876E+02 -0.31427329843E+02  0.40659143459E+02  0.00000000000E+00 0.  1.
         11    1    3    3    0    0  0.42144583328E+00  0.27788631182E+01  0.39185938860E+01  0.48223516177E+01  0.51100000000E-03 0. -1.
        -11    1    3    3    0    0 -0.35621648576E+01  0.65569079455E+01 -0.53504179541E+01  0.91819950350E+01  0.51100000000E-03 0.  1.
         12    1    3    3    0    0 -0.51804917880E+01  0.15082384812E+02  0.32859153911E+02  0.36524509888E+02  0.00000000000E+00 0. -1.
</event>
<event>
 7    1  0.5913457E-013  0.5052886E+02  0.7816164E-02  0.1300439E+00
        -11   -1    0    0    0    0  0.00000000000E+00  0.00000000000E+00  0.45593999997E+02  0.45594000000E+02  0.51100000000E-03 0.  1.
         11   -1    0    0    0    0 -0.00000000000E+00 -0.00000000000E+00 -0.45593999997E+02  0.45594000000E+02  0.51100000000E-03 0. -1.
    9900012    2    1    2    0    0 -0.37663482392E+01  0.18073566363E+02 -0.36226052133E+02  0.50528855478E+02  0.29999986710E+02 0.  0.
        -12    1    1    2    0    0  0.37663482392E+01 -0.18073566363E+02  0.36226052133E+02  0.40659144522E+02  0.00000000000E+00 0.  1.
         11    1    3    3    0    0  0.50889873160E+01  0.40645015092E+01 -0.15727640934E+01  0.67001157882E+01  0.51100000000E-03 0.  1.
        -11    1    3    3    0    0  0.58569337147E+01  0.29772977689E+01 -0.30024993446E+01  0.72237785901E+01  0.51100000000E-03 0. -1.
         12    1    3    3    0    0 -0.14712269270E+02  0.11031767085E+02 -0.31650788695E+02  0.36604961099E+02  0.00000000000E+00 0. -1.
</event>
<event>
 7    1  0.5913457E-013  0.5052889E+02  0.7816164E-02  0.1300439E+00
        -11   -1    0    0    0    0  0.00000000000E+00  0.00000000000E+00  0.45593999997E+02  0.45594000000E+02  0.51100000000E-03 0.  1.
         11   -1    0    0    0    0 -0.00000000000E+00 -0.00000000000E+00 -0.45593999997E+02  0.45594000000E+02  0.51100000000E-03 0. -1.
    9900012    2    1    2    0    0  0.14719407873E+02  0.23904173253E+02 -0.29412462403E+02  0.50528887717E+02  0.30000084704E+02 0.  0.
        -12    1    1    2    0    0 -0.14719407873E+02 -0.23904173253E+02  0.29412462403E+02  0.40659112283E+02  0.00000000000E+00 0.  1.
         11    1    3    3    0    0 -0.19065707561E+01 -0.24287702880E+01 -0.88642163724E+01  0.93866005198E+01  0.51100000000E-03 0. -1.
        -11    1    3    3    0    0  0.12659853403E+01  0.36494496587E+01  0.30995900157E+01  0.49526417415E+01  0.51100000000E-03 0.  1.
         12    1    3    3    0    0  0.15359993289E+02  0.22683493882E+02 -0.23647836046E+02  0.36189645456E+02  0.00000000000E+00 0. -1.
</event>
<event>
 7    1  0.5913457E-013  0.5052889E+02  0.7816164E-02  0.1300439E+00
        -11   -1    0    0    0    0  0.00000000000E+00  0.00000000000E+00  0.45593999997E+02  0.45594000000E+02  0.51100000000E-03 0.  1.
         11   -1    0    0    0    0 -0.00000000000E+00 -0.00000000000E+00 -0.45593999997E+02  0.45594000000E+02  0.51100000000E-03 0. -1.
    9900012    2    1    2    0    0  0.28518260093E+02 -0.28234963002E+02 -0.65313965302E+01  0.50528887429E+02  0.30000083828E+02 0.  0.
        -12    1    1    2    0    0 -0.28518260093E+02  0.28234963002E+02  0.65313965302E+01  0.40659112571E+02  0.00000000000E+00 0.  1.
         11    1    3    3    0    0  0.69331100917E+01 -0.45043751909E-01 -0.82472912126E+01  0.10774407505E+02  0.51100000000E-03 0. -1.
        -11    1    3    3    0    0 -0.31232970074E+01 -0.21683659688E+01  0.63345510958E+00  0.38546155201E+01  0.51100000000E-03 0.  1.
         12    1    3    3    0    0  0.24708447009E+02 -0.26021553281E+02  0.10824395728E+01  0.35899864403E+02  0.00000000000E+00 0. -1.
</event>
<event>
 7    1  0.5913457E-013  0.5052883E+02  0.7816164E-02  0.1300439E+00
        -11   -1    0    0    0    0  0.00000000000E+00  0.00000000000E+00  0.45593999997E+02  0.45594000000E+02  0.51100000000E-03 0. -1.
         11   -1    0    0    0    0 -0.00000000000E+00 -0.00000000000E+00 -0.45593999997E+02  0.45594000000E+02  0.51100000000E-03 0.  1.
    9900012    2    1    2    0    0  0.27312145697E+02 -0.12843453279E+02  0.27244454519E+02  0.50528832562E+02  0.29999917057E+02 0.  0.
        -12    1    1    2    0    0 -0.27312145697E+02  0.12843453279E+02 -0.27244454519E+02  0.40659167438E+02  0.00000000000E+00 0.  1.
         11    1    3    3    0    0  0.11623089529E+02  0.64343487233E+01  0.50603417021E+01  0.14216332583E+02  0.51100000000E-03 0. -1.
        -11    1    3    3    0    0 -0.21606296697E+01 -0.58279969672E+01  0.65993059757E+01  0.90655782408E+01  0.51100000000E-03 0.  1.
         12    1    3    3    0    0  0.17849685837E+02 -0.13449805035E+02  0.15584806841E+02  0.27246921739E+02  0.00000000000E+00 0. -1.
</event>
<event>
 7    1  0.5913457E-013  0.5052887E+02  0.7816164E-02  0.1300439E+00
        -11   -1    0    0    0    0  0.00000000000E+00  0.00000000000E+00  0.45593999997E+02  0.45594000000E+02  0.51100000000E-03 0. -1.
         11   -1    0    0    0    0 -0.00000000000E+00 -0.00000000000E+00 -0.45593999997E+02  0.45594000000E+02  0.51100000000E-03 0.  1.
    9900012    2    1    2    0    0 -0.17075847167E+02 -0.17560466663E+02  0.32453204665E+02  0.50528867706E+02  0.30000023879E+02 0.  0.
        -12    1    1    2    0    0  0.17075847167E+02  0.17560466663E+02 -0.32453204665E+02  0.40659132294E+02  0.00000000000E+00 0.  1.
         11    1    3    3    0    0  0.61809987890E+01 -0.85396153543E+01  0.34918357359E+01  0.11105075123E+02  0.51100000000E-03 0. -1.
        -11    1    3    3    0    0 -0.77110474117E+01 -0.30991921193E+01  0.35174786261E+01  0.90242949931E+01  0.51100000000E-03 0.  1.
        -12    1    3    3    0    0 -0.15545798544E+02 -0.59216591899E+01  0.25443890303E+02  0.30399497589E+02  0.00000000000E+00 0.  1.
</event>
<event>
 7    1  0.5913457E-013  0.5052891E+02  0.7816164E-02  0.1300439E+00
        -11   -1    0    0    0    0  0.00000000000E+00  0.00000000000E+00  0.45593999997E+02  0.45594000000E+02  0.51100000000E-03 0.  1.
         11   -1    0    0    0    0 -0.00000000000E+00 -0.00000000000E+00 -0.45593999997E+02  0.45594000000E+02  0.51100000000E-03 0. -1.
    9900012    2    1    2    0    0 -0.40652663456E+02 -0.72256222077E+00 -0.15130848553E-01  0.50528912809E+02  0.30000160975E+02 0.  0.
        -12    1    1    2    0    0  0.40652663456E+02  0.72256222077E+00  0.15130848553E-01  0.40659087191E+02  0.00000000000E+00 0.  1.
         11    1    3    3    0    0 -0.15582804106E+02  0.85120084467E+01 -0.67235294782E+01  0.18986414104E+02  0.51100000000E-03 0. -1.
        -11    1    3    3    0    0 -0.15503689925E+02 -0.70533094393E+01 -0.34943233744E+01  0.17387463054E+02  0.51100000000E-03 0.  1.
        -12    1    3    3    0    0 -0.95661694244E+01 -0.21812612281E+01  0.10202722004E+02  0.14155035651E+02  0.00000000000E+00 0.  1.
</event>
<event>
 7    1  0.5913457E-013  0.5052886E+02  0.7816164E-02  0.1300439E+00
        -11   -1    0    0    0    0  0.00000000000E+00  0.00000000000E+00  0.45593999997E+02  0.45594000000E+02  0.51100000000E-03 0.  1.
         11   -1    0    0    0    0 -0.00000000000E+00 -0.00000000000E+00 -0.45593999997E+02  0.45594000000E+02  0.51100000000E-03 0. -1.
    9900012    2    1    2    0    0 -0.24185853619E+02  0.32091857327E+02 -0.61905218069E+01  0.50528863484E+02  0.30000011047E+02 0.  0.
        -12    1    1    2    0    0  0.24185853619E+02 -0.32091857327E+02  0.61905218069E+01  0.40659136516E+02  0.00000000000E+00 0.  1.
         11    1    3    3    0    0 -0.10087541567E+02  0.83058223985E+01  0.37784519345E+01  0.13602274805E+02  0.51100000000E-03 0. -1.
        -11    1    3    3    0    0 -0.35259248739E+01  0.57279324300E+01  0.72045431753E+01  0.98563075624E+01  0.51100000000E-03 0.  1.
         12    1    3    3    0    0 -0.10572387178E+02  0.18058102498E+02 -0.17173516917E+02  0.27070281117E+02  0.00000000000E+00 0. -1.
</event>
<event>
 7    1  0.5913457E-013  0.5052884E+02  0.7816164E-02  0.1300439E+00
        -11   -1    0    0    0    0  0.00000000000E+00  0.00000000000E+00  0.45593999997E+02  0.45594000000E+02  0.51100000000E-03 0.  1.
         11   -1    0    0    0    0 -0.00000000000E+00 -0.00000000000E+00 -0.45593999997E+02  0.45594000000E+02  0.51100000000E-03 0. -1.
    9900012    2    1    2    0    0 -0.16346933857E+02  0.24819030914E+02 -0.27748160544E+02  0.50528844136E+02  0.29999952234E+02 0.  0.
        -12    1    1    2    0    0  0.16346933857E+02 -0.24819030914E+02  0.27748160544E+02  0.40659155864E+02  0.00000000000E+00 0.  1.
         11    1    3    3    0    0 -0.46988689120E+00  0.42714399754E+01 -0.13202795720E+02  0.13884516853E+02  0.51100000000E-03 0. -1.
        -11    1    3    3    0    0 -0.28134304642E+01  0.43316304876E+01 -0.14949847508E+02  0.15816964135E+02  0.51100000000E-03 0.  1.
        -12    1    3    3    0    0 -0.13063616502E+02  0.16215960451E+02  0.40448268444E+00  0.20827363148E+02  0.00000000000E+00 0.  1.
</event>
<event>
 7    1  0.5913457E-013  0.5052886E+02  0.7816164E-02  0.1300439E+00
        -11   -1    0    0    0    0  0.00000000000E+00  0.00000000000E+00  0.45593999997E+02  0.45594000000E+02  0.51100000000E-03 0. -1.
         11   -1    0    0    0    0 -0.00000000000E+00 -0.00000000000E+00 -0.45593999997E+02  0.45594000000E+02  0.51100000000E-03 0.  1.
    9900012    2    1    2    0    0 -0.98245939557E+00 -0.21676187784E+02  0.34385220179E+02  0.50528859452E+02  0.29999998792E+02 0.  0.
        -12    1    1    2    0    0  0.98245939557E+00  0.21676187784E+02 -0.34385220179E+02  0.40659140548E+02  0.00000000000E+00 0.  1.
         11    1    3    3    0    0 -0.19696689540E+01 -0.68175532463E+01  0.62241763678E+01  0.94392266512E+01  0.51100000000E-03 0. -1.
        -11    1    3    3    0    0 -0.11397772164E+02 -0.93523855656E+01  0.79383996305E+01  0.16744984772E+02  0.51100000000E-03 0.  1.
        -12    1    3    3    0    0  0.12384981722E+02 -0.55062489723E+01  0.20222644181E+02  0.24344648029E+02  0.00000000000E+00 0.  1.
</event>
<event>
 7    1  0.5913457E-013  0.5052886E+02  0.7816164E-02  0.1300439E+00
        -11   -1    0    0    0    0  0.00000000000E+00  0.00000000000E+00  0.45593999997E+02  0.45594000000E+02  0.51100000000E-03 0.  1.
         11   -1    0    0    0    0 -0.00000000000E+00 -0.00000000000E+00 -0.45593999997E+02  0.45594000000E+02  0.51100000000E-03 0. -1.
    9900012    2    1    2    0    0  0.25548814274E+02 -0.25102453919E+02 -0.19242925433E+02  0.50528864706E+02  0.30000014762E+02 0.  0.
        -12    1    1    2    0    0 -0.25548814274E+02  0.25102453919E+02  0.19242925433E+02  0.40659135294E+02  0.00000000000E+00 0.  1.
         11    1    3    3    0    0 -0.18011633269E+00  0.20890781730E+00 -0.30820185750E+01  0.30943372679E+01  0.51100000000E-03 0. -1.
        -11    1    3    3    0    0 -0.51254282338E+01 -0.17643850090E+01 -0.77670475241E-01  0.54211716449E+01  0.51100000000E-03 0.  1.
         12    1    3    3    0    0  0.30854358841E+02 -0.23546976728E+02 -0.16083236383E+02  0.42013355794E+02  0.00000000000E+00 0. -1.
</event>
<event>
 7    1  0.5913457E-013  0.5052887E+02  0.7816164E-02  0.1300439E+00
        -11   -1    0    0    0    0  0.00000000000E+00  0.00000000000E+00  0.45593999997E+02  0.45594000000E+02  0.51100000000E-03 0. -1.
         11   -1    0    0    0    0 -0.00000000000E+00 -0.00000000000E+00 -0.45593999997E+02  0.45594000000E+02  0.51100000000E-03 0.  1.
    9900012    2    1    2    0    0 -0.25208666026E+02  0.30500183467E+02 -0.93502307977E+01  0.50528870025E+02  0.30000030928E+02 0.  0.
        -12    1    1    2    0    0  0.25208666026E+02 -0.30500183467E+02  0.93502307977E+01  0.40659129975E+02  0.00000000000E+00 0.  1.
         11    1    3    3    0    0 -0.60178554658E+01  0.97694493844E+01 -0.11035546186E+02  0.15919799169E+02  0.51100000000E-03 0. -1.
        -11    1    3    3    0    0 -0.14478254625E+02  0.17022015465E+02 -0.75586394188E+01  0.23590292444E+02  0.51100000000E-03 0.  1.
         12    1    3    3    0    0 -0.47125559357E+01  0.37087186181E+01  0.92439548071E+01  0.11018778413E+02  0.00000000000E+00 0. -1.
</event>
<event>
 7    1  0.5913457E-013  0.5052886E+02  0.7816164E-02  0.1300439E+00
        -11   -1    0    0    0    0  0.00000000000E+00  0.00000000000E+00  0.45593999997E+02  0.45594000000E+02  0.51100000000E-03 0.  1.
         11   -1    0    0    0    0 -0.00000000000E+00 -0.00000000000E+00 -0.45593999997E+02  0.45594000000E+02  0.51100000000E-03 0. -1.
    9900012    2    1    2    0    0  0.17866655167E+02 -0.25501250518E+02 -0.26146404363E+02  0.50528860733E+02  0.30000002683E+02 0.  0.
        -12    1    1    2    0    0 -0.17866655167E+02  0.25501250518E+02  0.26146404363E+02  0.40659139267E+02  0.00000000000E+00 0.  1.
         11    1    3    3    0    0  0.11715588875E+02  0.92433888068E+00 -0.73966821948E+01  0.13885976120E+02  0.51100000000E-03 0. -1.
        -11    1    3    3    0    0  0.49749527549E+01 -0.19273387219E+02 -0.41358628605E+01  0.20330247703E+02  0.51100000000E-03 0.  1.
         12    1    3    3    0    0  0.11761135374E+01 -0.71522021799E+01 -0.14613859308E+02  0.16312636910E+02  0.00000000000E+00 0. -1.
</event>
<event>
 7    1  0.5913457E-013  0.5052886E+02  0.7816164E-02  0.1300439E+00
        -11   -1    0    0    0    0  0.00000000000E+00  0.00000000000E+00  0.45593999997E+02  0.45594000000E+02  0.51100000000E-03 0.  1.
         11   -1    0    0    0    0 -0.00000000000E+00 -0.00000000000E+00 -0.45593999997E+02  0.45594000000E+02  0.51100000000E-03 0. -1.
    9900012    2    1    2    0    0 -0.10899471465E+01  0.13099912553E+02 -0.38475573922E+02  0.50528862253E+02  0.30000007304E+02 0.  0.
        -12    1    1    2    0    0  0.10899471465E+01 -0.13099912553E+02  0.38475573922E+02  0.40659137747E+02  0.00000000000E+00 0.  1.
         11    1    3    3    0    0 -0.75877637340E+00  0.11399635417E+01 -0.16991616436E+02  0.17046709002E+02  0.51100000000E-03 0. -1.
        -11    1    3    3    0    0  0.89452269906E+01  0.22297110011E-01 -0.13998024683E+02  0.16612112399E+02  0.51100000000E-03 0.  1.
        -12    1    3    3    0    0 -0.92763977638E+01  0.11937651901E+02 -0.74859328035E+01  0.16870040851E+02  0.00000000000E+00 0.  1.
</event>
<event>
 7    1  0.5913457E-013  0.5052886E+02  0.7816164E-02  0.1300439E+00
        -11   -1    0    0    0    0  0.00000000000E+00  0.00000000000E+00  0.45593999997E+02  0.45594000000E+02  0.51100000000E-03 0.  1.
         11   -1    0    0    0    0 -0.00000000000E+00 -0.00000000000E+00 -0.45593999997E+02  0.45594000000E+02  0.51100000000E-03 0. -1.
    9900012    2    1    2    0    0  0.17638890527E+02  0.23393663868E+02 -0.28191698365E+02  0.50528858040E+02  0.29999994499E+02 0.  0.
        -12    1    1    2    0    0 -0.17638890527E+02 -0.23393663868E+02  0.28191698365E+02  0.40659141960E+02  0.00000000000E+00 0.  1.
         11    1    3    3    0    0  0.82744071817E+01 -0.52747501625E-02 -0.12713605161E+02  0.15169100121E+02  0.51100000000E-03 0. -1.
        -11    1    3    3    0    0  0.77064489111E+01  0.20391677262E+02 -0.20066267441E+02  0.29628785760E+02  0.51100000000E-03 0.  1.
        -12    1    3    3    0    0  0.16580344346E+01  0.30072613563E+01  0.45881742373E+01  0.57309721587E+01  0.00000000000E+00 0.  1.
</event>
<event>
 7    1  0.5913457E-013  0.5052886E+02  0.7816164E-02  0.1300439E+00
        -11   -1    0    0    0    0  0.00000000000E+00  0.00000000000E+00  0.45593999997E+02  0.45594000000E+02  0.51100000000E-03 0.  1.
         11   -1    0    0    0    0 -0.00000000000E+00 -0.00000000000E+00 -0.45593999997E+02  0.45594000000E+02  0.51100000000E-03 0. -1.
    9900012    2    1    2    0    0 -0.30238592548E+02  0.14677072459E+02 -0.22877432979E+02  0.50528857425E+02  0.29999992628E+02 0.  0.
        -12    1    1    2    0    0  0.30238592548E+02 -0.14677072459E+02  0.22877432979E+02  0.40659142575E+02  0.00000000000E+00 0.  1.
         11    1    3    3    0    0 -0.58430056599E+01 -0.26721114074E+01 -0.85942307149E+01  0.10730409888E+02  0.51100000000E-03 0. -1.
        -11    1    3    3    0    0 -0.98595116538E+00 -0.88139472501E+00 -0.96831391549E+01  0.97730312859E+01  0.51100000000E-03 0.  1.
        -12    1    3    3    0    0 -0.23409635723E+02  0.18230578592E+02 -0.46000631089E+01  0.30025416251E+02  0.00000000000E+00 0.  1.
</event>
<event>
 7    1  0.5913457E-013  0.5052886E+02  0.7816164E-02  0.1300439E+00
        -11   -1    0    0    0    0  0.00000000000E+00  0.00000000000E+00  0.45593999997E+02  0.45594000000E+02  0.51100000000E-03 0. -1.
         11   -1    0    0    0    0 -0.00000000000E+00 -0.00000000000E+00 -0.45593999997E+02  0.45594000000E+02  0.51100000000E-03 0.  1.
    9900012    2    1    2    0    0  0.33711045500E+02 -0.21944180096E+02 -0.59316215058E+01  0.50528858808E+02  0.29999996833E+02 0.  0.
        -12    1    1    2    0    0 -0.33711045500E+02  0.21944180096E+02  0.59316215058E+01  0.40659141192E+02  0.00000000000E+00 0.  1.
         11    1    3    3    0    0  0.48844588972E+01 -0.81345242666E+01  0.29609094606E+01  0.99395879621E+01  0.51100000000E-03 0. -1.
        -11    1    3    3    0    0  0.24146962451E+01 -0.47966332239E+01 -0.11367716933E+02  0.12572328216E+02  0.51100000000E-03 0.  1.
         12    1    3    3    0    0  0.26411890358E+02 -0.90130226054E+01  0.24751859664E+01  0.28016942630E+02  0.00000000000E+00 0. -1.
</event>
<event>
 7    1  0.5913457E-013  0.5052886E+02  0.7816164E-02  0.1300439E+00
        -11   -1    0    0    0    0  0.00000000000E+00  0.00000000000E+00  0.45593999997E+02  0.45594000000E+02  0.51100000000E-03 0. -1.
         11   -1    0    0    0    0 -0.00000000000E+00 -0.00000000000E+00 -0.45593999997E+02  0.45594000000E+02  0.51100000000E-03 0.  1.
    9900012    2    1    2    0    0 -0.30725042142E+00 -0.21020883906E+02  0.34802210372E+02  0.50528858226E+02  0.29999995065E+02 0.  0.
        -12    1    1    2    0    0  0.30725042142E+00  0.21020883906E+02 -0.34802210372E+02  0.40659141774E+02  0.00000000000E+00 0.  1.
         11    1    3    3    0    0 -0.21973425644E+01 -0.88376868181E+00 -0.13055213326E+01  0.27043941354E+01  0.51100000000E-03 0. -1.
        -11    1    3    3    0    0 -0.81072552857E+01 -0.43450388163E+01  0.27724281077E+01  0.96069406398E+01  0.51100000000E-03 0.  1.
         12    1    3    3    0    0  0.99973474287E+01 -0.15792076408E+02  0.33335303597E+02  0.38217523451E+02  0.00000000000E+00 0. -1.
</event>
<event>
 7    1  0.5913457E-013  0.5052887E+02  0.7816164E-02  0.1300439E+00
        -11   -1    0    0    0    0  0.00000000000E+00  0.00000000000E+00  0.45593999997E+02  0.45594000000E+02  0.51100000000E-03 0.  1.
         11   -1    0    0    0    0 -0.00000000000E+00 -0.00000000000E+00 -0.45593999997E+02  0.45594000000E+02  0.51100000000E-03 0. -1.
    9900012    2    1    2    0    0  0.11070065651E+01  0.28019120318E+02 -0.29442622902E+02  0.50528872977E+02  0.30000039900E+02 0.  0.
        -12    1    1    2    0    0 -0.11070065651E+01 -0.28019120318E+02  0.29442622902E+02  0.40659127023E+02  0.00000000000E+00 0.  1.
         11    1    3    3    0    0  0.89742813901E+01  0.13078237187E+02 -0.15399567741E+02  0.22107118792E+02  0.51100000000E-03 0. -1.
        -11    1    3    3    0    0  0.82136928338E+00  0.11024360366E+02 -0.15228192214E+02  0.18817784337E+02  0.51100000000E-03 0.  1.
        -12    1    3    3    0    0 -0.86886441084E+01  0.39165227651E+01  0.11851370530E+01  0.96039698482E+01  0.00000000000E+00 0.  1.
</event>
<event>
 7    1  0.5913457E-013  0.5052886E+02  0.7816164E-02  0.1300439E+00
        -11   -1    0    0    0    0  0.00000000000E+00  0.00000000000E+00  0.45593999997E+02  0.45594000000E+02  0.51100000000E-03 0. -1.
         11   -1    0    0    0    0 -0.00000000000E+00 -0.00000000000E+00 -0.45593999997E+02  0.45594000000E+02  0.51100000000E-03 0.  1.
    9900012    2    1    2    0    0  0.64800106018E+01 -0.43131993155E+01  0.39907039061E+02  0.50528855981E+02  0.29999988239E+02 0.  0.
        -12    1    1    2    0    0 -0.64800106018E+01  0.43131993155E+01 -0.39907039061E+02  0.40659144019E+02  0.00000000000E+00 0.  1.
         11    1    3    3    0    0  0.62531163688E+01  0.96178374689E+00  0.60027265001E+01  0.87211936107E+01  0.51100000000E-03 0. -1.
        -11    1    3    3    0    0 -0.45516456173E+01 -0.15651772654E+01 -0.21340219740E+01  0.52651028237E+01  0.51100000000E-03 0.  1.
        -12    1    3    3    0    0  0.47785398502E+01 -0.37098057970E+01  0.36038334535E+02  0.36542559547E+02  0.00000000000E+00 0.  1.
</event>
<event>
 7    1  0.5913457E-013  0.5052886E+02  0.7816164E-02  0.1300439E+00
        -11   -1    0    0    0    0  0.00000000000E+00  0.00000000000E+00  0.45593999997E+02  0.45594000000E+02  0.51100000000E-03 0.  1.
         11   -1    0    0    0    0 -0.00000000000E+00 -0.00000000000E+00 -0.45593999997E+02  0.45594000000E+02  0.51100000000E-03 0. -1.
    9900012    2    1    2    0    0  0.28149071578E+01 -0.16456934410E+00 -0.40561249997E+02  0.50528858510E+02  0.29999995926E+02 0.  0.
        -12    1    1    2    0    0 -0.28149071578E+01  0.16456934410E+00  0.40561249997E+02  0.40659141490E+02  0.00000000000E+00 0.  1.
         11    1    3    3    0    0  0.13805196742E+02 -0.34552638569E+01 -0.21122892449E+02  0.25469567940E+02  0.51100000000E-03 0. -1.
        -11    1    3    3    0    0 -0.61173118573E+01 -0.35833535906E+01 -0.64951591017E+01  0.96150413069E+01  0.51100000000E-03 0.  1.
        -12    1    3    3    0    0 -0.48729777268E+01  0.68740481034E+01 -0.12943198447E+02  0.15444249262E+02  0.00000000000E+00 0.  1.
</event>
<event>
 7    1  0.5913457E-013  0.5052885E+02  0.7816164E-02  0.1300439E+00
        -11   -1    0    0    0    0  0.00000000000E+00  0.00000000000E+00  0.45593999997E+02  0.45594000000E+02  0.51100000000E-03 0.  1.
         11   -1    0    0    0    0 -0.00000000000E+00 -0.00000000000E+00 -0.45593999997E+02  0.45594000000E+02  0.51100000000E-03 0. -1.
    9900012    2    1    2    0    0 -0.15580467836E+02 -0.18046398826E+02 -0.32935434635E+02  0.50528851667E+02  0.29999975127E+02 0.  0.
        -12    1    1    2    0    0  0.15580467836E+02  0.18046398826E+02  0.32935434635E+02  0.40659148333E+02  0.00000000000E+00 0.  1.
         11    1    3    3    0    0  0.54819398794E+01  0.15886458922E+01 -0.65531388409E+01  0.86901720087E+01  0.51100000000E-03 0. -1.
        -11    1    3    3    0    0 -0.34076871440E+01 -0.71225084121E+01 -0.15990500504E+02  0.17833635759E+02  0.51100000000E-03 0.  1.
         12    1    3    3    0    0 -0.17654720571E+02 -0.12512536306E+02 -0.10391795290E+02  0.24005043899E+02  0.00000000000E+00 0. -1.
</event>
<event>
 7    1  0.5913457E-013  0.5052888E+02  0.7816164E-02  0.1300439E+00
        -11   -1    0    0    0    0  0.00000000000E+00  0.00000000000E+00  0.45593999997E+02  0.45594000000E+02  0.51100000000E-03 0.  1.
         11   -1    0    0    0    0 -0.00000000000E+00 -0.00000000000E+00 -0.45593999997E+02  0.45594000000E+02  0.51100000000E-03 0. -1.
    9900012    2    1    2    0    0  0.15858493073E+02  0.28975801017E+02 -0.23708131860E+02  0.50528876013E+02  0.30000049128E+02 0.  0.
        -12    1    1    2    0    0 -0.15858493073E+02 -0.28975801017E+02  0.23708131860E+02  0.40659123987E+02  0.00000000000E+00 0.  1.
         11    1    3    3    0    0  0.42204596797E+01  0.12800998717E+02 -0.14180398381E+02  0.19564292642E+02  0.51100000000E-03 0. -1.
        -11    1    3    3    0    0  0.70602175644E+01 -0.11428996262E+01 -0.10858908296E+02  0.13002645164E+02  0.51100000000E-03 0.  1.
        -12    1    3    3    0    0  0.45778158291E+01  0.17317701926E+02  0.13311748171E+01  0.17961938207E+02  0.00000000000E+00 0.  1.
</event>
<event>
 7    1  0.5913457E-013  0.5052886E+02  0.7816164E-02  0.1300439E+00
        -11   -1    0    0    0    0  0.00000000000E+00  0.00000000000E+00  0.45593999997E+02  0.45594000000E+02  0.51100000000E-03 0.  1.
         11   -1    0    0    0    0 -0.00000000000E+00 -0.00000000000E+00 -0.45593999997E+02  0.45594000000E+02  0.51100000000E-03 0. -1.
    9900012    2    1    2    0    0 -0.10583131133E+02 -0.21808962949E+02 -0.32642488110E+02  0.50528861304E+02  0.30000004420E+02 0.  0.
        -12    1    1    2    0    0  0.10583131133E+02  0.21808962949E+02  0.32642488110E+02  0.40659138696E+02  0.00000000000E+00 0.  1.
         11    1    3    3    0    0  0.66134545161E+00  0.21302546236E+01 -0.67250569476E+01  0.70853195960E+01  0.51100000000E-03 0. -1.
        -11    1    3    3    0    0 -0.11186177600E+02 -0.63846733944E+01 -0.94001564559E+00  0.12914265497E+02  0.51100000000E-03 0.  1.
         12    1    3    3    0    0 -0.58298984688E-01 -0.17554544178E+02 -0.24977415517E+02  0.30529276211E+02  0.00000000000E+00 0. -1.
</event>
<event>
 7    1  0.5913457E-013  0.5052886E+02  0.7816164E-02  0.1300439E+00
        -11   -1    0    0    0    0  0.00000000000E+00  0.00000000000E+00  0.45593999997E+02  0.45594000000E+02  0.51100000000E-03 0.  1.
         11   -1    0    0    0    0 -0.00000000000E+00 -0.00000000000E+00 -0.45593999997E+02  0.45594000000E+02  0.51100000000E-03 0. -1.
    9900012    2    1    2    0    0  0.75135591738E+01 -0.34895381555E+02 -0.19468558297E+02  0.50528856041E+02  0.29999988421E+02 0.  0.
        -12    1    1    2    0    0 -0.75135591738E+01  0.34895381555E+02  0.19468558297E+02  0.40659143959E+02  0.00000000000E+00 0.  1.
         11    1    3    3    0    0 -0.89852717347E+01 -0.12199063040E+02 -0.82305430790E+01  0.17242218153E+02  0.51100000000E-03 0. -1.
        -11    1    3    3    0    0 -0.17541263974E+01 -0.55825907264E+00 -0.28505510863E+01  0.33932660324E+01  0.51100000000E-03 0.  1.
         12    1    3    3    0    0  0.18252957306E+02 -0.22138059442E+02 -0.83874641316E+01  0.29893371855E+02  0.00000000000E+00 0. -1.
</event>
<event>
 7    1  0.5913457E-013  0.5052886E+02  0.7816164E-02  0.1300439E+00
        -11   -1    0    0    0    0  0.00000000000E+00  0.00000000000E+00  0.45593999997E+02  0.45594000000E+02  0.51100000000E-03 0. -1.
         11   -1    0    0    0    0 -0.00000000000E+00 -0.00000000000E+00 -0.45593999997E+02  0.45594000000E+02  0.51100000000E-03 0.  1.
    9900012    2    1    2    0    0 -0.11411121970E+02 -0.20824617231E+02  0.33004353341E+02  0.50528859245E+02  0.29999998163E+02 0.  0.
        -12    1    1    2    0    0  0.11411121970E+02  0.20824617231E+02 -0.33004353341E+02  0.40659140755E+02  0.00000000000E+00 0.  1.
         11    1    3    3    0    0 -0.66240582316E+01 -0.14559018133E+02  0.32647058133E+00  0.15998429290E+02  0.51100000000E-03 0.  1.
        -11    1    3    3    0    0 -0.31061314171E+01 -0.13433463495E+01  0.34110261125E+01  0.48049694272E+01  0.51100000000E-03 0. -1.
        -12    1    3    3    0    0 -0.16809323213E+01 -0.49222527484E+01  0.29266856647E+02  0.29725460528E+02  0.00000000000E+00 0.  1.
</event>
<event>
 7    1  0.5913457E-013  0.5052888E+02  0.7816164E-02  0.1300439E+00
        -11   -1    0    0    0    0  0.00000000000E+00  0.00000000000E+00  0.45593999997E+02  0.45594000000E+02  0.51100000000E-03 0.  1.
         11   -1    0    0    0    0 -0.00000000000E+00 -0.00000000000E+00 -0.45593999997E+02  0.45594000000E+02  0.51100000000E-03 0. -1.
    9900012    2    1    2    0    0  0.23926264327E+02  0.26787061181E+02  0.19056534516E+02  0.50528877050E+02  0.30000052280E+02 0.  0.
        -12    1    1    2    0    0 -0.23926264327E+02 -0.26787061181E+02 -0.19056534516E+02  0.40659122950E+02  0.00000000000E+00 0.  1.
         11    1    3    3    0    0  0.17184473070E+01  0.19414466376E+01  0.16156168863E+01  0.30549131539E+01  0.51100000000E-03 0. -1.
        -11    1    3    3    0    0  0.15663719795E+02  0.20024540311E+02  0.25513869760E+02  0.36017938349E+02  0.51100000000E-03 0.  1.
        -12    1    3    3    0    0  0.65440972250E+01  0.48210742318E+01 -0.80729521305E+01  0.11456025547E+02  0.00000000000E+00 0.  1.
</event>
<event>
 7    1  0.5913457E-013  0.5052887E+02  0.7816164E-02  0.1300439E+00
        -11   -1    0    0    0    0  0.00000000000E+00  0.00000000000E+00  0.45593999997E+02  0.45594000000E+02  0.51100000000E-03 0. -1.
         11   -1    0    0    0    0 -0.00000000000E+00 -0.00000000000E+00 -0.45593999997E+02  0.45594000000E+02  0.51100000000E-03 0.  1.
    9900012    2    1    2    0    0 -0.14894503225E+02 -0.34106420778E+02 -0.16372864262E+02  0.50528870045E+02  0.30000030988E+02 0.  0.
        -12    1    1    2    0    0  0.14894503225E+02  0.34106420778E+02  0.16372864262E+02  0.40659129955E+02  0.00000000000E+00 0.  1.
         11    1    3    3    0    0 -0.16392608686E+01 -0.52820459401E-01  0.17704076622E+01  0.24133606751E+01  0.51100000000E-03 0. -1.
        -11    1    3    3    0    0  0.54290511710E+01 -0.66213506613E+01  0.26331437232E+01  0.89582547031E+01  0.51100000000E-03 0.  1.
         12    1    3    3    0    0 -0.18684293528E+02 -0.27432249657E+02 -0.20776415647E+02  0.39157254666E+02  0.00000000000E+00 0. -1.
</event>
<event>
 7    1  0.5913457E-013  0.5052886E+02  0.7816164E-02  0.1300439E+00
        -11   -1    0    0    0    0  0.00000000000E+00  0.00000000000E+00  0.45593999997E+02  0.45594000000E+02  0.51100000000E-03 0.  1.
         11   -1    0    0    0    0 -0.00000000000E+00 -0.00000000000E+00 -0.45593999997E+02  0.45594000000E+02  0.51100000000E-03 0. -1.
    9900012    2    1    2    0    0  0.27089816066E+02  0.12437467879E+02 -0.27651708267E+02  0.50528859431E+02  0.29999998727E+02 0.  0.
        -12    1    1    2    0    0 -0.27089816066E+02 -0.12437467879E+02  0.27651708267E+02  0.40659140569E+02  0.00000000000E+00 0.  1.
         11    1    3    3    0    0  0.39380800139E+01  0.13207881108E+01  0.30100996128E+01  0.51296837495E+01  0.51100000000E-03 0. -1.
        -11    1    3    3    0    0 -0.40628292156E+01  0.18813763496E+01 -0.23476019748E+01  0.50554320782E+01  0.51100000000E-03 0.  1.
         12    1    3    3    0    0  0.27214565267E+02  0.92353034182E+01 -0.28314205905E+02  0.40343743604E+02  0.00000000000E+00 0. -1.
</event>
<event>
 7    1  0.5913457E-013  0.5052886E+02  0.7816164E-02  0.1300439E+00
        -11   -1    0    0    0    0  0.00000000000E+00  0.00000000000E+00  0.45593999997E+02  0.45594000000E+02  0.51100000000E-03 0.  1.
         11   -1    0    0    0    0 -0.00000000000E+00 -0.00000000000E+00 -0.45593999997E+02  0.45594000000E+02  0.51100000000E-03 0. -1.
    9900012    2    1    2    0    0 -0.56866926693E+00 -0.90232277537E+01 -0.39641188602E+02  0.50528857638E+02  0.29999993276E+02 0.  0.
        -12    1    1    2    0    0  0.56866926693E+00  0.90232277537E+01  0.39641188602E+02  0.40659142362E+02  0.00000000000E+00 0.  1.
         11    1    3    3    0    0  0.10179380192E+01  0.26962517554E+01  0.98858598134E-02  0.28820252134E+01  0.51100000000E-03 0. -1.
        -11    1    3    3    0    0  0.10266596509E+02 -0.16518574270E+01 -0.11641544716E+02  0.15609522750E+02  0.51100000000E-03 0.  1.
         12    1    3    3    0    0 -0.11853203795E+02 -0.10067622082E+02 -0.28009529746E+02  0.32037309675E+02  0.00000000000E+00 0. -1.
</event>
<event>
 7    1  0.5913457E-013  0.5052874E+02  0.7816164E-02  0.1300439E+00
        -11   -1    0    0    0    0  0.00000000000E+00  0.00000000000E+00  0.45593999997E+02  0.45594000000E+02  0.51100000000E-03 0. -1.
         11   -1    0    0    0    0 -0.00000000000E+00 -0.00000000000E+00 -0.45593999997E+02  0.45594000000E+02  0.51100000000E-03 0.  1.
    9900012    2    1    2    0    0  0.24429315597E+02 -0.16743026712E+02 -0.27857764697E+02  0.50528739580E+02  0.29999634425E+02 0.  0.
        -12    1    1    2    0    0 -0.24429315597E+02  0.16743026712E+02  0.27857764697E+02  0.40659260420E+02  0.00000000000E+00 0.  1.
         11    1    3    3    0    0  0.83865964498E+01 -0.24668848629E+01 -0.16415959689E+01  0.88946814741E+01  0.51100000000E-03 0. -1.
        -11    1    3    3    0    0 -0.11991496268E+00  0.30455770077E+01  0.28246224262E+01  0.41555277667E+01  0.51100000000E-03 0.  1.
         12    1    3    3    0    0  0.16162634109E+02 -0.17321718857E+02 -0.29040791154E+02  0.37478530339E+02  0.00000000000E+00 0. -1.
</event>
<event>
 7    1  0.5913457E-013  0.5052886E+02  0.7816164E-02  0.1300439E+00
        -11   -1    0    0    0    0  0.00000000000E+00  0.00000000000E+00  0.45593999997E+02  0.45594000000E+02  0.51100000000E-03 0.  1.
         11   -1    0    0    0    0 -0.00000000000E+00 -0.00000000000E+00 -0.45593999997E+02  0.45594000000E+02  0.51100000000E-03 0. -1.
    9900012    2    1    2    0    0 -0.30532333724E+01 -0.29049504735E+02 -0.28283742155E+02  0.50528855522E+02  0.29999986845E+02 0.  0.
        -12    1    1    2    0    0  0.30532333724E+01  0.29049504735E+02  0.28283742155E+02  0.40659144478E+02  0.00000000000E+00 0.  1.
         11    1    3    3    0    0 -0.27015282562E+01 -0.53302883072E+01 -0.17049846808E+01  0.62142740027E+01  0.51100000000E-03 0. -1.
        -11    1    3    3    0    0  0.64053730493E+01 -0.26519884961E+02 -0.16577831652E+02  0.31924247913E+02  0.51100000000E-03 0.  1.
         12    1    3    3    0    0 -0.67570781655E+01  0.28006685334E+01 -0.10000925823E+02  0.12390333606E+02  0.00000000000E+00 0. -1.
</event>
<event>
 7    1  0.5913457E-013  0.5052886E+02  0.7816164E-02  0.1300439E+00
        -11   -1    0    0    0    0  0.00000000000E+00  0.00000000000E+00  0.45593999997E+02  0.45594000000E+02  0.51100000000E-03 0. -1.
         11   -1    0    0    0    0 -0.00000000000E+00 -0.00000000000E+00 -0.45593999997E+02  0.45594000000E+02  0.51100000000E-03 0.  1.
    9900012    2    1    2    0    0 -0.22556448247E+02  0.93288312860E+01  0.32516845735E+02  0.50528859487E+02  0.29999998898E+02 0.  0.
        -12    1    1    2    0    0  0.22556448247E+02 -0.93288312860E+01 -0.32516845735E+02  0.40659140513E+02  0.00000000000E+00 0.  1.
         11    1    3    3    0    0 -0.98205208421E+01 -0.73224225866E+01  0.93948539477E+01  0.15437738925E+02  0.51100000000E-03 0. -1.
        -11    1    3    3    0    0 -0.52130035512E+01 -0.24739665234E+01  0.61956033322E+01  0.84664878961E+01  0.51100000000E-03 0.  1.
        -12    1    3    3    0    0 -0.75229238541E+01  0.19125220396E+02  0.16926388455E+02  0.26624632667E+02  0.00000000000E+00 0.  1.
</event>
<event>
 7    1  0.5913457E-013  0.5052887E+02  0.7816164E-02  0.1300439E+00
        -11   -1    0    0    0    0  0.00000000000E+00  0.00000000000E+00  0.45593999997E+02  0.45594000000E+02  0.51100000000E-03 0.  1.
         11   -1    0    0    0    0 -0.00000000000E+00 -0.00000000000E+00 -0.45593999997E+02  0.45594000000E+02  0.51100000000E-03 0. -1.
    9900012    2    1    2    0    0 -0.10658848782E+02  0.19484935283E+02 -0.34057174898E+02  0.50528869139E+02  0.30000028235E+02 0.  0.
        -12    1    1    2    0    0  0.10658848782E+02 -0.19484935283E+02  0.34057174898E+02  0.40659130861E+02  0.00000000000E+00 0.  1.
         11    1    3    3    0    0 -0.85323365460E+01  0.11252200299E+02 -0.21269434812E+02  0.25530406107E+02  0.51100000000E-03 0. -1.
        -11    1    3    3    0    0 -0.92454523366E+01  0.74931124544E+01 -0.20227616163E+01  0.12071316746E+02  0.51100000000E-03 0.  1.
        -12    1    3    3    0    0  0.71189401010E+01  0.73962252920E+00 -0.10764978469E+02  0.12927146286E+02  0.00000000000E+00 0.  1.
</event>
<event>
 7    1  0.5913457E-013  0.5052886E+02  0.7816164E-02  0.1300439E+00
        -11   -1    0    0    0    0  0.00000000000E+00  0.00000000000E+00  0.45593999997E+02  0.45594000000E+02  0.51100000000E-03 0. -1.
         11   -1    0    0    0    0 -0.00000000000E+00 -0.00000000000E+00 -0.45593999997E+02  0.45594000000E+02  0.51100000000E-03 0.  1.
    9900012    2    1    2    0    0  0.16563675487E+02 -0.14412957270E+02  0.34221002168E+02  0.50528859917E+02  0.30000000204E+02 0.  0.
        -12    1    1    2    0    0 -0.16563675487E+02  0.14412957270E+02 -0.34221002168E+02  0.40659140083E+02  0.00000000000E+00 0.  1.
         11    1    3    3    0    0  0.21836946462E+01 -0.15769114444E+02  0.14266587598E+02  0.21376833596E+02  0.51100000000E-03 0. -1.
        -11    1    3    3    0    0 -0.30084389258E+01 -0.10514835089E+01  0.57358539184E+01  0.65617332142E+01  0.51100000000E-03 0.  1.
        -12    1    3    3    0    0  0.17388419767E+02  0.24076406823E+01  0.14218560651E+02  0.22590293106E+02  0.00000000000E+00 0.  1.
</event>
<event>
 7    1  0.5913457E-013  0.5052886E+02  0.7816164E-02  0.1300439E+00
        -11   -1    0    0    0    0  0.00000000000E+00  0.00000000000E+00  0.45593999997E+02  0.45594000000E+02  0.51100000000E-03 0. -1.
         11   -1    0    0    0    0 -0.00000000000E+00 -0.00000000000E+00 -0.45593999997E+02  0.45594000000E+02  0.51100000000E-03 0.  1.
    9900012    2    1    2    0    0  0.19866271441E+02 -0.16106499747E+02  0.31608188292E+02  0.50528860287E+02  0.30000001329E+02 0.  0.
        -12    1    1    2    0    0 -0.19866271441E+02  0.16106499747E+02 -0.31608188292E+02  0.40659139713E+02  0.00000000000E+00 0.  1.
         11    1    3    3    0    0  0.19206118904E+02 -0.39826639942E+01  0.12487052568E+02  0.23252163296E+02  0.51100000000E-03 0. -1.
        -11    1    3    3    0    0  0.73340858892E+01 -0.48570603234E+01  0.52159684382E+01  0.10226738377E+02  0.51100000000E-03 0.  1.
        -12    1    3    3    0    0 -0.66739333519E+01 -0.72667754290E+01  0.13905167286E+02  0.17049958615E+02  0.00000000000E+00 0.  1.
</event>
<event>
 7    1  0.5913457E-013  0.5052885E+02  0.7816164E-02  0.1300439E+00
        -11   -1    0    0    0    0  0.00000000000E+00  0.00000000000E+00  0.45593999997E+02  0.45594000000E+02  0.51100000000E-03 0. -1.
         11   -1    0    0    0    0 -0.00000000000E+00 -0.00000000000E+00 -0.45593999997E+02  0.45594000000E+02  0.51100000000E-03 0.  1.
    9900012    2    1    2    0    0 -0.12044378581E+02  0.25845799490E+02  0.28984370660E+02  0.50528854052E+02  0.29999982376E+02 0.  0.
        -12    1    1    2    0    0  0.12044378581E+02 -0.25845799490E+02 -0.28984370660E+02  0.40659145948E+02  0.00000000000E+00 0.  1.
         11    1    3    3    0    0 -0.14918181741E+02  0.14059616947E+02  0.98892886609E+01  0.22760118753E+02  0.51100000000E-03 0. -1.
        -11    1    3    3    0    0 -0.60621353081E+01  0.30943905068E+01  0.30715309277E+01  0.74671975736E+01  0.51100000000E-03 0.  1.
         12    1    3    3    0    0  0.89359384680E+01  0.86917920362E+01  0.16023551071E+02  0.20301537726E+02  0.00000000000E+00 0. -1.
</event>
<event>
 7    1  0.5913457E-013  0.5052886E+02  0.7816164E-02  0.1300439E+00
        -11   -1    0    0    0    0  0.00000000000E+00  0.00000000000E+00  0.45593999997E+02  0.45594000000E+02  0.51100000000E-03 0. -1.
         11   -1    0    0    0    0 -0.00000000000E+00 -0.00000000000E+00 -0.45593999997E+02  0.45594000000E+02  0.51100000000E-03 0.  1.
    9900012    2    1    2    0    0 -0.25400505387E+00 -0.40639826131E+02  0.12271284752E+01  0.50528857967E+02  0.29999994278E+02 0.  0.
        -12    1    1    2    0    0  0.25400505387E+00  0.40639826131E+02 -0.12271284752E+01  0.40659142033E+02  0.00000000000E+00 0.  1.
         11    1    3    3    0    0  0.39050594923E+01 -0.13293014783E+02  0.11433498636E+02  0.17963257583E+02  0.51100000000E-03 0. -1.
        -11    1    3    3    0    0 -0.20404757044E+00 -0.85135224192E+01  0.32159842926E+01  0.91029805352E+01  0.51100000000E-03 0.  1.
        -12    1    3    3    0    0 -0.39550169757E+01 -0.18833288928E+02 -0.13422354453E+02  0.23462619849E+02  0.00000000000E+00 0.  1.
</event>
<event>
 7    1  0.5913457E-013  0.5052894E+02  0.7816164E-02  0.1300439E+00
        -11   -1    0    0    0    0  0.00000000000E+00  0.00000000000E+00  0.45593999997E+02  0.45594000000E+02  0.51100000000E-03 0.  1.
         11   -1    0    0    0    0 -0.00000000000E+00 -0.00000000000E+00 -0.45593999997E+02  0.45594000000E+02  0.51100000000E-03 0. -1.
    9900012    2    1    2    0    0 -0.43753678795E+01 -0.13816073491E+02 -0.37988570557E+02  0.50528939217E+02  0.30000241244E+02 0.  0.
        -12    1    1    2    0    0  0.43753678795E+01  0.13816073491E+02  0.37988570557E+02  0.40659060783E+02  0.00000000000E+00 0.  1.
         11    1    3    3    0    0 -0.61692978596E+01 -0.34211366837E+01 -0.54667365447E+01  0.89246636351E+01  0.51100000000E-03 0. -1.
        -11    1    3    3    0    0 -0.29251035094E+01  0.64006143820E+01 -0.37962929460E+01  0.79959949601E+01  0.51100000000E-03 0.  1.
         12    1    3    3    0    0  0.47190334896E+01 -0.16795551190E+02 -0.28725541066E+02  0.33608280622E+02  0.00000000000E+00 0. -1.
</event>
<event>
 7    1  0.5913457E-013  0.5052887E+02  0.7816164E-02  0.1300439E+00
        -11   -1    0    0    0    0  0.00000000000E+00  0.00000000000E+00  0.45593999997E+02  0.45594000000E+02  0.51100000000E-03 0.  1.
         11   -1    0    0    0    0 -0.00000000000E+00 -0.00000000000E+00 -0.45593999997E+02  0.45594000000E+02  0.51100000000E-03 0. -1.
    9900012    2    1    2    0    0 -0.19474637989E+02 -0.84898122716E+01 -0.34667373770E+02  0.50528865217E+02  0.30000016312E+02 0.  0.
        -12    1    1    2    0    0  0.19474637989E+02  0.84898122716E+01  0.34667373770E+02  0.40659134783E+02  0.00000000000E+00 0.  1.
         11    1    3    3    0    0 -0.20386937290E+01  0.21581879678E+01 -0.85883105522E+01  0.90869756150E+01  0.51100000000E-03 0. -1.
        -11    1    3    3    0    0  0.10565994210E+01  0.21607290162E+01 -0.17023106103E+02  0.17192187001E+02  0.51100000000E-03 0.  1.
        -12    1    3    3    0    0 -0.18492543681E+02 -0.12808729256E+02 -0.90559571147E+01  0.24249702600E+02  0.00000000000E+00 0.  1.
</event>
<event>
 7    1  0.5913457E-013  0.5052886E+02  0.7816164E-02  0.1300439E+00
        -11   -1    0    0    0    0  0.00000000000E+00  0.00000000000E+00  0.45593999997E+02  0.45594000000E+02  0.51100000000E-03 0.  1.
         11   -1    0    0    0    0 -0.00000000000E+00 -0.00000000000E+00 -0.45593999997E+02  0.45594000000E+02  0.51100000000E-03 0. -1.
    9900012    2    1    2    0    0 -0.31030561976E+02  0.19663646213E+02 -0.17424443246E+02  0.50528856116E+02  0.29999988652E+02 0.  0.
        -12    1    1    2    0    0  0.31030561976E+02 -0.19663646213E+02  0.17424443246E+02  0.40659143884E+02  0.00000000000E+00 0.  1.
         11    1    3    3    0    0 -0.32343636212E+01  0.23051638285E+01  0.34015314241E+01  0.52292738119E+01  0.51100000000E-03 0. -1.
        -11    1    3    3    0    0 -0.21216296347E+02  0.68259559423E+00 -0.60629224802E+01  0.22076145422E+02  0.51100000000E-03 0.  1.
        -12    1    3    3    0    0 -0.65799020071E+01  0.16675886790E+02 -0.14763052190E+02  0.23223436882E+02  0.00000000000E+00 0.  1.
</event>
<event>
 7    1  0.5913457E-013  0.5052886E+02  0.7816164E-02  0.1300439E+00
        -11   -1    0    0    0    0  0.00000000000E+00  0.00000000000E+00  0.45593999997E+02  0.45594000000E+02  0.51100000000E-03 0. -1.
         11   -1    0    0    0    0 -0.00000000000E+00 -0.00000000000E+00 -0.45593999997E+02  0.45594000000E+02  0.51100000000E-03 0.  1.
    9900012    2    1    2    0    0 -0.92380287632E+01 -0.28501466729E+02  0.27486190279E+02  0.50528862809E+02  0.30000008993E+02 0.  0.
        -12    1    1    2    0    0  0.92380287632E+01  0.28501466729E+02 -0.27486190279E+02  0.40659137191E+02  0.00000000000E+00 0.  1.
         11    1    3    3    0    0 -0.21561371952E+00 -0.41113319571E+01  0.15429291673E+02  0.15969113360E+02  0.51100000000E-03 0. -1.
        -11    1    3    3    0    0 -0.21197761119E+01 -0.32704688459E+01 -0.51489583686E+01  0.64576458388E+01  0.51100000000E-03 0.  1.
         12    1    3    3    0    0 -0.69026389318E+01 -0.21119665926E+02  0.17205856975E+02  0.28102103609E+02  0.00000000000E+00 0. -1.
</event>
<event>
 7    1  0.5913457E-013  0.5052885E+02  0.7816164E-02  0.1300439E+00
        -11   -1    0    0    0    0  0.00000000000E+00  0.00000000000E+00  0.45593999997E+02  0.45594000000E+02  0.51100000000E-03 0.  1.
         11   -1    0    0    0    0 -0.00000000000E+00 -0.00000000000E+00 -0.45593999997E+02  0.45594000000E+02  0.51100000000E-03 0. -1.
    9900012    2    1    2    0    0  0.22469908794E+02  0.38970580726E+01 -0.33661290904E+02  0.50528851360E+02  0.29999974194E+02 0.  0.
        -12    1    1    2    0    0 -0.22469908794E+02 -0.38970580726E+01  0.33661290904E+02  0.40659148640E+02  0.00000000000E+00 0.  1.
         11    1    3    3    0    0 -0.23410355245E+01 -0.11944279725E+00 -0.10038712678E+02  0.10308756782E+02  0.51100000000E-03 0. -1.
        -11    1    3    3    0    0 -0.25739752707E+01 -0.29925313253E+01 -0.49967582144E+01  0.63677457032E+01  0.51100000000E-03 0.  1.
         12    1    3    3    0    0  0.27384919589E+02  0.70090321952E+01 -0.18625820012E+02  0.33852348875E+02  0.00000000000E+00 0. -1.
</event>
<event>
 7    1  0.5913457E-013  0.5052884E+02  0.7816164E-02  0.1300439E+00
        -11   -1    0    0    0    0  0.00000000000E+00  0.00000000000E+00  0.45593999997E+02  0.45594000000E+02  0.51100000000E-03 0.  1.
         11   -1    0    0    0    0 -0.00000000000E+00 -0.00000000000E+00 -0.45593999997E+02  0.45594000000E+02  0.51100000000E-03 0. -1.
    9900012    2    1    2    0    0 -0.26209235939E+02  0.34465364639E-01 -0.31084435042E+02  0.50528839429E+02  0.29999937930E+02 0.  0.
        -12    1    1    2    0    0  0.26209235939E+02 -0.34465364639E-01  0.31084435042E+02  0.40659160571E+02  0.00000000000E+00 0.  1.
         11    1    3    3    0    0 -0.26904793275E+02 -0.22752065942E+01 -0.25304273336E+02  0.37004739096E+02  0.51100000000E-03 0. -1.
        -11    1    3    3    0    0 -0.39459521618E+01 -0.56179940818E+00  0.16424072297E+01  0.43108768026E+01  0.51100000000E-03 0.  1.
         12    1    3    3    0    0  0.46415094972E+01  0.28714713671E+01 -0.74225689360E+01  0.92132235311E+01  0.00000000000E+00 0. -1.
</event>
<event>
 7    1  0.5913457E-013  0.5052883E+02  0.7816164E-02  0.1300439E+00
        -11   -1    0    0    0    0  0.00000000000E+00  0.00000000000E+00  0.45593999997E+02  0.45594000000E+02  0.51100000000E-03 0. -1.
         11   -1    0    0    0    0 -0.00000000000E+00 -0.00000000000E+00 -0.45593999997E+02  0.45594000000E+02  0.51100000000E-03 0.  1.
    9900012    2    1    2    0    0 -0.25292830316E+02 -0.23280384398E+02 -0.21713236333E+02  0.50528828892E+02  0.29999905901E+02 0.  0.
        -12    1    1    2    0    0  0.25292830316E+02  0.23280384398E+02  0.21713236333E+02  0.40659171108E+02  0.00000000000E+00 0.  1.
         11    1    3    3    0    0 -0.11831486183E+02 -0.23928684054E+02 -0.15238738078E+02  0.30737357146E+02  0.51100000000E-03 0. -1.
        -11    1    3    3    0    0  0.10239915861E+01 -0.31146557900E+01 -0.29624441993E+01  0.44187911643E+01  0.51100000000E-03 0.  1.
         12    1    3    3    0    0 -0.14485335719E+02  0.37629554462E+01 -0.35120540559E+01  0.15372680582E+02  0.00000000000E+00 0. -1.
</event>
<event>
 7    1  0.5913457E-013  0.5052887E+02  0.7816164E-02  0.1300439E+00
        -11   -1    0    0    0    0  0.00000000000E+00  0.00000000000E+00  0.45593999997E+02  0.45594000000E+02  0.51100000000E-03 0.  1.
         11   -1    0    0    0    0 -0.00000000000E+00 -0.00000000000E+00 -0.45593999997E+02  0.45594000000E+02  0.51100000000E-03 0. -1.
    9900012    2    1    2    0    0  0.76919419227E+01  0.23242132171E+02 -0.32462314118E+02  0.50528874132E+02  0.30000043413E+02 0.  0.
        -12    1    1    2    0    0 -0.76919419227E+01 -0.23242132171E+02  0.32462314118E+02  0.40659125868E+02  0.00000000000E+00 0.  1.
         11    1    3    3    0    0  0.12743057875E+02  0.28285200494E+02 -0.26220224810E+02  0.40619432299E+02  0.51100000000E-03 0. -1.
        -11    1    3    3    0    0 -0.27093286380E+01 -0.17521611894E+01 -0.44351378649E+01  0.54846128983E+01  0.51100000000E-03 0.  1.
        -12    1    3    3    0    0 -0.23417873139E+01 -0.32909071336E+01 -0.18069514439E+01  0.44248289352E+01  0.00000000000E+00 0.  1.
</event>
<event>
 7    1  0.5913457E-013  0.5052887E+02  0.7816164E-02  0.1300439E+00
        -11   -1    0    0    0    0  0.00000000000E+00  0.00000000000E+00  0.45593999997E+02  0.45594000000E+02  0.51100000000E-03 0. -1.
         11   -1    0    0    0    0 -0.00000000000E+00 -0.00000000000E+00 -0.45593999997E+02  0.45594000000E+02  0.51100000000E-03 0.  1.
    9900012    2    1    2    0    0  0.38967108709E+02 -0.11532734401E+02  0.13136669330E+01  0.50528865175E+02  0.30000016187E+02 0.  0.
        -12    1    1    2    0    0 -0.38967108709E+02  0.11532734401E+02 -0.13136669330E+01  0.40659134825E+02  0.00000000000E+00 0.  1.
         11    1    3    3    0    0  0.23855423863E+02 -0.14472653330E+02 -0.80578906773E+00  0.27913943440E+02  0.51100000000E-03 0. -1.
        -11    1    3    3    0    0  0.33246037384E+01 -0.64416345195E+01  0.21110051134E+01  0.75500985523E+01  0.51100000000E-03 0.  1.
        -12    1    3    3    0    0  0.11787081108E+02  0.93815534479E+01  0.84508874164E-02  0.15064823183E+02  0.00000000000E+00 0.  1.
</event>
<event>
 7    1  0.5913457E-013  0.5052886E+02  0.7816164E-02  0.1300439E+00
        -11   -1    0    0    0    0  0.00000000000E+00  0.00000000000E+00  0.45593999997E+02  0.45594000000E+02  0.51100000000E-03 0. -1.
         11   -1    0    0    0    0 -0.00000000000E+00 -0.00000000000E+00 -0.45593999997E+02  0.45594000000E+02  0.51100000000E-03 0.  1.
    9900012    2    1    2    0    0  0.25482445986E+01 -0.23837155190E+02  0.32839951669E+02  0.50528856580E+02  0.29999990060E+02 0.  0.
        -12    1    1    2    0    0 -0.25482445986E+01  0.23837155190E+02 -0.32839951669E+02  0.40659143420E+02  0.00000000000E+00 0.  1.
         11    1    3    3    0    0 -0.61926057710E+01 -0.58658825312E+01  0.10048995394E+02  0.13181018655E+02  0.51100000000E-03 0. -1.
        -11    1    3    3    0    0 -0.57668147042E+01 -0.12157664038E+02  0.13990565074E+02  0.19411358995E+02  0.51100000000E-03 0.  1.
        -12    1    3    3    0    0  0.14507665074E+02 -0.58136086202E+01  0.88003912013E+01  0.17936478929E+02  0.00000000000E+00 0.  1.
</event>
<event>
 7    1  0.5913457E-013  0.5052887E+02  0.7816164E-02  0.1300439E+00
        -11   -1    0    0    0    0  0.00000000000E+00  0.00000000000E+00  0.45593999997E+02  0.45594000000E+02  0.51100000000E-03 0.  1.
         11   -1    0    0    0    0 -0.00000000000E+00 -0.00000000000E+00 -0.45593999997E+02  0.45594000000E+02  0.51100000000E-03 0. -1.
    9900012    2    1    2    0    0  0.27251846256E+02  0.24146397605E+02 -0.18095674811E+02  0.50528867096E+02  0.30000022024E+02 0.  0.
        -12    1    1    2    0    0 -0.27251846256E+02 -0.24146397605E+02  0.18095674811E+02  0.40659132904E+02  0.00000000000E+00 0.  1.
         11    1    3    3    0    0  0.79266017835E+01  0.61070898779E+01 -0.56203053730E+01  0.11476732782E+02  0.51100000000E-03 0. -1.
        -11    1    3    3    0    0 -0.59804325043E+01  0.10834281315E+00 -0.16850738889E+01  0.62142405309E+01  0.51100000000E-03 0.  1.
         12    1    3    3    0    0  0.25305676977E+02  0.17930964914E+02 -0.10790295549E+02  0.32837893782E+02  0.00000000000E+00 0. -1.
</event>
<event>
 7    1  0.5913457E-013  0.5052886E+02  0.7816164E-02  0.1300439E+00
        -11   -1    0    0    0    0  0.00000000000E+00  0.00000000000E+00  0.45593999997E+02  0.45594000000E+02  0.51100000000E-03 0. -1.
         11   -1    0    0    0    0 -0.00000000000E+00 -0.00000000000E+00 -0.45593999997E+02  0.45594000000E+02  0.51100000000E-03 0.  1.
    9900012    2    1    2    0    0 -0.86983888193E+01  0.27699752708E+02 -0.28464494024E+02  0.50528859721E+02  0.29999999609E+02 0.  0.
        -12    1    1    2    0    0  0.86983888193E+01 -0.27699752708E+02  0.28464494024E+02  0.40659140279E+02  0.00000000000E+00 0.  1.
         11    1    3    3    0    0 -0.43508779311E+00  0.28243903031E+01  0.16211094186E+01  0.32854950891E+01  0.51100000000E-03 0. -1.
        -11    1    3    3    0    0  0.81468937439E+01  0.95855097048E+01 -0.48542111966E+01  0.13483962347E+02  0.51100000000E-03 0.  1.
         12    1    3    3    0    0 -0.16410194770E+02  0.15289852700E+02 -0.25231392246E+02  0.33759402285E+02  0.00000000000E+00 0. -1.
</event>
<event>
 7    1  0.5913457E-013  0.5052886E+02  0.7816164E-02  0.1300439E+00
        -11   -1    0    0    0    0  0.00000000000E+00  0.00000000000E+00  0.45593999997E+02  0.45594000000E+02  0.51100000000E-03 0.  1.
         11   -1    0    0    0    0 -0.00000000000E+00 -0.00000000000E+00 -0.45593999997E+02  0.45594000000E+02  0.51100000000E-03 0. -1.
    9900012    2    1    2    0    0  0.29257416982E+02  0.12060733701E+02 -0.25528570915E+02  0.50528859836E+02  0.29999999959E+02 0.  0.
        -12    1    1    2    0    0 -0.29257416982E+02 -0.12060733701E+02  0.25528570915E+02  0.40659140164E+02  0.00000000000E+00 0.  1.
         11    1    3    3    0    0  0.97316389686E+01  0.13443285520E+02 -0.57759402885E+01  0.17572370616E+02  0.51100000000E-03 0. -1.
        -11    1    3    3    0    0  0.19114452307E+02  0.51107219063E+01 -0.13662881310E+02  0.24044876613E+02  0.51100000000E-03 0.  1.
        -12    1    3    3    0    0  0.41132570648E+00 -0.64932737256E+01 -0.60897493167E+01  0.89116126067E+01  0.00000000000E+00 0.  1.
</event>
<event>
 7    1  0.5913457E-013  0.5052886E+02  0.7816164E-02  0.1300439E+00
        -11   -1    0    0    0    0  0.00000000000E+00  0.00000000000E+00  0.45593999997E+02  0.45594000000E+02  0.51100000000E-03 0.  1.
         11   -1    0    0    0    0 -0.00000000000E+00 -0.00000000000E+00 -0.45593999997E+02  0.45594000000E+02  0.51100000000E-03 0. -1.
    9900012    2    1    2    0    0  0.65223044732E+01 -0.11587247482E+02 -0.38423444597E+02  0.50528857676E+02  0.29999993391E+02 0.  0.
        -12    1    1    2    0    0 -0.65223044732E+01  0.11587247482E+02  0.38423444597E+02  0.40659142324E+02  0.00000000000E+00 0.  1.
         11    1    3    3    0    0 -0.16192181028E+01 -0.89213982661E+01 -0.25867511275E+02  0.27410606599E+02  0.51100000000E-03 0. -1.
        -11    1    3    3    0    0  0.20270631653E+00 -0.87133791677E+01 -0.89876546035E+01  0.12519664608E+02  0.51100000000E-03 0.  1.
         12    1    3    3    0    0  0.79388162594E+01  0.60475299518E+01 -0.35682787181E+01  0.10598586468E+02  0.00000000000E+00 0. -1.
</event>
<event>
 7    1  0.5913457E-013  0.5052894E+02  0.7816164E-02  0.1300439E+00
        -11   -1    0    0    0    0  0.00000000000E+00  0.00000000000E+00  0.45593999997E+02  0.45594000000E+02  0.51100000000E-03 0. -1.
         11   -1    0    0    0    0 -0.00000000000E+00 -0.00000000000E+00 -0.45593999997E+02  0.45594000000E+02  0.51100000000E-03 0.  1.
    9900012    2    1    2    0    0 -0.16088742681E+01  0.16708502731E+02  0.37032374112E+02  0.50528938620E+02  0.30000239429E+02 0.  0.
        -12    1    1    2    0    0  0.16088742681E+01 -0.16708502731E+02 -0.37032374112E+02  0.40659061380E+02  0.00000000000E+00 0.  1.
         11    1    3    3    0    0 -0.75856864405E+01 -0.11172511892E+01  0.90333325028E+01  0.11848712393E+02  0.51100000000E-03 0. -1.
        -11    1    3    3    0    0  0.12061224501E+01 -0.33097300159E+01  0.33149552464E+00  0.35382105204E+01  0.51100000000E-03 0.  1.
         12    1    3    3    0    0  0.47706897223E+01  0.21135483936E+02  0.27667546084E+02  0.35142015707E+02  0.00000000000E+00 0. -1.
</event>
<event>
 7    1  0.5913457E-013  0.5052887E+02  0.7816164E-02  0.1300439E+00
        -11   -1    0    0    0    0  0.00000000000E+00  0.00000000000E+00  0.45593999997E+02  0.45594000000E+02  0.51100000000E-03 0. -1.
         11   -1    0    0    0    0 -0.00000000000E+00 -0.00000000000E+00 -0.45593999997E+02  0.45594000000E+02  0.51100000000E-03 0.  1.
    9900012    2    1    2    0    0  0.91554420617E+01  0.37917679023E+02  0.11471374193E+02  0.50528869074E+02  0.30000028036E+02 0.  0.
        -12    1    1    2    0    0 -0.91554420617E+01 -0.37917679023E+02 -0.11471374193E+02  0.40659130926E+02  0.00000000000E+00 0.  1.
         11    1    3    3    0    0  0.10698045859E+01 -0.58369043241E+00 -0.44340003937E+01  0.45984275709E+01  0.51100000000E-03 0. -1.
        -11    1    3    3    0    0  0.12856910454E+01 -0.18028602327E+01  0.86078486356E+00  0.23757645770E+01  0.51100000000E-03 0.  1.
         12    1    3    3    0    0  0.67999464303E+01  0.40304229688E+02  0.15044589723E+02  0.43554676926E+02  0.00000000000E+00 0. -1.
</event>
<event>
 7    1  0.5913457E-013  0.5052878E+02  0.7816164E-02  0.1300439E+00
        -11   -1    0    0    0    0  0.00000000000E+00  0.00000000000E+00  0.45593999997E+02  0.45594000000E+02  0.51100000000E-03 0.  1.
         11   -1    0    0    0    0 -0.00000000000E+00 -0.00000000000E+00 -0.45593999997E+02  0.45594000000E+02  0.51100000000E-03 0. -1.
    9900012    2    1    2    0    0 -0.12808716196E+02 -0.79900764132E+01 -0.37752713358E+02  0.50528783363E+02  0.29999767509E+02 0.  0.
        -12    1    1    2    0    0  0.12808716196E+02  0.79900764132E+01  0.37752713358E+02  0.40659216637E+02  0.00000000000E+00 0.  1.
         11    1    3    3    0    0 -0.60257126036E+01  0.59821729404E+01 -0.13287288396E+02  0.15768564889E+02  0.51100000000E-03 0. -1.
        -11    1    3    3    0    0  0.43406391753E+01 -0.51959445780E+01 -0.33660052747E+00  0.67788117457E+01  0.51100000000E-03 0.  1.
        -12    1    3    3    0    0 -0.11123642767E+02 -0.87763047755E+01 -0.24128824434E+02  0.27981406728E+02  0.00000000000E+00 0.  1.
</event>
<event>
 7    1  0.5913457E-013  0.5052887E+02  0.7816164E-02  0.1300439E+00
        -11   -1    0    0    0    0  0.00000000000E+00  0.00000000000E+00  0.45593999997E+02  0.45594000000E+02  0.51100000000E-03 0.  1.
         11   -1    0    0    0    0 -0.00000000000E+00 -0.00000000000E+00 -0.45593999997E+02  0.45594000000E+02  0.51100000000E-03 0. -1.
    9900012    2    1    2    0    0 -0.13186686451E+02  0.23102620561E+02 -0.30749712697E+02  0.50528873014E+02  0.30000040013E+02 0.  0.
        -12    1    1    2    0    0  0.13186686451E+02 -0.23102620561E+02  0.30749712697E+02  0.40659126986E+02  0.00000000000E+00 0.  1.
         11    1    3    3    0    0 -0.26474911327E+01  0.26641690266E+02 -0.20864225187E+02  0.33942668759E+02  0.51100000000E-03 0. -1.
        -11    1    3    3    0    0  0.18919972169E+00 -0.19324225381E+01 -0.34886444054E+01  0.39925797987E+01  0.51100000000E-03 0.  1.
        -12    1    3    3    0    0 -0.10728395040E+02 -0.16066471672E+01 -0.63968431044E+01  0.12593624456E+02  0.00000000000E+00 0.  1.
</event>
<event>
 7    1  0.5913457E-013  0.5052886E+02  0.7816164E-02  0.1300439E+00
        -11   -1    0    0    0    0  0.00000000000E+00  0.00000000000E+00  0.45593999997E+02  0.45594000000E+02  0.51100000000E-03 0.  1.
         11   -1    0    0    0    0 -0.00000000000E+00 -0.00000000000E+00 -0.45593999997E+02  0.45594000000E+02  0.51100000000E-03 0. -1.
    9900012    2    1    2    0    0  0.17249967121E+02 -0.35932393343E+02 -0.80291720175E+01  0.50528857604E+02  0.29999993175E+02 0.  0.
        -12    1    1    2    0    0 -0.17249967121E+02  0.35932393343E+02  0.80291720175E+01  0.40659142396E+02  0.00000000000E+00 0.  1.
         11    1    3    3    0    0  0.10168959881E+02 -0.82890818033E+01  0.14966193291E+01  0.13204411834E+02  0.51100000000E-03 0. -1.
        -11    1    3    3    0    0 -0.62511837557E+01 -0.21592391567E+01  0.10187118420E+01  0.66915907049E+01  0.51100000000E-03 0.  1.
         12    1    3    3    0    0  0.13332190996E+02 -0.25484072383E+02 -0.10544503189E+02  0.30632855066E+02  0.00000000000E+00 0. -1.
</event>
<event>
 7    1  0.5913457E-013  0.5052887E+02  0.7816164E-02  0.1300439E+00
        -11   -1    0    0    0    0  0.00000000000E+00  0.00000000000E+00  0.45593999997E+02  0.45594000000E+02  0.51100000000E-03 0. -1.
         11   -1    0    0    0    0 -0.00000000000E+00 -0.00000000000E+00 -0.45593999997E+02  0.45594000000E+02  0.51100000000E-03 0.  1.
    9900012    2    1    2    0    0 -0.28002634503E+02 -0.28464503072E+02  0.76674453212E+01  0.50528865823E+02  0.30000018156E+02 0.  0.
        -12    1    1    2    0    0  0.28002634503E+02  0.28464503072E+02 -0.76674453212E+01  0.40659134177E+02  0.00000000000E+00 0.  1.
         11    1    3    3    0    0 -0.16801655970E+01 -0.20246458143E+01  0.17700311345E+00  0.26369447226E+01  0.51100000000E-03 0. -1.
        -11    1    3    3    0    0  0.34441543183E+01 -0.76233182569E+01  0.94519711129E+01  0.12622081381E+02  0.51100000000E-03 0.  1.
        -12    1    3    3    0    0 -0.29766623225E+02 -0.18816539001E+02 -0.19615289052E+01  0.35269839719E+02  0.00000000000E+00 0.  1.
</event>
<event>
 7    1  0.5913457E-013  0.5052886E+02  0.7816164E-02  0.1300439E+00
        -11   -1    0    0    0    0  0.00000000000E+00  0.00000000000E+00  0.45593999997E+02  0.45594000000E+02  0.51100000000E-03 0.  1.
         11   -1    0    0    0    0 -0.00000000000E+00 -0.00000000000E+00 -0.45593999997E+02  0.45594000000E+02  0.51100000000E-03 0. -1.
    9900012    2    1    2    0    0  0.13508618632E+02  0.36847038407E+02 -0.10629141955E+02  0.50528859879E+02  0.30000000087E+02 0.  0.
        -12    1    1    2    0    0 -0.13508618632E+02 -0.36847038407E+02  0.10629141955E+02  0.40659140121E+02  0.00000000000E+00 0.  1.
         11    1    3    3    0    0  0.21254285941E+01  0.50470831994E+01  0.28059498975E+01  0.61533609206E+01  0.51100000000E-03 0. -1.
        -11    1    3    3    0    0 -0.87655366912E+00 -0.29814285387E+01  0.27045038271E+01  0.41196606265E+01  0.51100000000E-03 0.  1.
         12    1    3    3    0    0  0.12259743707E+02  0.34781383746E+02 -0.16139595680E+02  0.40255838331E+02  0.00000000000E+00 0. -1.
</event>
<event>
 7    1  0.5913457E-013  0.5052886E+02  0.7816164E-02  0.1300439E+00
        -11   -1    0    0    0    0  0.00000000000E+00  0.00000000000E+00  0.45593999997E+02  0.45594000000E+02  0.51100000000E-03 0.  1.
         11   -1    0    0    0    0 -0.00000000000E+00 -0.00000000000E+00 -0.45593999997E+02  0.45594000000E+02  0.51100000000E-03 0. -1.
    9900012    2    1    2    0    0  0.38779761017E+02 -0.71751313869E+01 -0.98900459740E+01  0.50528863459E+02  0.30000010969E+02 0.  0.
        -12    1    1    2    0    0 -0.38779761017E+02  0.71751313869E+01  0.98900459740E+01  0.40659136541E+02  0.00000000000E+00 0.  1.
         11    1    3    3    0    0  0.13981718928E+02 -0.11759819899E+01 -0.75431157377E+01  0.15930159858E+02  0.51100000000E-03 0. -1.
        -11    1    3    3    0    0  0.21262634659E+02  0.57409798754E+01 -0.34321557874E+01  0.22289867119E+02  0.51100000000E-03 0.  1.
        -12    1    3    3    0    0  0.35354074300E+01 -0.11740129272E+02  0.10852255511E+01  0.12308836481E+02  0.00000000000E+00 0.  1.
</event>
<event>
 7    1  0.5913457E-013  0.5052888E+02  0.7816164E-02  0.1300439E+00
        -11   -1    0    0    0    0  0.00000000000E+00  0.00000000000E+00  0.45593999997E+02  0.45594000000E+02  0.51100000000E-03 0.  1.
         11   -1    0    0    0    0 -0.00000000000E+00 -0.00000000000E+00 -0.45593999997E+02  0.45594000000E+02  0.51100000000E-03 0. -1.
    9900012    2    1    2    0    0 -0.26953112461E+02 -0.23744208342E+02 -0.19050107506E+02  0.50528876828E+02  0.30000051607E+02 0.  0.
        -12    1    1    2    0    0  0.26953112461E+02  0.23744208342E+02  0.19050107506E+02  0.40659123172E+02  0.00000000000E+00 0.  1.
         11    1    3    3    0    0 -0.19287448309E+02 -0.23347455935E+02 -0.13740625434E+02  0.33255287527E+02  0.51100000000E-03 0.  1.
        -11    1    3    3    0    0 -0.90633096330E+01 -0.40581513927E+01 -0.78023121431E+01  0.12628865716E+02  0.51100000000E-03 0. -1.
        -12    1    3    3    0    0  0.13976454814E+01  0.36613989861E+01  0.24928300706E+01  0.46447235857E+01  0.00000000000E+00 0.  1.
</event>
<event>
 7    1  0.5913457E-013  0.5052887E+02  0.7816164E-02  0.1300439E+00
        -11   -1    0    0    0    0  0.00000000000E+00  0.00000000000E+00  0.45593999997E+02  0.45594000000E+02  0.51100000000E-03 0.  1.
         11   -1    0    0    0    0 -0.00000000000E+00 -0.00000000000E+00 -0.45593999997E+02  0.45594000000E+02  0.51100000000E-03 0. -1.
    9900012    2    1    2    0    0  0.33233444545E+02  0.75951753409E+01 -0.22158887730E+02  0.50528870272E+02  0.30000031679E+02 0.  0.
        -12    1    1    2    0    0 -0.33233444545E+02 -0.75951753409E+01  0.22158887730E+02  0.40659129728E+02  0.00000000000E+00 0.  1.
         11    1    3    3    0    0  0.10449321491E+02  0.86729955275E+01 -0.14913227323E+02  0.20169618749E+02  0.51100000000E-03 0. -1.
        -11    1    3    3    0    0  0.15788488514E+01  0.55880106631E+01 -0.56048221657E+01  0.80704806943E+01  0.51100000000E-03 0.  1.
        -12    1    3    3    0    0  0.21205274202E+02 -0.66658308498E+01 -0.16408382416E+01  0.22288770828E+02  0.00000000000E+00 0.  1.
</event>
<event>
 7    1  0.5913457E-013  0.5052882E+02  0.7816164E-02  0.1300439E+00
        -11   -1    0    0    0    0  0.00000000000E+00  0.00000000000E+00  0.45593999997E+02  0.45594000000E+02  0.51100000000E-03 0.  1.
         11   -1    0    0    0    0 -0.00000000000E+00 -0.00000000000E+00 -0.45593999997E+02  0.45594000000E+02  0.51100000000E-03 0. -1.
    9900012    2    1    2    0    0  0.14795325337E+02 -0.29601042434E+02 -0.23622988923E+02  0.50528819356E+02  0.29999876914E+02 0.  0.
        -12    1    1    2    0    0 -0.14795325337E+02  0.29601042434E+02  0.23622988923E+02  0.40659180644E+02  0.00000000000E+00 0.  1.
         11    1    3    3    0    0  0.38086731873E+01  0.34921488725E+00 -0.28839555877E+01  0.47901088273E+01  0.51100000000E-03 0. -1.
        -11    1    3    3    0    0  0.11735748188E+02 -0.16602729101E+01 -0.98675750822E+01  0.15422494284E+02  0.51100000000E-03 0.  1.
        -12    1    3    3    0    0 -0.74909603873E+00 -0.28289984411E+02 -0.10871458253E+02  0.30316216245E+02  0.00000000000E+00 0.  1.
</event>
<event>
 7    1  0.5913457E-013  0.5052887E+02  0.7816164E-02  0.1300439E+00
        -11   -1    0    0    0    0  0.00000000000E+00  0.00000000000E+00  0.45593999997E+02  0.45594000000E+02  0.51100000000E-03 0. -1.
         11   -1    0    0    0    0 -0.00000000000E+00 -0.00000000000E+00 -0.45593999997E+02  0.45594000000E+02  0.51100000000E-03 0.  1.
    9900012    2    1    2    0    0  0.36675165899E+02  0.13352530697E+02  0.11393285641E+02  0.50528870306E+02  0.30000031783E+02 0.  0.
        -12    1    1    2    0    0 -0.36675165899E+02 -0.13352530697E+02 -0.11393285641E+02  0.40659129694E+02  0.00000000000E+00 0.  1.
         11    1    3    3    0    0  0.23164532457E+00 -0.63630071094E+00 -0.11963632232E+01  0.13747084688E+01  0.51100000000E-03 0. -1.
        -11    1    3    3    0    0  0.14544560608E+02 -0.73483042884E+01  0.58243580816E+00  0.16305859405E+02  0.51100000000E-03 0.  1.
         12    1    3    3    0    0  0.21898959966E+02  0.21337135696E+02  0.12007213056E+02  0.32848302433E+02  0.00000000000E+00 0. -1.
</event>
<event>
 7    1  0.6160858E-013  0.5052887E+02  0.7816164E-02  0.1300439E+00
        -11   -1    0    0    0    0  0.00000000000E+00  0.00000000000E+00  0.45593999997E+02  0.45594000000E+02  0.51100000000E-03 0.  1.
         11   -1    0    0    0    0 -0.00000000000E+00 -0.00000000000E+00 -0.45593999997E+02  0.45594000000E+02  0.51100000000E-03 0. -1.
    9900012    2    1    2    0    0  0.28302167900E+02 -0.13813904032E+02 -0.25716305721E+02  0.50528867786E+02  0.30000024122E+02 0.  0.
        -12    1    1    2    0    0 -0.28302167900E+02  0.13813904032E+02  0.25716305721E+02  0.40659132214E+02  0.00000000000E+00 0.  1.
         11    1    3    3    0    0  0.14422270279E+02 -0.35977172465E+01 -0.76646689359E+01  0.16724012663E+02  0.51100000000E-03 0. -1.
        -11    1    3    3    0    0  0.14295948253E+02 -0.13746494498E+02 -0.52458599416E+01  0.20514855452E+02  0.51100000000E-03 0.  1.
        -12    1    3    3    0    0 -0.41605063221E+00  0.35303077122E+01 -0.12805776844E+02  0.13289999671E+02  0.00000000000E+00 0.  1.
</event>
<event>
 7    1  0.5913457E-013  0.5052886E+02  0.7816164E-02  0.1300439E+00
        -11   -1    0    0    0    0  0.00000000000E+00  0.00000000000E+00  0.45593999997E+02  0.45594000000E+02  0.51100000000E-03 0. -1.
         11   -1    0    0    0    0 -0.00000000000E+00 -0.00000000000E+00 -0.45593999997E+02  0.45594000000E+02  0.51100000000E-03 0.  1.
    9900012    2    1    2    0    0 -0.89586359468E+01 -0.32561335424E+02  0.22642163148E+02  0.50528864807E+02  0.30000015067E+02 0.  0.
        -12    1    1    2    0    0  0.89586359468E+01  0.32561335424E+02 -0.22642163148E+02  0.40659135193E+02  0.00000000000E+00 0.  1.
         11    1    3    3    0    0 -0.34152581350E+01 -0.44695984053E+01  0.24613238963E+01  0.61399848222E+01  0.51100000000E-03 0. -1.
        -11    1    3    3    0    0 -0.78507055505E+01  0.19629436363E+01 -0.38487549106E-01  0.80924784159E+01  0.51100000000E-03 0.  1.
         12    1    3    3    0    0  0.23073277386E+01 -0.30054680655E+02  0.20219326801E+02  0.36296401569E+02  0.00000000000E+00 0. -1.
</event>
<event>
 7    1  0.5913457E-013  0.5052885E+02  0.7816164E-02  0.1300439E+00
        -11   -1    0    0    0    0  0.00000000000E+00  0.00000000000E+00  0.45593999997E+02  0.45594000000E+02  0.51100000000E-03 0. -1.
         11   -1    0    0    0    0 -0.00000000000E+00 -0.00000000000E+00 -0.45593999997E+02  0.45594000000E+02  0.51100000000E-03 0.  1.
    9900012    2    1    2    0    0  0.15864388391E+01  0.36844424560E+02 -0.17121283519E+02  0.50528846557E+02  0.29999959596E+02 0.  0.
        -12    1    1    2    0    0 -0.15864388391E+01 -0.36844424560E+02  0.17121283519E+02  0.40659153443E+02  0.00000000000E+00 0.  1.
         11    1    3    3    0    0  0.52671309096E+01  0.46791024830E+01 -0.53960843675E+01  0.88743672916E+01  0.51100000000E-03 0. -1.
        -11    1    3    3    0    0  0.70376879044E+01  0.64265263492E+01 -0.98565120296E+01  0.13710584291E+02  0.51100000000E-03 0.  1.
        -12    1    3    3    0    0 -0.10718379975E+02  0.25738795728E+02 -0.18686871219E+01  0.27943894975E+02  0.00000000000E+00 0.  1.
</event>
<event>
 7    1  0.5913457E-013  0.5052886E+02  0.7816164E-02  0.1300439E+00
        -11   -1    0    0    0    0  0.00000000000E+00  0.00000000000E+00  0.45593999997E+02  0.45594000000E+02  0.51100000000E-03 0.  1.
         11   -1    0    0    0    0 -0.00000000000E+00 -0.00000000000E+00 -0.45593999997E+02  0.45594000000E+02  0.51100000000E-03 0. -1.
    9900012    2    1    2    0    0  0.16327097993E+02 -0.88648291740E+01 -0.36166372265E+02  0.50528858249E+02  0.29999995133E+02 0.  0.
        -12    1    1    2    0    0 -0.16327097993E+02  0.88648291740E+01  0.36166372265E+02  0.40659141751E+02  0.00000000000E+00 0.  1.
         11    1    3    3    0    0  0.92184004274E+01 -0.13025120822E+02 -0.75647770276E+01  0.17659516715E+02  0.51100000000E-03 0. -1.
        -11    1    3    3    0    0  0.59431086060E+01 -0.31304727185E+01 -0.57088343857E+01  0.88153950365E+01  0.51100000000E-03 0.  1.
         12    1    3    3    0    0  0.11655889597E+01  0.72907643669E+01 -0.22892760851E+02  0.24053946497E+02  0.00000000000E+00 0. -1.
</event>
<event>
 7    1  0.5913457E-013  0.5052886E+02  0.7816164E-02  0.1300439E+00
        -11   -1    0    0    0    0  0.00000000000E+00  0.00000000000E+00  0.45593999997E+02  0.45594000000E+02  0.51100000000E-03 0.  1.
         11   -1    0    0    0    0 -0.00000000000E+00 -0.00000000000E+00 -0.45593999997E+02  0.45594000000E+02  0.51100000000E-03 0. -1.
    9900012    2    1    2    0    0 -0.71039412091E+01  0.62288099717E+01 -0.39546194438E+02  0.50528861435E+02  0.30000004816E+02 0.  0.
        -12    1    1    2    0    0  0.71039412091E+01 -0.62288099717E+01  0.39546194438E+02  0.40659138565E+02  0.00000000000E+00 0.  1.
         11    1    3    3    0    0  0.25121106409E+01 -0.11296004882E+01 -0.47809702816E+01  0.55176420897E+01  0.51100000000E-03 0. -1.
        -11    1    3    3    0    0 -0.28741342851E+01 -0.97013770173E+01 -0.14442767985E+02  0.17634367333E+02  0.51100000000E-03 0.  1.
         12    1    3    3    0    0 -0.67419175649E+01  0.17059787477E+02 -0.20322456171E+02  0.27376852011E+02  0.00000000000E+00 0. -1.
</event>
<event>
 7    1  0.5913457E-013  0.5052887E+02  0.7816164E-02  0.1300439E+00
        -11   -1    0    0    0    0  0.00000000000E+00  0.00000000000E+00  0.45593999997E+02  0.45594000000E+02  0.51100000000E-03 0.  1.
         11   -1    0    0    0    0 -0.00000000000E+00 -0.00000000000E+00 -0.45593999997E+02  0.45594000000E+02  0.51100000000E-03 0. -1.
    9900012    2    1    2    0    0  0.14901848812E+02 -0.43906364453E+01 -0.37574218172E+02  0.50528872394E+02  0.30000038129E+02 0.  0.
        -12    1    1    2    0    0 -0.14901848812E+02  0.43906364453E+01  0.37574218172E+02  0.40659127606E+02  0.00000000000E+00 0.  1.
         11    1    3    3    0    0  0.59448060796E+00  0.32999075802E+01  0.53328928020E+00  0.33951723003E+01  0.51100000000E-03 0.  1.
        -11    1    3    3    0    0  0.59658001876E+01  0.33988329857E+01 -0.31400878180E+00  0.68732408163E+01  0.51100000000E-03 0. -1.
        -12    1    3    3    0    0  0.83415680162E+01 -0.11089377011E+02 -0.37793498671E+02  0.40260459278E+02  0.00000000000E+00 0.  1.
</event>
<event>
 7    1  0.5913457E-013  0.5052871E+02  0.7816164E-02  0.1300439E+00
        -11   -1    0    0    0    0  0.00000000000E+00  0.00000000000E+00  0.45593999997E+02  0.45594000000E+02  0.51100000000E-03 0.  1.
         11   -1    0    0    0    0 -0.00000000000E+00 -0.00000000000E+00 -0.45593999997E+02  0.45594000000E+02  0.51100000000E-03 0. -1.
    9900012    2    1    2    0    0  0.26312592299E+02 -0.25677323777E+01 -0.30890642830E+02  0.50528713515E+02  0.29999555196E+02 0.  0.
        -12    1    1    2    0    0 -0.26312592299E+02  0.25677323777E+01  0.30890642830E+02  0.40659286485E+02  0.00000000000E+00 0.  1.
         11    1    3    3    0    0  0.12376634077E+02 -0.86547318171E+01 -0.24475773510E+02  0.28760197202E+02  0.51100000000E-03 0. -1.
        -11    1    3    3    0    0  0.14804678938E+01 -0.31741797280E+01 -0.51065263527E+01  0.61922381884E+01  0.51100000000E-03 0.  1.
        -12    1    3    3    0    0  0.12455490328E+02  0.92611791675E+01 -0.13083429667E+01  0.15576278124E+02  0.00000000000E+00 0.  1.
</event>
<event>
 7    1  0.5913457E-013  0.5052886E+02  0.7816164E-02  0.1300439E+00
        -11   -1    0    0    0    0  0.00000000000E+00  0.00000000000E+00  0.45593999997E+02  0.45594000000E+02  0.51100000000E-03 0.  1.
         11   -1    0    0    0    0 -0.00000000000E+00 -0.00000000000E+00 -0.45593999997E+02  0.45594000000E+02  0.51100000000E-03 0. -1.
    9900012    2    1    2    0    0  0.11217785823E+00  0.58419775833E+01 -0.40237100763E+02  0.50528861252E+02  0.30000004261E+02 0.  0.
        -12    1    1    2    0    0 -0.11217785823E+00 -0.58419775833E+01  0.40237100763E+02  0.40659138748E+02  0.00000000000E+00 0.  1.
         11    1    3    3    0    0  0.26934854419E+01 -0.22763306739E+01 -0.17121203820E+02  0.17480622576E+02  0.51100000000E-03 0. -1.
        -11    1    3    3    0    0  0.15656114506E+01 -0.45327737330E+01 -0.18256308294E+02  0.18875644882E+02  0.51100000000E-03 0.  1.
        -12    1    3    3    0    0 -0.41469190342E+01  0.12651081990E+02 -0.48595886490E+01  0.14172593794E+02  0.00000000000E+00 0.  1.
</event>
<event>
 7    1  0.5913457E-013  0.5052885E+02  0.7816164E-02  0.1300439E+00
        -11   -1    0    0    0    0  0.00000000000E+00  0.00000000000E+00  0.45593999997E+02  0.45594000000E+02  0.51100000000E-03 0. -1.
         11   -1    0    0    0    0 -0.00000000000E+00 -0.00000000000E+00 -0.45593999997E+02  0.45594000000E+02  0.51100000000E-03 0.  1.
    9900012    2    1    2    0    0  0.21647756322E+01 -0.23198408935E+02  0.33321374165E+02  0.50528850884E+02  0.29999972746E+02 0.  0.
        -12    1    1    2    0    0 -0.21647756322E+01  0.23198408935E+02 -0.33321374165E+02  0.40659149116E+02  0.00000000000E+00 0.  1.
         11    1    3    3    0    0  0.43980083032E+01 -0.51801241323E+01 -0.25387334199E+01  0.72540561550E+01  0.51100000000E-03 0. -1.
        -11    1    3    3    0    0 -0.52157603097E+01 -0.17396715943E+02  0.19556891150E+02  0.26689358795E+02  0.51100000000E-03 0.  1.
        -12    1    3    3    0    0  0.29825276388E+01 -0.62156885952E+00  0.16303216435E+02  0.16585435933E+02  0.00000000000E+00 0.  1.
</event>
<event>
 7    1  0.5913457E-013  0.5052887E+02  0.7816164E-02  0.1300439E+00
        -11   -1    0    0    0    0  0.00000000000E+00  0.00000000000E+00  0.45593999997E+02  0.45594000000E+02  0.51100000000E-03 0.  1.
         11   -1    0    0    0    0 -0.00000000000E+00 -0.00000000000E+00 -0.45593999997E+02  0.45594000000E+02  0.51100000000E-03 0. -1.
    9900012    2    1    2    0    0 -0.11151771219E+02 -0.26633027608E+02 -0.28626641458E+02  0.50528871111E+02  0.30000034229E+02 0.  0.
        -12    1    1    2    0    0  0.11151771219E+02  0.26633027608E+02  0.28626641458E+02  0.40659128889E+02  0.00000000000E+00 0.  1.
         11    1    3    3    0    0  0.13132543923E+01 -0.11519974730E+02 -0.19559996367E+02  0.22738247800E+02  0.51100000000E-03 0. -1.
        -11    1    3    3    0    0 -0.28387565371E+01 -0.16295303099E+02 -0.50640853046E+01  0.17298566472E+02  0.51100000000E-03 0.  1.
         12    1    3    3    0    0 -0.96262690740E+01  0.11822502212E+01 -0.40025597865E+01  0.10492056839E+02  0.00000000000E+00 0. -1.
</event>
<event>
 7    1  0.5913457E-013  0.5052890E+02  0.7816164E-02  0.1300439E+00
        -11   -1    0    0    0    0  0.00000000000E+00  0.00000000000E+00  0.45593999997E+02  0.45594000000E+02  0.51100000000E-03 0.  1.
         11   -1    0    0    0    0 -0.00000000000E+00 -0.00000000000E+00 -0.45593999997E+02  0.45594000000E+02  0.51100000000E-03 0. -1.
    9900012    2    1    2    0    0 -0.92403608462E+01 -0.24673166159E+02 -0.30967938639E+02  0.50528897447E+02  0.30000114280E+02 0.  0.
        -12    1    1    2    0    0  0.92403608462E+01  0.24673166159E+02  0.30967938639E+02  0.40659102553E+02  0.00000000000E+00 0.  1.
         11    1    3    3    0    0  0.47988056610E+01 -0.18341373711E+02 -0.19865221492E+02  0.27460181183E+02  0.51100000000E-03 0. -1.
        -11    1    3    3    0    0  0.30560069985E+00  0.29987676387E+01 -0.90046360049E+00  0.31459234090E+01  0.51100000000E-03 0.  1.
         12    1    3    3    0    0 -0.14344767207E+02 -0.93305600858E+01 -0.10202253546E+02  0.19922792855E+02  0.00000000000E+00 0. -1.
</event>
<event>
 7    1  0.5913457E-013  0.5052885E+02  0.7816164E-02  0.1300439E+00
        -11   -1    0    0    0    0  0.00000000000E+00  0.00000000000E+00  0.45593999997E+02  0.45594000000E+02  0.51100000000E-03 0. -1.
         11   -1    0    0    0    0 -0.00000000000E+00 -0.00000000000E+00 -0.45593999997E+02  0.45594000000E+02  0.51100000000E-03 0.  1.
    9900012    2    1    2    0    0 -0.28584394550E+02  0.51191824476E+01  0.28458615607E+02  0.50528850440E+02  0.29999971396E+02 0.  0.
        -12    1    1    2    0    0  0.28584394550E+02 -0.51191824476E+01 -0.28458615607E+02  0.40659149560E+02  0.00000000000E+00 0.  1.
         11    1    3    3    0    0 -0.91174982537E+01 -0.15577862429E+01 -0.82420924903E+00  0.92862690858E+01  0.51100000000E-03 0. -1.
        -11    1    3    3    0    0  0.25894812980E+01  0.20042436176E+01  0.13066413851E+02  0.13470470558E+02  0.51100000000E-03 0.  1.
         12    1    3    3    0    0 -0.22056377594E+02  0.46727250730E+01  0.16216411006E+02  0.27772110796E+02  0.00000000000E+00 0. -1.
</event>
<event>
 7    1  0.5913457E-013  0.5052887E+02  0.7816164E-02  0.1300439E+00
        -11   -1    0    0    0    0  0.00000000000E+00  0.00000000000E+00  0.45593999997E+02  0.45594000000E+02  0.51100000000E-03 0.  1.
         11   -1    0    0    0    0 -0.00000000000E+00 -0.00000000000E+00 -0.45593999997E+02  0.45594000000E+02  0.51100000000E-03 0. -1.
    9900012    2    1    2    0    0 -0.17049504644E+02  0.21124920252E+02 -0.30269071306E+02  0.50528873816E+02  0.30000042452E+02 0.  0.
        -12    1    1    2    0    0  0.17049504644E+02 -0.21124920252E+02  0.30269071306E+02  0.40659126184E+02  0.00000000000E+00 0.  1.
         11    1    3    3    0    0 -0.19968604138E+01  0.12297807522E+02 -0.90118882251E+01  0.15376529225E+02  0.51100000000E-03 0. -1.
        -11    1    3    3    0    0  0.44624398333E+01 -0.36949675732E+00 -0.96874943322E+01  0.10672274538E+02  0.51100000000E-03 0.  1.
        -12    1    3    3    0    0 -0.19515084064E+02  0.91966094870E+01 -0.11569688749E+02  0.24480070053E+02  0.00000000000E+00 0.  1.
</event>
<event>
 7    1  0.5913457E-013  0.5052885E+02  0.7816164E-02  0.1300439E+00
        -11   -1    0    0    0    0  0.00000000000E+00  0.00000000000E+00  0.45593999997E+02  0.45594000000E+02  0.51100000000E-03 0. -1.
         11   -1    0    0    0    0 -0.00000000000E+00 -0.00000000000E+00 -0.45593999997E+02  0.45594000000E+02  0.51100000000E-03 0.  1.
    9900012    2    1    2    0    0 -0.10000260675E+02  0.38049815682E+02  0.10265107023E+02  0.50528854544E+02  0.29999983871E+02 0.  0.
        -12    1    1    2    0    0  0.10000260675E+02 -0.38049815682E+02 -0.10265107023E+02  0.40659145456E+02  0.00000000000E+00 0.  1.
         11    1    3    3    0    0 -0.20742652251E+01  0.27469306870E+02 -0.23768610147E+01  0.27649861929E+02  0.51100000000E-03 0. -1.
        -11    1    3    3    0    0  0.23917199615E+00  0.12969890533E+01 -0.28014395694E+01  0.30963604071E+01  0.51100000000E-03 0.  1.
        -12    1    3    3    0    0 -0.81651674465E+01  0.92835197592E+01  0.15443407607E+02  0.19782632208E+02  0.00000000000E+00 0.  1.
</event>
<event>
 7    1  0.5913457E-013  0.5052886E+02  0.7816164E-02  0.1300439E+00
        -11   -1    0    0    0    0  0.00000000000E+00  0.00000000000E+00  0.45593999997E+02  0.45594000000E+02  0.51100000000E-03 0. -1.
         11   -1    0    0    0    0 -0.00000000000E+00 -0.00000000000E+00 -0.45593999997E+02  0.45594000000E+02  0.51100000000E-03 0.  1.
    9900012    2    1    2    0    0 -0.34121372810E+02 -0.22005049367E+02  0.21623149074E+01  0.50528857290E+02  0.29999992220E+02 0.  0.
        -12    1    1    2    0    0  0.34121372810E+02  0.22005049367E+02 -0.21623149074E+01  0.40659142710E+02  0.00000000000E+00 0.  1.
         11    1    3    3    0    0 -0.52267660330E+01 -0.16525208211E+02  0.31397948322E+01  0.17614196020E+02  0.51100000000E-03 0. -1.
        -11    1    3    3    0    0 -0.12419742180E+02 -0.97891665038E+01  0.49831741415E+00  0.15821697038E+02  0.51100000000E-03 0.  1.
         12    1    3    3    0    0 -0.16474864597E+02  0.43093253479E+01 -0.14757973389E+01  0.17092964232E+02  0.00000000000E+00 0. -1.
</event>
<event>
 7    1  0.5913457E-013  0.5052886E+02  0.7816164E-02  0.1300439E+00
        -11   -1    0    0    0    0  0.00000000000E+00  0.00000000000E+00  0.45593999997E+02  0.45594000000E+02  0.51100000000E-03 0.  1.
         11   -1    0    0    0    0 -0.00000000000E+00 -0.00000000000E+00 -0.45593999997E+02  0.45594000000E+02  0.51100000000E-03 0. -1.
    9900012    2    1    2    0    0 -0.17634688997E+02  0.32528783962E+02 -0.16854138791E+02  0.50528855439E+02  0.29999986591E+02 0.  0.
        -12    1    1    2    0    0  0.17634688997E+02 -0.32528783962E+02  0.16854138791E+02  0.40659144561E+02  0.00000000000E+00 0.  1.
         11    1    3    3    0    0 -0.77358615560E+01  0.11700491889E+02  0.18934895211E+01  0.14153811052E+02  0.51100000000E-03 0. -1.
        -11    1    3    3    0    0 -0.24280812137E+01  0.18061414531E+02 -0.26521516874E+01  0.18415867671E+02  0.51100000000E-03 0.  1.
         12    1    3    3    0    0 -0.74707462269E+01  0.27668775418E+01 -0.16095476625E+02  0.17959176716E+02  0.00000000000E+00 0. -1.
</event>
<event>
 7    1  0.5913457E-013  0.5052886E+02  0.7816164E-02  0.1300439E+00
        -11   -1    0    0    0    0  0.00000000000E+00  0.00000000000E+00  0.45593999997E+02  0.45594000000E+02  0.51100000000E-03 0.  1.
         11   -1    0    0    0    0 -0.00000000000E+00 -0.00000000000E+00 -0.45593999997E+02  0.45594000000E+02  0.51100000000E-03 0. -1.
    9900012    2    1    2    0    0 -0.29246292688E+01 -0.36964828433E+01 -0.40385001154E+02  0.50528858838E+02  0.29999996925E+02 0.  0.
        -12    1    1    2    0    0  0.29246292688E+01  0.36964828433E+01  0.40385001154E+02  0.40659141162E+02  0.00000000000E+00 0.  1.
         11    1    3    3    0    0  0.19604040088E+01 -0.54105203967E+01 -0.27359379252E+02  0.27958049791E+02  0.51100000000E-03 0. -1.
        -11    1    3    3    0    0 -0.98673070370E+01  0.39101893675E+01 -0.13422086683E+02  0.17111567440E+02  0.51100000000E-03 0.  1.
        -12    1    3    3    0    0  0.49822737594E+01 -0.21961518142E+01  0.39646478085E+00  0.54592416073E+01  0.00000000000E+00 0.  1.
</event>
<event>
 7    1  0.5913457E-013  0.5052885E+02  0.7816164E-02  0.1300439E+00
        -11   -1    0    0    0    0  0.00000000000E+00  0.00000000000E+00  0.45593999997E+02  0.45594000000E+02  0.51100000000E-03 0.  1.
         11   -1    0    0    0    0 -0.00000000000E+00 -0.00000000000E+00 -0.45593999997E+02  0.45594000000E+02  0.51100000000E-03 0. -1.
    9900012    2    1    2    0    0  0.33019944761E+02 -0.22515133939E+02 -0.74778701559E+01  0.50528849119E+02  0.29999967381E+02 0.  0.
        -12    1    1    2    0    0 -0.33019944761E+02  0.22515133939E+02  0.74778701559E+01  0.40659150881E+02  0.00000000000E+00 0.  1.
         11    1    3    3    0    0  0.20930282954E+02 -0.29579956584E+01 -0.46581642050E+01  0.21645437784E+02  0.51100000000E-03 0. -1.
        -11    1    3    3    0    0  0.15034272522E+02 -0.10806598665E+02 -0.54188152634E+01  0.19291850199E+02  0.51100000000E-03 0.  1.
        -12    1    3    3    0    0 -0.29446107140E+01 -0.87505396153E+01  0.25991093125E+01  0.95915611364E+01  0.00000000000E+00 0.  1.
</event>
<event>
 7    1  0.5913457E-013  0.5052893E+02  0.7816164E-02  0.1300439E+00
        -11   -1    0    0    0    0  0.00000000000E+00  0.00000000000E+00  0.45593999997E+02  0.45594000000E+02  0.51100000000E-03 0.  1.
         11   -1    0    0    0    0 -0.00000000000E+00 -0.00000000000E+00 -0.45593999997E+02  0.45594000000E+02  0.51100000000E-03 0. -1.
    9900012    2    1    2    0    0  0.39564451899E+02  0.65560121275E+01  0.66957493152E+01  0.50528927114E+02  0.30000204455E+02 0.  0.
        -12    1    1    2    0    0 -0.39564451899E+02 -0.65560121275E+01 -0.66957493152E+01  0.40659072886E+02  0.00000000000E+00 0.  1.
         11    1    3    3    0    0  0.23488340544E+02  0.45349195398E+01  0.67331348271E+01  0.24851614467E+02  0.51100000000E-03 0. -1.
        -11    1    3    3    0    0 -0.18491240435E+01  0.48086551705E+01  0.46507875016E+01  0.69406230933E+01  0.51100000000E-03 0.  1.
         12    1    3    3    0    0  0.17925235398E+02 -0.27875625828E+01 -0.46881730135E+01  0.18736689554E+02  0.00000000000E+00 0. -1.
</event>
<event>
 7    1  0.5913457E-013  0.5052886E+02  0.7816164E-02  0.1300439E+00
        -11   -1    0    0    0    0  0.00000000000E+00  0.00000000000E+00  0.45593999997E+02  0.45594000000E+02  0.51100000000E-03 0. -1.
         11   -1    0    0    0    0 -0.00000000000E+00 -0.00000000000E+00 -0.45593999997E+02  0.45594000000E+02  0.51100000000E-03 0.  1.
    9900012    2    1    2    0    0 -0.20962007818E+02 -0.20240043221E+02  0.28356667164E+02  0.50528859650E+02  0.29999999392E+02 0.  0.
        -12    1    1    2    0    0  0.20962007818E+02  0.20240043221E+02 -0.28356667164E+02  0.40659140350E+02  0.00000000000E+00 0.  1.
         11    1    3    3    0    0 -0.10319510172E+02 -0.11744313282E+02  0.15892890640E+02  0.22293612489E+02  0.51100000000E-03 0. -1.
        -11    1    3    3    0    0  0.91331996219E+00 -0.92834023189E+01 -0.21650767727E+01  0.95761824158E+01  0.51100000000E-03 0.  1.
         12    1    3    3    0    0 -0.11555817609E+02  0.78767238073E+00  0.14628853297E+02  0.18659064745E+02  0.00000000000E+00 0. -1.
</event>
<event>
 7    1  0.5913457E-013  0.5052885E+02  0.7816164E-02  0.1300439E+00
        -11   -1    0    0    0    0  0.00000000000E+00  0.00000000000E+00  0.45593999997E+02  0.45594000000E+02  0.51100000000E-03 0. -1.
         11   -1    0    0    0    0 -0.00000000000E+00 -0.00000000000E+00 -0.45593999997E+02  0.45594000000E+02  0.51100000000E-03 0.  1.
    9900012    2    1    2    0    0 -0.46418813297E+01 -0.25560646547E+02  0.31277352733E+02  0.50528849638E+02  0.29999968960E+02 0.  0.
        -12    1    1    2    0    0  0.46418813297E+01  0.25560646547E+02 -0.31277352733E+02  0.40659150362E+02  0.00000000000E+00 0.  1.
         11    1    3    3    0    0 -0.16138121926E+01 -0.29077809832E+01 -0.23560359792E+01  0.40755963780E+01  0.51100000000E-03 0. -1.
        -11    1    3    3    0    0  0.72587303623E+01 -0.17374992107E+02  0.13269230017E+02  0.23035884673E+02  0.51100000000E-03 0.  1.
         12    1    3    3    0    0 -0.10286799499E+02 -0.52778734573E+01  0.20364158695E+02  0.23417368587E+02  0.00000000000E+00 0. -1.
</event>
<event>
 7    1  0.5913457E-013  0.5052886E+02  0.7816164E-02  0.1300439E+00
        -11   -1    0    0    0    0  0.00000000000E+00  0.00000000000E+00  0.45593999997E+02  0.45594000000E+02  0.51100000000E-03 0. -1.
         11   -1    0    0    0    0 -0.00000000000E+00 -0.00000000000E+00 -0.45593999997E+02  0.45594000000E+02  0.51100000000E-03 0.  1.
    9900012    2    1    2    0    0  0.74744338713E+01 -0.30557749725E+02  0.25758928522E+02  0.50528860455E+02  0.30000001839E+02 0.  0.
        -12    1    1    2    0    0 -0.74744338713E+01  0.30557749725E+02 -0.25758928522E+02  0.40659139545E+02  0.00000000000E+00 0.  1.
         11    1    3    3    0    0  0.57077907039E+01 -0.76798285280E+01 -0.36685095949E+01  0.10247760919E+02  0.51100000000E-03 0. -1.
        -11    1    3    3    0    0  0.20560157464E+01  0.87392834781E+00 -0.27247592398E+00  0.22505987863E+01  0.51100000000E-03 0.  1.
         12    1    3    3    0    0 -0.28937257905E+00 -0.23751849544E+02  0.29699914041E+02  0.38030500750E+02  0.00000000000E+00 0. -1.
</event>
<event>
 7    1  0.5913457E-013  0.5052887E+02  0.7816164E-02  0.1300439E+00
        -11   -1    0    0    0    0  0.00000000000E+00  0.00000000000E+00  0.45593999997E+02  0.45594000000E+02  0.51100000000E-03 0. -1.
         11   -1    0    0    0    0 -0.00000000000E+00 -0.00000000000E+00 -0.45593999997E+02  0.45594000000E+02  0.51100000000E-03 0.  1.
    9900012    2    1    2    0    0 -0.30620771077E+02  0.90589769592E+01  0.25168795580E+02  0.50528868728E+02  0.30000026984E+02 0.  0.
        -12    1    1    2    0    0  0.30620771077E+02 -0.90589769592E+01 -0.25168795580E+02  0.40659131272E+02  0.00000000000E+00 0.  1.
         11    1    3    3    0    0 -0.12528119372E+02  0.12130404946E+01  0.11652267111E+02  0.17152275981E+02  0.51100000000E-03 0. -1.
        -11    1    3    3    0    0 -0.44386565345E+01  0.16472362537E+01  0.17279585151E+02  0.17916448375E+02  0.51100000000E-03 0.  1.
         12    1    3    3    0    0 -0.13653995170E+02  0.61987002108E+01 -0.37630566821E+01  0.15460144372E+02  0.00000000000E+00 0. -1.
</event>
<event>
 7    1  0.5913457E-013  0.5052886E+02  0.7816164E-02  0.1300439E+00
        -11   -1    0    0    0    0  0.00000000000E+00  0.00000000000E+00  0.45593999997E+02  0.45594000000E+02  0.51100000000E-03 0.  1.
         11   -1    0    0    0    0 -0.00000000000E+00 -0.00000000000E+00 -0.45593999997E+02  0.45594000000E+02  0.51100000000E-03 0. -1.
    9900012    2    1    2    0    0 -0.13970887858E+02  0.70944655952E+01 -0.37518640867E+02  0.50528861272E+02  0.30000004322E+02 0.  0.
        -12    1    1    2    0    0  0.13970887858E+02 -0.70944655952E+01  0.37518640867E+02  0.40659138728E+02  0.00000000000E+00 0.  1.
         11    1    3    3    0    0  0.12708007851E+01  0.20486273943E+00 -0.13821411094E+02  0.13881221426E+02  0.51100000000E-03 0. -1.
        -11    1    3    3    0    0 -0.38600436558E+01 -0.11080323370E+00 -0.22941374050E+02  0.23264110942E+02  0.51100000000E-03 0.  1.
        -12    1    3    3    0    0 -0.11381644988E+02  0.70004060895E+01 -0.75585572268E+00  0.13383528904E+02  0.00000000000E+00 0.  1.
</event>
<event>
 7    1  0.5913457E-013  0.5052887E+02  0.7816164E-02  0.1300439E+00
        -11   -1    0    0    0    0  0.00000000000E+00  0.00000000000E+00  0.45593999997E+02  0.45594000000E+02  0.51100000000E-03 0. -1.
         11   -1    0    0    0    0 -0.00000000000E+00 -0.00000000000E+00 -0.45593999997E+02  0.45594000000E+02  0.51100000000E-03 0.  1.
    9900012    2    1    2    0    0  0.58859984467E+01  0.38732498352E+02 -0.10877201838E+02  0.50528869093E+02  0.30000028096E+02 0.  0.
        -12    1    1    2    0    0 -0.58859984467E+01 -0.38732498352E+02  0.10877201838E+02  0.40659130907E+02  0.00000000000E+00 0.  1.
         11    1    3    3    0    0 -0.33794370373E+01  0.11799993664E+02 -0.32448469879E+01  0.12696041800E+02  0.51100000000E-03 0. -1.
        -11    1    3    3    0    0  0.50728620601E+01  0.33141652851E+01  0.73692107660E+01  0.95405916269E+01  0.51100000000E-03 0.  1.
         12    1    3    3    0    0  0.41925734239E+01  0.23618339403E+02 -0.15001565616E+02  0.28292235666E+02  0.00000000000E+00 0. -1.
</event>
<event>
 7    1  0.5913457E-013  0.5052887E+02  0.7816164E-02  0.1300439E+00
        -11   -1    0    0    0    0  0.00000000000E+00  0.00000000000E+00  0.45593999997E+02  0.45594000000E+02  0.51100000000E-03 0.  1.
         11   -1    0    0    0    0 -0.00000000000E+00 -0.00000000000E+00 -0.45593999997E+02  0.45594000000E+02  0.51100000000E-03 0. -1.
    9900012    2    1    2    0    0  0.53679150280E+01 -0.27367466364E+02 -0.29586681503E+02  0.50528874956E+02  0.30000045917E+02 0.  0.
        -12    1    1    2    0    0 -0.53679150280E+01  0.27367466364E+02  0.29586681503E+02  0.40659125044E+02  0.00000000000E+00 0.  1.
         11    1    3    3    0    0  0.75978456107E+01 -0.11905708119E+02 -0.31704126478E+02  0.34707704905E+02  0.51100000000E-03 0.  1.
        -11    1    3    3    0    0 -0.15667555161E+01 -0.87747531033E+01  0.18026915541E+01  0.90939931808E+01  0.51100000000E-03 0. -1.
        -12    1    3    3    0    0 -0.66317506659E+00 -0.66870051419E+01  0.31475342069E+00  0.67271768709E+01  0.00000000000E+00 0.  1.
</event>
<event>
 7    1  0.5913457E-013  0.5052887E+02  0.7816164E-02  0.1300439E+00
        -11   -1    0    0    0    0  0.00000000000E+00  0.00000000000E+00  0.45593999997E+02  0.45594000000E+02  0.51100000000E-03 0. -1.
         11   -1    0    0    0    0 -0.00000000000E+00 -0.00000000000E+00 -0.45593999997E+02  0.45594000000E+02  0.51100000000E-03 0.  1.
    9900012    2    1    2    0    0 -0.11862217294E+02 -0.16786347575E+02  0.35080927419E+02  0.50528866554E+02  0.30000020377E+02 0.  0.
        -12    1    1    2    0    0  0.11862217294E+02  0.16786347575E+02 -0.35080927419E+02  0.40659133446E+02  0.00000000000E+00 0.  1.
         11    1    3    3    0    0 -0.10884546139E+02 -0.28534724280E+01  0.22054417605E+02  0.24759099049E+02  0.51100000000E-03 0. -1.
        -11    1    3    3    0    0 -0.30261533602E+01  0.26495586040E+01 -0.77753834626E+00  0.40966243539E+01  0.51100000000E-03 0.  1.
         12    1    3    3    0    0  0.20484822058E+01 -0.16582433751E+02  0.13804048160E+02  0.21673143151E+02  0.00000000000E+00 0. -1.
</event>
<event>
 7    1  0.5913457E-013  0.5052886E+02  0.7816164E-02  0.1300439E+00
        -11   -1    0    0    0    0  0.00000000000E+00  0.00000000000E+00  0.45593999997E+02  0.45594000000E+02  0.51100000000E-03 0.  1.
         11   -1    0    0    0    0 -0.00000000000E+00 -0.00000000000E+00 -0.45593999997E+02  0.45594000000E+02  0.51100000000E-03 0. -1.
    9900012    2    1    2    0    0  0.38258280953E+02  0.12837983020E+02  0.49654684545E+01  0.50528859005E+02  0.29999997430E+02 0.  0.
        -12    1    1    2    0    0 -0.38258280953E+02 -0.12837983020E+02 -0.49654684545E+01  0.40659140995E+02  0.00000000000E+00 0.  1.
         11    1    3    3    0    0  0.15475937512E+02  0.54425221983E+01  0.21247636250E+00  0.16406426675E+02  0.51100000000E-03 0. -1.
        -11    1    3    3    0    0  0.16700647256E+02  0.15864393041E+02  0.10516810676E+01  0.23058547627E+02  0.51100000000E-03 0.  1.
        -12    1    3    3    0    0  0.60816961852E+01 -0.84689322195E+01  0.37013110243E+01  0.11063884703E+02  0.00000000000E+00 0.  1.
</event>
<event>
 7    1  0.5913457E-013  0.5052886E+02  0.7816164E-02  0.1300439E+00
        -11   -1    0    0    0    0  0.00000000000E+00  0.00000000000E+00  0.45593999997E+02  0.45594000000E+02  0.51100000000E-03 0.  1.
         11   -1    0    0    0    0 -0.00000000000E+00 -0.00000000000E+00 -0.45593999997E+02  0.45594000000E+02  0.51100000000E-03 0. -1.
    9900012    2    1    2    0    0 -0.10435005893E+02 -0.82607407497E+01 -0.38419220621E+02  0.50528859590E+02  0.29999999211E+02 0.  0.
        -12    1    1    2    0    0  0.10435005893E+02  0.82607407497E+01  0.38419220621E+02  0.40659140410E+02  0.00000000000E+00 0.  1.
         11    1    3    3    0    0 -0.52530823050E+01 -0.30085782624E+01 -0.16755325848E+02  0.17815368686E+02  0.51100000000E-03 0. -1.
        -11    1    3    3    0    0 -0.68647119527E+01 -0.25075842804E+01 -0.26172340582E+02  0.27173583881E+02  0.51100000000E-03 0.  1.
        -12    1    3    3    0    0  0.16827883643E+01 -0.27445782068E+01  0.45084458096E+01  0.55399070236E+01  0.00000000000E+00 0.  1.
</event>
<event>
 7    1  0.5913457E-013  0.5052884E+02  0.7816164E-02  0.1300439E+00
        -11   -1    0    0    0    0  0.00000000000E+00  0.00000000000E+00  0.45593999997E+02  0.45594000000E+02  0.51100000000E-03 0.  1.
         11   -1    0    0    0    0 -0.00000000000E+00 -0.00000000000E+00 -0.45593999997E+02  0.45594000000E+02  0.51100000000E-03 0. -1.
    9900012    2    1    2    0    0 -0.25022886909E+02  0.81387239464E+01 -0.30996509487E+02  0.50528839936E+02  0.29999939469E+02 0.  0.
        -12    1    1    2    0    0  0.25022886909E+02 -0.81387239464E+01  0.30996509487E+02  0.40659160064E+02  0.00000000000E+00 0.  1.
         11    1    3    3    0    0 -0.58938196431E+01  0.45367090777E+01 -0.20032099869E+01  0.77027066512E+01  0.51100000000E-03 0. -1.
        -11    1    3    3    0    0 -0.15084316522E+02  0.13712303919E+02 -0.16291652137E+02  0.26095628241E+02  0.51100000000E-03 0.  1.
        -12    1    3    3    0    0 -0.40447507440E+01 -0.10110289050E+02 -0.12701647363E+02  0.16730505043E+02  0.00000000000E+00 0.  1.
</event>
<event>
 7    1  0.5913457E-013  0.5052885E+02  0.7816164E-02  0.1300439E+00
        -11   -1    0    0    0    0  0.00000000000E+00  0.00000000000E+00  0.45593999997E+02  0.45594000000E+02  0.51100000000E-03 0.  1.
         11   -1    0    0    0    0 -0.00000000000E+00 -0.00000000000E+00 -0.45593999997E+02  0.45594000000E+02  0.51100000000E-03 0. -1.
    9900012    2    1    2    0    0 -0.24813161295E+02 -0.31189673033E+02 -0.80422314288E+01  0.50528853874E+02  0.29999981835E+02 0.  0.
        -12    1    1    2    0    0  0.24813161295E+02  0.31189673033E+02  0.80422314288E+01  0.40659146126E+02  0.00000000000E+00 0.  1.
         11    1    3    3    0    0 -0.18463700426E+02 -0.17932825863E+02  0.31872372718E+01  0.25935553947E+02  0.51100000000E-03 0. -1.
        -11    1    3    3    0    0 -0.28724411992E+01 -0.11131890643E+02  0.11562051804E+01  0.11554510738E+02  0.51100000000E-03 0.  1.
         12    1    3    3    0    0 -0.34770196695E+01 -0.21249565278E+01 -0.12385673881E+02  0.13038789189E+02  0.00000000000E+00 0. -1.
</event>
<event>
 7    1  0.5913457E-013  0.5052887E+02  0.7816164E-02  0.1300439E+00
        -11   -1    0    0    0    0  0.00000000000E+00  0.00000000000E+00  0.45593999997E+02  0.45594000000E+02  0.51100000000E-03 0.  1.
         11   -1    0    0    0    0 -0.00000000000E+00 -0.00000000000E+00 -0.45593999997E+02  0.45594000000E+02  0.51100000000E-03 0. -1.
    9900012    2    1    2    0    0  0.39849324391E+02  0.56690070099E+01 -0.57496625393E+01  0.50528869240E+02  0.30000028541E+02 0.  0.
        -12    1    1    2    0    0 -0.39849324391E+02 -0.56690070099E+01  0.57496625393E+01  0.40659130760E+02  0.00000000000E+00 0.  1.
         11    1    3    3    0    0 -0.36594675363E+01  0.18074531486E+01 -0.19794012017E+01  0.45361458213E+01  0.51100000000E-03 0. -1.
        -11    1    3    3    0    0 -0.94423488662E+00  0.82327084673E+00  0.16031434907E+00  0.12629550110E+01  0.51100000000E-03 0.  1.
         12    1    3    3    0    0  0.44453026813E+02  0.30382830145E+01 -0.39305756868E+01  0.44729768407E+02  0.00000000000E+00 0. -1.
</event>
<event>
 7    1  0.5913457E-013  0.5052886E+02  0.7816164E-02  0.1300439E+00
        -11   -1    0    0    0    0  0.00000000000E+00  0.00000000000E+00  0.45593999997E+02  0.45594000000E+02  0.51100000000E-03 0. -1.
         11   -1    0    0    0    0 -0.00000000000E+00 -0.00000000000E+00 -0.45593999997E+02  0.45594000000E+02  0.51100000000E-03 0.  1.
    9900012    2    1    2    0    0 -0.26485282826E+02  0.14402992553E+02  0.27280925730E+02  0.50528864378E+02  0.30000013762E+02 0.  0.
        -12    1    1    2    0    0  0.26485282826E+02 -0.14402992553E+02 -0.27280925730E+02  0.40659135622E+02  0.00000000000E+00 0.  1.
         11    1    3    3    0    0 -0.11867321863E+02  0.14333333182E+02  0.21237994350E+02  0.28237035478E+02  0.51100000000E-03 0. -1.
        -11    1    3    3    0    0  0.26431626060E+00  0.82051849239E+00  0.72878994971E+01  0.73387051325E+01  0.51100000000E-03 0.  1.
        -12    1    3    3    0    0 -0.14882277224E+02 -0.75085912084E+00 -0.12449681173E+01  0.14953123767E+02  0.00000000000E+00 0.  1.
</event>
<event>
 7    1  0.5913457E-013  0.5052886E+02  0.7816164E-02  0.1300439E+00
        -11   -1    0    0    0    0  0.00000000000E+00  0.00000000000E+00  0.45593999997E+02  0.45594000000E+02  0.51100000000E-03 0.  1.
         11   -1    0    0    0    0 -0.00000000000E+00 -0.00000000000E+00 -0.45593999997E+02  0.45594000000E+02  0.51100000000E-03 0. -1.
    9900012    2    1    2    0    0 -0.34700741086E+02 -0.21183016193E+02 -0.55138374685E+00  0.50528860425E+02  0.30000001749E+02 0.  0.
        -12    1    1    2    0    0  0.34700741086E+02  0.21183016193E+02  0.55138374685E+00  0.40659139575E+02  0.00000000000E+00 0.  1.
         11    1    3    3    0    0 -0.17591921511E+02 -0.51301462127E+01 -0.13517335428E+02  0.22770868669E+02  0.51100000000E-03 0. -1.
        -11    1    3    3    0    0 -0.55708830610E+01 -0.11365774603E+01  0.30389772805E+01  0.64468542387E+01  0.51100000000E-03 0.  1.
         12    1    3    3    0    0 -0.11537936514E+02 -0.14916292520E+02  0.99269744011E+01  0.21311137518E+02  0.00000000000E+00 0. -1.
</event>
<event>
 7    1  0.5913457E-013  0.5052878E+02  0.7816164E-02  0.1300439E+00
        -11   -1    0    0    0    0  0.00000000000E+00  0.00000000000E+00  0.45593999997E+02  0.45594000000E+02  0.51100000000E-03 0.  1.
         11   -1    0    0    0    0 -0.00000000000E+00 -0.00000000000E+00 -0.45593999997E+02  0.45594000000E+02  0.51100000000E-03 0. -1.
    9900012    2    1    2    0    0 -0.12655456317E+02 -0.42461367271E+01 -0.38405489163E+02  0.50528783954E+02  0.29999769304E+02 0.  0.
        -12    1    1    2    0    0  0.12655456317E+02  0.42461367271E+01  0.38405489163E+02  0.40659216046E+02  0.00000000000E+00 0.  1.
         11    1    3    3    0    0 -0.64023607974E+01  0.33846458682E+01 -0.31677815852E+02  0.32495077610E+02  0.51100000000E-03 0. -1.
        -11    1    3    3    0    0  0.28934941808E+01  0.98016058782E+00  0.10830289453E+01  0.32412922283E+01  0.51100000000E-03 0.  1.
         12    1    3    3    0    0 -0.91465896999E+01 -0.86109431831E+01 -0.78107022560E+01  0.14792414116E+02  0.00000000000E+00 0. -1.
</event>
<event>
 7    1  0.5913457E-013  0.5052886E+02  0.7816164E-02  0.1300439E+00
        -11   -1    0    0    0    0  0.00000000000E+00  0.00000000000E+00  0.45593999997E+02  0.45594000000E+02  0.51100000000E-03 0.  1.
         11   -1    0    0    0    0 -0.00000000000E+00 -0.00000000000E+00 -0.45593999997E+02  0.45594000000E+02  0.51100000000E-03 0. -1.
    9900012    2    1    2    0    0 -0.18031818209E+02 -0.16528346985E+02 -0.32478192287E+02  0.50528859623E+02  0.29999999309E+02 0.  0.
        -12    1    1    2    0    0  0.18031818209E+02  0.16528346985E+02  0.32478192287E+02  0.40659140377E+02  0.00000000000E+00 0.  1.
         11    1    3    3    0    0 -0.15449830933E+02 -0.18587310747E+02 -0.20667546491E+02  0.31801460263E+02  0.51100000000E-03 0. -1.
        -11    1    3    3    0    0 -0.32167987086E+01 -0.44116182482E+01 -0.25202502660E+00  0.54656826083E+01  0.51100000000E-03 0.  1.
        -12    1    3    3    0    0  0.63481143290E+00  0.64705820095E+01 -0.11558620770E+02  0.13261716751E+02  0.00000000000E+00 0.  1.
</event>
<event>
 7    1  0.5913457E-013  0.5052886E+02  0.7816164E-02  0.1300439E+00
        -11   -1    0    0    0    0  0.00000000000E+00  0.00000000000E+00  0.45593999997E+02  0.45594000000E+02  0.51100000000E-03 0.  1.
         11   -1    0    0    0    0 -0.00000000000E+00 -0.00000000000E+00 -0.45593999997E+02  0.45594000000E+02  0.51100000000E-03 0. -1.
    9900012    2    1    2    0    0  0.35673370590E+02  0.18604935178E+02 -0.58679620937E+01  0.50528856362E+02  0.29999989398E+02 0.  0.
        -12    1    1    2    0    0 -0.35673370590E+02 -0.18604935178E+02  0.58679620937E+01  0.40659143638E+02  0.00000000000E+00 0.  1.
         11    1    3    3    0    0  0.10501104021E+02  0.45149733405E+01 -0.99653246235E+01  0.15164625450E+02  0.51100000000E-03 0. -1.
        -11    1    3    3    0    0  0.13098784402E+02  0.72763930355E+01 -0.79811855683E+01  0.16977142626E+02  0.51100000000E-03 0.  1.
        -12    1    3    3    0    0  0.12073482167E+02  0.68135688021E+01  0.12078548098E+02  0.18387088285E+02  0.00000000000E+00 0.  1.
</event>
<event>
 7    1  0.5913457E-013  0.5052885E+02  0.7816164E-02  0.1300439E+00
        -11   -1    0    0    0    0  0.00000000000E+00  0.00000000000E+00  0.45593999997E+02  0.45594000000E+02  0.51100000000E-03 0.  1.
         11   -1    0    0    0    0 -0.00000000000E+00 -0.00000000000E+00 -0.45593999997E+02  0.45594000000E+02  0.51100000000E-03 0. -1.
    9900012    2    1    2    0    0 -0.15303304024E+02  0.30331540149E+02 -0.22337697777E+02  0.50528853627E+02  0.29999981083E+02 0.  0.
        -12    1    1    2    0    0  0.15303304024E+02 -0.30331540149E+02  0.22337697777E+02  0.40659146373E+02  0.00000000000E+00 0.  1.
         11    1    3    3    0    0 -0.11325970834E+02  0.14984710834E+02 -0.11473799931E+02  0.22010616966E+02  0.51100000000E-03 0. -1.
        -11    1    3    3    0    0  0.80396089419E+01  0.10904015318E+02 -0.52208777681E+01  0.14518623451E+02  0.51100000000E-03 0.  1.
         12    1    3    3    0    0 -0.12016942132E+02  0.44428139974E+01 -0.56430200781E+01  0.13999613210E+02  0.00000000000E+00 0. -1.
</event>
<event>
 7    1  0.5913457E-013  0.5052886E+02  0.7816164E-02  0.1300439E+00
        -11   -1    0    0    0    0  0.00000000000E+00  0.00000000000E+00  0.45593999997E+02  0.45594000000E+02  0.51100000000E-03 0. -1.
         11   -1    0    0    0    0 -0.00000000000E+00 -0.00000000000E+00 -0.45593999997E+02  0.45594000000E+02  0.51100000000E-03 0.  1.
    9900012    2    1    2    0    0 -0.20279895763E+02  0.23319008820E+02  0.26421871389E+02  0.50528860410E+02  0.30000001703E+02 0.  0.
        -12    1    1    2    0    0  0.20279895763E+02 -0.23319008820E+02 -0.26421871389E+02  0.40659139590E+02  0.00000000000E+00 0.  1.
         11    1    3    3    0    0 -0.32573540238E+01  0.14495241605E+01 -0.28870462821E+01  0.45876477660E+01  0.51100000000E-03 0.  1.
        -11    1    3    3    0    0 -0.14509976878E+02  0.15259507522E+02  0.64637122619E+01  0.22026610617E+02  0.51100000000E-03 0. -1.
         12    1    3    3    0    0 -0.25125648615E+01  0.66099771371E+01  0.22845205409E+02  0.23914602027E+02  0.00000000000E+00 0. -1.
</event>
<event>
 7    1  0.5913457E-013  0.5052887E+02  0.7816164E-02  0.1300439E+00
        -11   -1    0    0    0    0  0.00000000000E+00  0.00000000000E+00  0.45593999997E+02  0.45594000000E+02  0.51100000000E-03 0.  1.
         11   -1    0    0    0    0 -0.00000000000E+00 -0.00000000000E+00 -0.45593999997E+02  0.45594000000E+02  0.51100000000E-03 0. -1.
    9900012    2    1    2    0    0 -0.31349914925E+02  0.24431818342E+01 -0.25775539640E+02  0.50528871296E+02  0.30000034790E+02 0.  0.
        -12    1    1    2    0    0  0.31349914925E+02 -0.24431818342E+01  0.25775539640E+02  0.40659128704E+02  0.00000000000E+00 0.  1.
         11    1    3    3    0    0 -0.65743193860E+01 -0.43630030609E+01 -0.17393919330E+00  0.78922573579E+01  0.51100000000E-03 0. -1.
        -11    1    3    3    0    0 -0.97691633861E+00 -0.17102013542E+01  0.35456412784E+01  0.40559495239E+01  0.51100000000E-03 0.  1.
         12    1    3    3    0    0 -0.23798679200E+02  0.85163862493E+01 -0.29147241725E+02  0.38580664414E+02  0.00000000000E+00 0. -1.
</event>
<event>
 7    1  0.5913457E-013  0.5052886E+02  0.7816164E-02  0.1300439E+00
        -11   -1    0    0    0    0  0.00000000000E+00  0.00000000000E+00  0.45593999997E+02  0.45594000000E+02  0.51100000000E-03 0.  1.
         11   -1    0    0    0    0 -0.00000000000E+00 -0.00000000000E+00 -0.45593999997E+02  0.45594000000E+02  0.51100000000E-03 0. -1.
    9900012    2    1    2    0    0 -0.75317035854E+01 -0.24166973728E+02 -0.31818177181E+02  0.50528861087E+02  0.30000003759E+02 0.  0.
        -12    1    1    2    0    0  0.75317035854E+01  0.24166973728E+02  0.31818177181E+02  0.40659138913E+02  0.00000000000E+00 0.  1.
         11    1    3    3    0    0  0.14522673607E+01  0.53960357052E+00 -0.16243093973E+02  0.16316812023E+02  0.51100000000E-03 0. -1.
        -11    1    3    3    0    0 -0.21022999153E+01  0.15338772676E+01 -0.38770918271E+01  0.46695059378E+01  0.51100000000E-03 0.  1.
        -12    1    3    3    0    0 -0.68816710308E+01 -0.26240454566E+02 -0.11697991380E+02  0.29542543126E+02  0.00000000000E+00 0.  1.
</event>
<event>
 7    1  0.5913457E-013  0.5052885E+02  0.7816164E-02  0.1300439E+00
        -11   -1    0    0    0    0  0.00000000000E+00  0.00000000000E+00  0.45593999997E+02  0.45594000000E+02  0.51100000000E-03 0.  1.
         11   -1    0    0    0    0 -0.00000000000E+00 -0.00000000000E+00 -0.45593999997E+02  0.45594000000E+02  0.51100000000E-03 0. -1.
    9900012    2    1    2    0    0 -0.68886168133E+01  0.15439306004E+02 -0.36977572550E+02  0.50528854864E+02  0.29999984844E+02 0.  0.
        -12    1    1    2    0    0  0.68886168133E+01 -0.15439306004E+02  0.36977572550E+02  0.40659145136E+02  0.00000000000E+00 0.  1.
         11    1    3    3    0    0 -0.24894505197E+01  0.50165545793E+01 -0.99598196863E+00  0.56881599907E+01  0.51100000000E-03 0. -1.
        -11    1    3    3    0    0  0.57282256461E+01  0.94457698665E+01 -0.32105640783E+02  0.33953016181E+02  0.51100000000E-03 0.  1.
         12    1    3    3    0    0 -0.10127391940E+02  0.97698155842E+00 -0.38759497989E+01  0.10887678692E+02  0.00000000000E+00 0. -1.
</event>
<event>
 7    1  0.5913457E-013  0.5052886E+02  0.7816164E-02  0.1300439E+00
        -11   -1    0    0    0    0  0.00000000000E+00  0.00000000000E+00  0.45593999997E+02  0.45594000000E+02  0.51100000000E-03 0. -1.
         11   -1    0    0    0    0 -0.00000000000E+00 -0.00000000000E+00 -0.45593999997E+02  0.45594000000E+02  0.51100000000E-03 0.  1.
    9900012    2    1    2    0    0  0.39184068265E+02  0.31205598116E+01  0.10394061676E+02  0.50528860591E+02  0.30000002254E+02 0.  0.
        -12    1    1    2    0    0 -0.39184068265E+02 -0.31205598116E+01 -0.10394061676E+02  0.40659139409E+02  0.00000000000E+00 0.  1.
         11    1    3    3    0    0  0.25371413612E+02  0.70863344892E+01  0.15086561108E+02  0.30356697638E+02  0.51100000000E-03 0. -1.
        -11    1    3    3    0    0  0.10591757891E+02  0.29190756140E+01  0.44854793765E+00  0.10995796159E+02  0.51100000000E-03 0.  1.
        -12    1    3    3    0    0  0.32208967624E+01 -0.68848502916E+01 -0.51410473697E+01  0.91763667946E+01  0.00000000000E+00 0.  1.
</event>
<event>
 7    1  0.5913457E-013  0.5052885E+02  0.7816164E-02  0.1300439E+00
        -11   -1    0    0    0    0  0.00000000000E+00  0.00000000000E+00  0.45593999997E+02  0.45594000000E+02  0.51100000000E-03 0.  1.
         11   -1    0    0    0    0 -0.00000000000E+00 -0.00000000000E+00 -0.45593999997E+02  0.45594000000E+02  0.51100000000E-03 0. -1.
    9900012    2    1    2    0    0 -0.25275846263E+02 -0.20610695425E+02 -0.24279562205E+02  0.50528852061E+02  0.29999976326E+02 0.  0.
        -12    1    1    2    0    0  0.25275846263E+02  0.20610695425E+02  0.24279562205E+02  0.40659147939E+02  0.00000000000E+00 0.  1.
         11    1    3    3    0    0 -0.11338255003E+02 -0.16113668872E+02 -0.72622358965E+01  0.20998724283E+02  0.51100000000E-03 0. -1.
        -11    1    3    3    0    0 -0.36735467033E+01 -0.44653562062E+01 -0.18294820858E+02  0.19186839810E+02  0.51100000000E-03 0.  1.
        -12    1    3    3    0    0 -0.10264044557E+02 -0.31670347656E-01  0.12774945495E+01  0.10343287968E+02  0.00000000000E+00 0.  1.
</event>
<event>
 7    1  0.5913457E-013  0.5052886E+02  0.7816164E-02  0.1300439E+00
        -11   -1    0    0    0    0  0.00000000000E+00  0.00000000000E+00  0.45593999997E+02  0.45594000000E+02  0.51100000000E-03 0. -1.
         11   -1    0    0    0    0 -0.00000000000E+00 -0.00000000000E+00 -0.45593999997E+02  0.45594000000E+02  0.51100000000E-03 0.  1.
    9900012    2    1    2    0    0 -0.22638733311E+02  0.26665952317E+02 -0.20726322591E+02  0.50528859490E+02  0.29999998905E+02 0.  0.
        -12    1    1    2    0    0  0.22638733311E+02 -0.26665952317E+02  0.20726322591E+02  0.40659140510E+02  0.00000000000E+00 0.  1.
         11    1    3    3    0    0 -0.23119527787E+01  0.45632762106E+01  0.14109966592E+01  0.53065551216E+01  0.51100000000E-03 0. -1.
        -11    1    3    3    0    0  0.14674308497E+01  0.13820060656E+02 -0.13098450220E+01  0.13959338239E+02  0.51100000000E-03 0.  1.
        -12    1    3    3    0    0 -0.21794211382E+02  0.82826154508E+01 -0.20827474228E+02  0.31262966129E+02  0.00000000000E+00 0.  1.
</event>
<event>
 7    1  0.6701603E-013  0.5052885E+02  0.7816164E-02  0.1300439E+00
        -11   -1    0    0    0    0  0.00000000000E+00  0.00000000000E+00  0.45593999997E+02  0.45594000000E+02  0.51100000000E-03 0. -1.
         11   -1    0    0    0    0 -0.00000000000E+00 -0.00000000000E+00 -0.45593999997E+02  0.45594000000E+02  0.51100000000E-03 0.  1.
    9900012    2    1    2    0    0  0.15265447447E+02  0.33029091195E+02  0.18144183022E+02  0.50528854307E+02  0.29999983153E+02 0.  0.
        -12    1    1    2    0    0 -0.15265447447E+02 -0.33029091195E+02 -0.18144183022E+02  0.40659145693E+02  0.00000000000E+00 0.  1.
         11    1    3    3    0    0 -0.73785755470E+00  0.12413884354E+02  0.88755666185E+01  0.15278240789E+02  0.51100000000E-03 0. -1.
        -11    1    3    3    0    0  0.66354817723E+01  0.23328081525E+02  0.68576533798E+01  0.25204293605E+02  0.51100000000E-03 0.  1.
        -12    1    3    3    0    0  0.93678232294E+01 -0.27128746842E+01  0.24109630237E+01  0.10046319914E+02  0.00000000000E+00 0.  1.
</event>
<event>
 7    1  0.5913457E-013  0.5052886E+02  0.7816164E-02  0.1300439E+00
        -11   -1    0    0    0    0  0.00000000000E+00  0.00000000000E+00  0.45593999997E+02  0.45594000000E+02  0.51100000000E-03 0.  1.
         11   -1    0    0    0    0 -0.00000000000E+00 -0.00000000000E+00 -0.45593999997E+02  0.45594000000E+02  0.51100000000E-03 0. -1.
    9900012    2    1    2    0    0 -0.17353763568E+02  0.32426074669E+02 -0.17336737750E+02  0.50528857065E+02  0.29999991534E+02 0.  0.
        -12    1    1    2    0    0  0.17353763568E+02 -0.32426074669E+02  0.17336737750E+02  0.40659142935E+02  0.00000000000E+00 0.  1.
         11    1    3    3    0    0 -0.84904536362E+00  0.13015014960E+02  0.34710501123E+01  0.13496654459E+02  0.51100000000E-03 0. -1.
        -11    1    3    3    0    0 -0.69001583152E+01  0.19209606521E+02 -0.10543449255E+02  0.22973582435E+02  0.51100000000E-03 0.  1.
        -12    1    3    3    0    0 -0.96045598891E+01  0.20145318797E+00 -0.10264338607E+02  0.14058620171E+02  0.00000000000E+00 0.  1.
</event>
<event>
 7    1  0.5913457E-013  0.5052885E+02  0.7816164E-02  0.1300439E+00
        -11   -1    0    0    0    0  0.00000000000E+00  0.00000000000E+00  0.45593999997E+02  0.45594000000E+02  0.51100000000E-03 0.  1.
         11   -1    0    0    0    0 -0.00000000000E+00 -0.00000000000E+00 -0.45593999997E+02  0.45594000000E+02  0.51100000000E-03 0. -1.
    9900012    2    1    2    0    0  0.95827343417E+01  0.92464586997E+01 -0.38416670495E+02  0.50528851363E+02  0.29999974204E+02 0.  0.
        -12    1    1    2    0    0 -0.95827343417E+01 -0.92464586997E+01  0.38416670495E+02  0.40659148637E+02  0.00000000000E+00 0.  1.
         11    1    3    3    0    0  0.11986413808E+01  0.40410783913E+01  0.90138767540E+00  0.43104008777E+01  0.51100000000E-03 0. -1.
        -11    1    3    3    0    0  0.15072705004E+02  0.45097105124E+01 -0.18209969761E+02  0.24065056078E+02  0.51100000000E-03 0.  1.
         12    1    3    3    0    0 -0.66886120432E+01  0.69566979601E+00 -0.21108088409E+02  0.22153394408E+02  0.00000000000E+00 0. -1.
</event>
<event>
 7    1  0.5913457E-013  0.5052887E+02  0.7816164E-02  0.1300439E+00
        -11   -1    0    0    0    0  0.00000000000E+00  0.00000000000E+00  0.45593999997E+02  0.45594000000E+02  0.51100000000E-03 0. -1.
         11   -1    0    0    0    0 -0.00000000000E+00 -0.00000000000E+00 -0.45593999997E+02  0.45594000000E+02  0.51100000000E-03 0.  1.
    9900012    2    1    2    0    0  0.14760158264E+01 -0.36587799683E+02  0.17672561337E+02  0.50528866554E+02  0.30000020378E+02 0.  0.
        -12    1    1    2    0    0 -0.14760158264E+01  0.36587799683E+02 -0.17672561337E+02  0.40659133446E+02  0.00000000000E+00 0.  1.
         11    1    3    3    0    0 -0.19432439238E+01 -0.91567452050E+01  0.13208909573E+02  0.16189424698E+02  0.51100000000E-03 0. -1.
        -11    1    3    3    0    0 -0.16861531343E+01 -0.14144897453E+02  0.11643123727E+02  0.18397922892E+02  0.51100000000E-03 0.  1.
        -12    1    3    3    0    0  0.51054128846E+01 -0.13286157025E+02 -0.71794719629E+01  0.15941518964E+02  0.00000000000E+00 0.  1.
</event>
<event>
 7    1  0.5913457E-013  0.5052886E+02  0.7816164E-02  0.1300439E+00
        -11   -1    0    0    0    0  0.00000000000E+00  0.00000000000E+00  0.45593999997E+02  0.45594000000E+02  0.51100000000E-03 0.  1.
         11   -1    0    0    0    0 -0.00000000000E+00 -0.00000000000E+00 -0.45593999997E+02  0.45594000000E+02  0.51100000000E-03 0. -1.
    9900012    2    1    2    0    0  0.15578527770E+02 -0.35738096743E+02 -0.11543978790E+02  0.50528861635E+02  0.30000005425E+02 0.  0.
        -12    1    1    2    0    0 -0.15578527770E+02  0.35738096743E+02  0.11543978790E+02  0.40659138365E+02  0.00000000000E+00 0.  1.
         11    1    3    3    0    0 -0.54656471381E+00 -0.58367108177E+01  0.10617810704E+00  0.58632073311E+01  0.51100000000E-03 0. -1.
        -11    1    3    3    0    0 -0.23337687659E+01 -0.14478680780E+02 -0.14278779619E+02  0.20468566668E+02  0.51100000000E-03 0.  1.
         12    1    3    3    0    0  0.18458861249E+02 -0.15422705145E+02  0.26286227216E+01  0.24197087635E+02  0.00000000000E+00 0. -1.
</event>
<event>
 7    1  0.5913457E-013  0.5052893E+02  0.7816164E-02  0.1300439E+00
        -11   -1    0    0    0    0  0.00000000000E+00  0.00000000000E+00  0.45593999997E+02  0.45594000000E+02  0.51100000000E-03 0.  1.
         11   -1    0    0    0    0 -0.00000000000E+00 -0.00000000000E+00 -0.45593999997E+02  0.45594000000E+02  0.51100000000E-03 0. -1.
    9900012    2    1    2    0    0  0.40496339626E+02  0.23383479932E+01 -0.27818622500E+01  0.50528927802E+02  0.30000206545E+02 0.  0.
        -12    1    1    2    0    0 -0.40496339626E+02 -0.23383479932E+01  0.27818622500E+01  0.40659072198E+02  0.00000000000E+00 0.  1.
         11    1    3    3    0    0  0.17989588943E+01 -0.82746181165E+01  0.28620323430E+01  0.89385002920E+01  0.51100000000E-03 0.  1.
        -11    1    3    3    0    0  0.31665260469E+01 -0.12770154316E+01 -0.19733328367E+01  0.39435641701E+01  0.51100000000E-03 0. -1.
        -12    1    3    3    0    0  0.35530854685E+02  0.11889981541E+02 -0.36705617564E+01  0.37646863339E+02  0.00000000000E+00 0.  1.
</event>
<event>
 7    1  0.5913457E-013  0.5052886E+02  0.7816164E-02  0.1300439E+00
        -11   -1    0    0    0    0  0.00000000000E+00  0.00000000000E+00  0.45593999997E+02  0.45594000000E+02  0.51100000000E-03 0.  1.
         11   -1    0    0    0    0 -0.00000000000E+00 -0.00000000000E+00 -0.45593999997E+02  0.45594000000E+02  0.51100000000E-03 0. -1.
    9900012    2    1    2    0    0 -0.21908942150E+02 -0.58283159720E+01 -0.33751961412E+02  0.50528856965E+02  0.29999991229E+02 0.  0.
        -12    1    1    2    0    0  0.21908942150E+02  0.58283159720E+01  0.33751961412E+02  0.40659143035E+02  0.00000000000E+00 0.  1.
         11    1    3    3    0    0 -0.19686611109E+01 -0.17930196565E+00  0.33592856673E-01  0.19770949663E+01  0.51100000000E-03 0. -1.
        -11    1    3    3    0    0 -0.23477132104E+02  0.18019946217E+01 -0.14694394627E+02  0.27755146372E+02  0.51100000000E-03 0.  1.
         12    1    3    3    0    0  0.35368510642E+01 -0.74510086281E+01 -0.19091159642E+02  0.20796615626E+02  0.00000000000E+00 0. -1.
</event>
<event>
 7    1  0.5913457E-013  0.5052886E+02  0.7816164E-02  0.1300439E+00
        -11   -1    0    0    0    0  0.00000000000E+00  0.00000000000E+00  0.45593999997E+02  0.45594000000E+02  0.51100000000E-03 0. -1.
         11   -1    0    0    0    0 -0.00000000000E+00 -0.00000000000E+00 -0.45593999997E+02  0.45594000000E+02  0.51100000000E-03 0.  1.
    9900012    2    1    2    0    0 -0.38208909376E+02  0.13657636296E+02  0.25911006721E+01  0.50528860958E+02  0.30000003368E+02 0.  0.
        -12    1    1    2    0    0  0.38208909376E+02 -0.13657636296E+02 -0.25911006721E+01  0.40659139042E+02  0.00000000000E+00 0.  1.
         11    1    3    3    0    0 -0.11703590335E+02 -0.70468360077E+00 -0.21974512245E+01  0.11928931128E+02  0.51100000000E-03 0. -1.
        -11    1    3    3    0    0 -0.18267596920E+02 -0.20500514339E+01  0.78401573057E+01  0.19984390783E+02  0.51100000000E-03 0.  1.
        -12    1    3    3    0    0 -0.82377221205E+01  0.16412371331E+02 -0.30516054090E+01  0.18615539047E+02  0.00000000000E+00 0.  1.
</event>
<event>
 7    1  0.5913457E-013  0.5052884E+02  0.7816164E-02  0.1300439E+00
        -11   -1    0    0    0    0  0.00000000000E+00  0.00000000000E+00  0.45593999997E+02  0.45594000000E+02  0.51100000000E-03 0.  1.
         11   -1    0    0    0    0 -0.00000000000E+00 -0.00000000000E+00 -0.45593999997E+02  0.45594000000E+02  0.51100000000E-03 0. -1.
    9900012    2    1    2    0    0  0.28076940391E+02 -0.26092169384E+02  0.13566555985E+02  0.50528839578E+02  0.29999938382E+02 0.  0.
        -12    1    1    2    0    0 -0.28076940391E+02  0.26092169384E+02 -0.13566555985E+02  0.40659160422E+02  0.00000000000E+00 0.  1.
         11    1    3    3    0    0  0.13750020266E+02 -0.13003478085E+02  0.12244223433E+02  0.22540508143E+02  0.51100000000E-03 0. -1.
        -11    1    3    3    0    0  0.11046165077E+02 -0.14459518386E+02  0.84200922576E+01  0.20049772785E+02  0.51100000000E-03 0.  1.
        -12    1    3    3    0    0  0.32807550487E+01  0.13708270870E+01 -0.70977597057E+01  0.79385586496E+01  0.00000000000E+00 0.  1.
</event>
<event>
 7    1  0.5913457E-013  0.5052883E+02  0.7816164E-02  0.1300439E+00
        -11   -1    0    0    0    0  0.00000000000E+00  0.00000000000E+00  0.45593999997E+02  0.45594000000E+02  0.51100000000E-03 0. -1.
         11   -1    0    0    0    0 -0.00000000000E+00 -0.00000000000E+00 -0.45593999997E+02  0.45594000000E+02  0.51100000000E-03 0.  1.
    9900012    2    1    2    0    0  0.15275793516E+02  0.37398967837E+02 -0.45973452205E+01  0.50528828268E+02  0.29999904004E+02 0.  0.
        -12    1    1    2    0    0 -0.15275793516E+02 -0.37398967837E+02  0.45973452205E+01  0.40659171732E+02  0.00000000000E+00 0.  1.
         11    1    3    3    0    0  0.78126892866E+00 -0.95656636233E+00 -0.67726863377E+01  0.68843794807E+01  0.51100000000E-03 0. -1.
        -11    1    3    3    0    0 -0.24530422440E+01  0.11844962133E+02 -0.11013871543E+00  0.12096804329E+02  0.51100000000E-03 0.  1.
         12    1    3    3    0    0  0.16947566831E+02  0.26510572067E+02  0.22854798326E+01  0.31547644459E+02  0.00000000000E+00 0. -1.
</event>
<event>
 7    1  0.5913457E-013  0.5052886E+02  0.7816164E-02  0.1300439E+00
        -11   -1    0    0    0    0  0.00000000000E+00  0.00000000000E+00  0.45593999997E+02  0.45594000000E+02  0.51100000000E-03 0.  1.
         11   -1    0    0    0    0 -0.00000000000E+00 -0.00000000000E+00 -0.45593999997E+02  0.45594000000E+02  0.51100000000E-03 0. -1.
    9900012    2    1    2    0    0 -0.25969416302E+01  0.85588987634E+01 -0.39663167162E+02  0.50528859783E+02  0.29999999797E+02 0.  0.
        -12    1    1    2    0    0  0.25969416302E+01 -0.85588987634E+01  0.39663167162E+02  0.40659140217E+02  0.00000000000E+00 0.  1.
         11    1    3    3    0    0  0.15089299629E+01 -0.25646413331E+01 -0.88375752553E+01  0.93250732680E+01  0.51100000000E-03 0. -1.
        -11    1    3    3    0    0  0.10376542107E+02  0.51829475049E+01 -0.14774152730E+02  0.18783268088E+02  0.51100000000E-03 0.  1.
         12    1    3    3    0    0 -0.14482413700E+02  0.59405925916E+01 -0.16051439177E+02  0.22420518427E+02  0.00000000000E+00 0. -1.
</event>
<event>
 7    1  0.5913457E-013  0.5052884E+02  0.7816164E-02  0.1300439E+00
        -11   -1    0    0    0    0  0.00000000000E+00  0.00000000000E+00  0.45593999997E+02  0.45594000000E+02  0.51100000000E-03 0. -1.
         11   -1    0    0    0    0 -0.00000000000E+00 -0.00000000000E+00 -0.45593999997E+02  0.45594000000E+02  0.51100000000E-03 0.  1.
    9900012    2    1    2    0    0 -0.23753958005E+02  0.14130668466E+02  0.29820140730E+02  0.50528842294E+02  0.29999946637E+02 0.  0.
        -12    1    1    2    0    0  0.23753958005E+02 -0.14130668466E+02 -0.29820140730E+02  0.40659157706E+02  0.00000000000E+00 0.  1.
         11    1    3    3    0    0 -0.42959691081E+01 -0.50644333720E+01  0.49762475248E+01  0.82986068498E+01  0.51100000000E-03 0. -1.
        -11    1    3    3    0    0 -0.42898397673E+01  0.12731372380E+02  0.13142919883E+01  0.13498812229E+02  0.51100000000E-03 0.  1.
         12    1    3    3    0    0 -0.15168149130E+02  0.64637294578E+01  0.23529601217E+02  0.28731423215E+02  0.00000000000E+00 0. -1.
</event>
<event>
 7    1  0.5913457E-013  0.5052885E+02  0.7816164E-02  0.1300439E+00
        -11   -1    0    0    0    0  0.00000000000E+00  0.00000000000E+00  0.45593999997E+02  0.45594000000E+02  0.51100000000E-03 0. -1.
         11   -1    0    0    0    0 -0.00000000000E+00 -0.00000000000E+00 -0.45593999997E+02  0.45594000000E+02  0.51100000000E-03 0.  1.
    9900012    2    1    2    0    0  0.16158697230E+02  0.92527536347E+01  0.36144843158E+02  0.50528848104E+02  0.29999964296E+02 0.  0.
        -12    1    1    2    0    0 -0.16158697230E+02 -0.92527536347E+01 -0.36144843158E+02  0.40659151896E+02  0.00000000000E+00 0.  1.
         11    1    3    3    0    0  0.12362713047E+02 -0.44949346425E+00  0.70203714783E+01  0.14224075865E+02  0.51100000000E-03 0.  1.
        -11    1    3    3    0    0  0.97058408031E+01  0.56566894784E+01  0.26313064064E+02  0.28610816525E+02  0.51100000000E-03 0. -1.
        -12    1    3    3    0    0 -0.59098566205E+01  0.40455576205E+01  0.28114076163E+01  0.76939557135E+01  0.00000000000E+00 0.  1.
</event>
<event>
 7    1  0.5913457E-013  0.5052886E+02  0.7816164E-02  0.1300439E+00
        -11   -1    0    0    0    0  0.00000000000E+00  0.00000000000E+00  0.45593999997E+02  0.45594000000E+02  0.51100000000E-03 0.  1.
         11   -1    0    0    0    0 -0.00000000000E+00 -0.00000000000E+00 -0.45593999997E+02  0.45594000000E+02  0.51100000000E-03 0. -1.
    9900012    2    1    2    0    0 -0.13707504314E+01  0.25524021154E+02 -0.31619794535E+02  0.50528855653E+02  0.29999987242E+02 0.  0.
        -12    1    1    2    0    0  0.13707504314E+01 -0.25524021154E+02  0.31619794535E+02  0.40659144347E+02  0.00000000000E+00 0.  1.
         11    1    3    3    0    0  0.19031536454E+01  0.25340245150E+02 -0.26459058852E+02  0.36685580459E+02  0.51100000000E-03 0. -1.
        -11    1    3    3    0    0  0.75757273506E-01  0.25807835128E+01 -0.82821031029E+01  0.86752184280E+01  0.51100000000E-03 0.  1.
        -12    1    3    3    0    0 -0.33496613503E+01 -0.23970075089E+01  0.31213674200E+01  0.51680567653E+01  0.00000000000E+00 0.  1.
</event>
<event>
 7    1  0.5913457E-013  0.5052875E+02  0.7816164E-02  0.1300439E+00
        -11   -1    0    0    0    0  0.00000000000E+00  0.00000000000E+00  0.45593999997E+02  0.45594000000E+02  0.51100000000E-03 0.  1.
         11   -1    0    0    0    0 -0.00000000000E+00 -0.00000000000E+00 -0.45593999997E+02  0.45594000000E+02  0.51100000000E-03 0. -1.
    9900012    2    1    2    0    0 -0.39192729742E+02 -0.52375711763E+01 -0.94695499327E+01  0.50528750224E+02  0.29999666778E+02 0.  0.
        -12    1    1    2    0    0  0.39192729742E+02  0.52375711763E+01  0.94695499327E+01  0.40659249776E+02  0.00000000000E+00 0.  1.
         11    1    3    3    0    0 -0.24865221212E+02 -0.10732322501E+02 -0.27191413357E+01  0.27218664590E+02  0.51100000000E-03 0. -1.
        -11    1    3    3    0    0 -0.13401182386E+02  0.10327061554E+02 -0.31406628655E+01  0.17207662630E+02  0.51100000000E-03 0.  1.
         12    1    3    3    0    0 -0.92632614357E+00 -0.48323102286E+01 -0.36097457315E+01  0.61024230037E+01  0.00000000000E+00 0. -1.
</event>
<event>
 7    1  0.5913457E-013  0.5052887E+02  0.7816164E-02  0.1300439E+00
        -11   -1    0    0    0    0  0.00000000000E+00  0.00000000000E+00  0.45593999997E+02  0.45594000000E+02  0.51100000000E-03 0. -1.
         11   -1    0    0    0    0 -0.00000000000E+00 -0.00000000000E+00 -0.45593999997E+02  0.45594000000E+02  0.51100000000E-03 0.  1.
    9900012    2    1    2    0    0  0.29613773694E+02 -0.97015828504E+01  0.26116445781E+02  0.50528867663E+02  0.30000023747E+02 0.  0.
        -12    1    1    2    0    0 -0.29613773694E+02  0.97015828504E+01 -0.26116445781E+02  0.40659132337E+02  0.00000000000E+00 0.  1.
         11    1    3    3    0    0  0.23355830902E+02 -0.10554486626E+02  0.13914946718E+02  0.29163637762E+02  0.51100000000E-03 0. -1.
        -11    1    3    3    0    0  0.69936457777E+01  0.74157707285E+01  0.10304047968E+02  0.14494072635E+02  0.51100000000E-03 0.  1.
        -12    1    3    3    0    0 -0.73570298502E+00 -0.65628669527E+01  0.18974510947E+01  0.68711572663E+01  0.00000000000E+00 0.  1.
</event>
<event>
 7    1  0.1093565E-012  0.5052886E+02  0.7816164E-02  0.1300439E+00
        -11   -1    0    0    0    0  0.00000000000E+00  0.00000000000E+00  0.45593999997E+02  0.45594000000E+02  0.51100000000E-03 0. -1.
         11   -1    0    0    0    0 -0.00000000000E+00 -0.00000000000E+00 -0.45593999997E+02  0.45594000000E+02  0.51100000000E-03 0.  1.
    9900012    2    1    2    0    0  0.13189143915E+02  0.38122118181E+01  0.38271130799E+02  0.50528856763E+02  0.29999990616E+02 0.  0.
        -12    1    1    2    0    0 -0.13189143915E+02 -0.38122118181E+01 -0.38271130799E+02  0.40659143237E+02  0.00000000000E+00 0.  1.
         11    1    3    3    0    0  0.45273286433E+01 -0.51684814243E+01  0.26628044867E+02  0.27500230519E+02  0.51100000000E-03 0. -1.
        -11    1    3    3    0    0 -0.22301214306E+01  0.77331387571E+01  0.83134257661E+01  0.11570994981E+02  0.51100000000E-03 0.  1.
        -12    1    3    3    0    0  0.10891936703E+02  0.12475544853E+01  0.33296601660E+01  0.11457631263E+02  0.00000000000E+00 0.  1.
</event>
<event>
 7    1  0.5913457E-013  0.5052887E+02  0.7816164E-02  0.1300439E+00
        -11   -1    0    0    0    0  0.00000000000E+00  0.00000000000E+00  0.45593999997E+02  0.45594000000E+02  0.51100000000E-03 0.  1.
         11   -1    0    0    0    0 -0.00000000000E+00 -0.00000000000E+00 -0.45593999997E+02  0.45594000000E+02  0.51100000000E-03 0. -1.
    9900012    2    1    2    0    0 -0.32258724512E+02 -0.12063057024E+02 -0.21610691628E+02  0.50528872555E+02  0.30000038618E+02 0.  0.
        -12    1    1    2    0    0  0.32258724512E+02  0.12063057024E+02  0.21610691628E+02  0.40659127445E+02  0.00000000000E+00 0.  1.
         11    1    3    3    0    0 -0.19655881048E+02  0.42567681822E+01 -0.11915657380E+02  0.23376411747E+02  0.51100000000E-03 0.  1.
        -11    1    3    3    0    0 -0.93715566885E+01 -0.69220510550E+00 -0.32782513411E+01  0.99524949028E+01  0.51100000000E-03 0. -1.
        -12    1    3    3    0    0 -0.32312867762E+01 -0.15627620101E+02 -0.64167829072E+01  0.17199965905E+02  0.00000000000E+00 0.  1.
</event>
<event>
 7    1  0.5913457E-013  0.5052886E+02  0.7816164E-02  0.1300439E+00
        -11   -1    0    0    0    0  0.00000000000E+00  0.00000000000E+00  0.45593999997E+02  0.45594000000E+02  0.51100000000E-03 0.  1.
         11   -1    0    0    0    0 -0.00000000000E+00 -0.00000000000E+00 -0.45593999997E+02  0.45594000000E+02  0.51100000000E-03 0. -1.
    9900012    2    1    2    0    0  0.14022301361E+02  0.27453397917E+02 -0.26511351313E+02  0.50528859071E+02  0.29999997633E+02 0.  0.
        -12    1    1    2    0    0 -0.14022301361E+02 -0.27453397917E+02  0.26511351313E+02  0.40659140929E+02  0.00000000000E+00 0.  1.
         11    1    3    3    0    0  0.14873289221E+02  0.12847165218E+02 -0.10442495574E+02  0.22255563360E+02  0.51100000000E-03 0. -1.
        -11    1    3    3    0    0  0.81336641017E+01  0.87666716467E+01 -0.11608668800E+02  0.16666499784E+02  0.51100000000E-03 0.  1.
        -12    1    3    3    0    0 -0.89846519622E+01  0.58395610517E+01 -0.44601869395E+01  0.11606795927E+02  0.00000000000E+00 0.  1.
</event>
<event>
 7    1  0.5913457E-013  0.5052885E+02  0.7816164E-02  0.1300439E+00
        -11   -1    0    0    0    0  0.00000000000E+00  0.00000000000E+00  0.45593999997E+02  0.45594000000E+02  0.51100000000E-03 0. -1.
         11   -1    0    0    0    0 -0.00000000000E+00 -0.00000000000E+00 -0.45593999997E+02  0.45594000000E+02  0.51100000000E-03 0.  1.
    9900012    2    1    2    0    0  0.32433047159E+02  0.95699157671E+01  0.22576098900E+02  0.50528854936E+02  0.29999985065E+02 0.  0.
        -12    1    1    2    0    0 -0.32433047159E+02 -0.95699157671E+01 -0.22576098900E+02  0.40659145064E+02  0.00000000000E+00 0.  1.
         11    1    3    3    0    0  0.28368456577E+00 -0.43444235824E+01 -0.88289267191E+00  0.44422959072E+01  0.51100000000E-03 0. -1.
        -11    1    3    3    0    0 -0.14843275957E+01 -0.84739667158E+00  0.43688807070E+01  0.46913141467E+01  0.51100000000E-03 0.  1.
         12    1    3    3    0    0  0.33633690188E+02  0.14761736021E+02  0.19090110865E+02  0.41395244882E+02  0.00000000000E+00 0. -1.
</event>
<event>
 7    1  0.5913457E-013  0.5052885E+02  0.7816164E-02  0.1300439E+00
        -11   -1    0    0    0    0  0.00000000000E+00  0.00000000000E+00  0.45593999997E+02  0.45594000000E+02  0.51100000000E-03 0.  1.
         11   -1    0    0    0    0 -0.00000000000E+00 -0.00000000000E+00 -0.45593999997E+02  0.45594000000E+02  0.51100000000E-03 0. -1.
    9900012    2    1    2    0    0  0.32067151351E+02  0.23996486457E+02  0.70023370964E+01  0.50528852408E+02  0.29999977380E+02 0.  0.
        -12    1    1    2    0    0 -0.32067151351E+02 -0.23996486457E+02 -0.70023370964E+01  0.40659147592E+02  0.00000000000E+00 0.  1.
         11    1    3    3    0    0  0.68929013983E+01  0.13881568090E+01  0.44397711498E+01  0.83156862097E+01  0.51100000000E-03 0. -1.
        -11    1    3    3    0    0  0.14154469377E+02  0.13660671941E+02  0.13866304001E+02  0.24067350252E+02  0.51100000000E-03 0.  1.
         12    1    3    3    0    0  0.11019780575E+02  0.89476577075E+01 -0.11303738054E+02  0.18145815947E+02  0.00000000000E+00 0. -1.
</event>
<event>
 7    1  0.5913457E-013  0.5052886E+02  0.7816164E-02  0.1300439E+00
        -11   -1    0    0    0    0  0.00000000000E+00  0.00000000000E+00  0.45593999997E+02  0.45594000000E+02  0.51100000000E-03 0.  1.
         11   -1    0    0    0    0 -0.00000000000E+00 -0.00000000000E+00 -0.45593999997E+02  0.45594000000E+02  0.51100000000E-03 0. -1.
    9900012    2    1    2    0    0 -0.20036360276E+02 -0.12558671027E+02 -0.33075514545E+02  0.50528860640E+02  0.30000002402E+02 0.  0.
        -12    1    1    2    0    0  0.20036360276E+02  0.12558671027E+02  0.33075514545E+02  0.40659139360E+02  0.00000000000E+00 0.  1.
         11    1    3    3    0    0 -0.98452023917E+01 -0.56029392870E+01 -0.11137861954E+02  0.15886249021E+02  0.51100000000E-03 0. -1.
        -11    1    3    3    0    0 -0.97345904985E+01 -0.36035621635E+01 -0.26788077980E+02  0.28728888502E+02  0.51100000000E-03 0.  1.
        -12    1    3    3    0    0 -0.45656738563E+00 -0.33521695769E+01  0.48504253894E+01  0.59137231173E+01  0.00000000000E+00 0.  1.
</event>
<event>
 7    1  0.5913457E-013  0.5052886E+02  0.7816164E-02  0.1300439E+00
        -11   -1    0    0    0    0  0.00000000000E+00  0.00000000000E+00  0.45593999997E+02  0.45594000000E+02  0.51100000000E-03 0. -1.
         11   -1    0    0    0    0 -0.00000000000E+00 -0.00000000000E+00 -0.45593999997E+02  0.45594000000E+02  0.51100000000E-03 0.  1.
    9900012    2    1    2    0    0  0.25559198536E+02  0.17060451689E+02  0.26623944183E+02  0.50528855327E+02  0.29999986253E+02 0.  0.
        -12    1    1    2    0    0 -0.25559198536E+02 -0.17060451689E+02 -0.26623944183E+02  0.40659144673E+02  0.00000000000E+00 0.  1.
         11    1    3    3    0    0  0.17763820595E+02  0.19543773360E+01  0.15691246093E+02  0.23782096567E+02  0.51100000000E-03 0. -1.
        -11    1    3    3    0    0  0.10615013528E+02  0.55065433177E+01  0.11677250492E+02  0.16714027367E+02  0.51100000000E-03 0.  1.
        -12    1    3    3    0    0 -0.28196355872E+01  0.95995310350E+01 -0.74455240144E+00  0.10032731394E+02  0.00000000000E+00 0.  1.
</event>
<event>
 7    1  0.5913457E-013  0.5052887E+02  0.7816164E-02  0.1300439E+00
        -11   -1    0    0    0    0  0.00000000000E+00  0.00000000000E+00  0.45593999997E+02  0.45594000000E+02  0.51100000000E-03 0.  1.
         11   -1    0    0    0    0 -0.00000000000E+00 -0.00000000000E+00 -0.45593999997E+02  0.45594000000E+02  0.51100000000E-03 0. -1.
    9900012    2    1    2    0    0 -0.80126256808E+01  0.15077215229E+02 -0.36900408665E+02  0.50528871271E+02  0.30000034714E+02 0.  0.
        -12    1    1    2    0    0  0.80126256808E+01 -0.15077215229E+02  0.36900408665E+02  0.40659128729E+02  0.00000000000E+00 0.  1.
         11    1    3    3    0    0 -0.40874015571E+01 -0.41258623865E+00  0.32100238845E+01  0.52135719516E+01  0.51100000000E-03 0. -1.
        -11    1    3    3    0    0  0.51832244735E+01  0.55999535330E+01 -0.15215145582E+02  0.17021338104E+02  0.51100000000E-03 0.  1.
         12    1    3    3    0    0 -0.91084485971E+01  0.98898479347E+01 -0.24895286968E+02  0.28293961215E+02  0.00000000000E+00 0. -1.
</event>
<event>
 7    1  0.5913457E-013  0.5052886E+02  0.7816164E-02  0.1300439E+00
        -11   -1    0    0    0    0  0.00000000000E+00  0.00000000000E+00  0.45593999997E+02  0.45594000000E+02  0.51100000000E-03 0.  1.
         11   -1    0    0    0    0 -0.00000000000E+00 -0.00000000000E+00 -0.45593999997E+02  0.45594000000E+02  0.51100000000E-03 0. -1.
    9900012    2    1    2    0    0  0.25755803854E+02  0.26120751045E+02 -0.17535976745E+02  0.50528861449E+02  0.30000004860E+02 0.  0.
        -12    1    1    2    0    0 -0.25755803854E+02 -0.26120751045E+02  0.17535976745E+02  0.40659138551E+02  0.00000000000E+00 0.  1.
         11    1    3    3    0    0  0.39754397603E+01  0.10006941602E+02 -0.73765658299E+01  0.13052077429E+02  0.51100000000E-03 0. -1.
        -11    1    3    3    0    0  0.44908764152E+01  0.17919388495E+02 -0.31837870925E+01  0.18745905034E+02  0.51100000000E-03 0.  1.
        -12    1    3    3    0    0  0.17289487678E+02 -0.18055790519E+01 -0.69756238227E+01  0.18730878986E+02  0.00000000000E+00 0.  1.
</event>
<event>
 7    1  0.5913457E-013  0.5052895E+02  0.7816164E-02  0.1300438E+00
        -11   -1    0    0    0    0  0.00000000000E+00  0.00000000000E+00  0.45593999997E+02  0.45594000000E+02  0.51100000000E-03 0.  1.
         11   -1    0    0    0    0 -0.00000000000E+00 -0.00000000000E+00 -0.45593999997E+02  0.45594000000E+02  0.51100000000E-03 0. -1.
    9900012    2    1    2    0    0 -0.27839249404E+02  0.21298765312E+02 -0.20603331947E+02  0.50528948136E+02  0.30000268353E+02 0.  0.
        -12    1    1    2    0    0  0.27839249404E+02 -0.21298765312E+02  0.20603331947E+02  0.40659051864E+02  0.00000000000E+00 0.  1.
         11    1    3    3    0    0 -0.19280219120E+02  0.12747441948E+02 -0.52010746816E+01  0.23691249516E+02  0.51100000000E-03 0.  1.
        -11    1    3    3    0    0 -0.36972624027E+01 -0.48947001138E+01 -0.45177984799E+00  0.61507677383E+01  0.51100000000E-03 0. -1.
        -12    1    3    3    0    0 -0.48617678813E+01  0.13446023477E+02 -0.14950477417E+02  0.20686930881E+02  0.00000000000E+00 0.  1.
</event>
<event>
 7    1  0.5913457E-013  0.5052886E+02  0.7816164E-02  0.1300439E+00
        -11   -1    0    0    0    0  0.00000000000E+00  0.00000000000E+00  0.45593999997E+02  0.45594000000E+02  0.51100000000E-03 0.  1.
         11   -1    0    0    0    0 -0.00000000000E+00 -0.00000000000E+00 -0.45593999997E+02  0.45594000000E+02  0.51100000000E-03 0. -1.
    9900012    2    1    2    0    0 -0.98983973641E+01 -0.32580187528E+02 -0.22219780188E+02  0.50528861773E+02  0.30000005847E+02 0.  0.
        -12    1    1    2    0    0  0.98983973641E+01  0.32580187528E+02  0.22219780188E+02  0.40659138227E+02  0.00000000000E+00 0.  1.
         11    1    3    3    0    0 -0.37706515251E+01 -0.19429236341E+01 -0.12209271153E+02  0.12925133173E+02  0.51100000000E-03 0. -1.
        -11    1    3    3    0    0  0.26552724682E+01 -0.55424962204E+01 -0.91249990644E+01  0.11001606447E+02  0.51100000000E-03 0.  1.
         12    1    3    3    0    0 -0.87830183072E+01 -0.25094767673E+02 -0.88550996990E+00  0.26602122154E+02  0.00000000000E+00 0. -1.
</event>
<event>
 7    1  0.5913457E-013  0.5052887E+02  0.7816164E-02  0.1300439E+00
        -11   -1    0    0    0    0  0.00000000000E+00  0.00000000000E+00  0.45593999997E+02  0.45594000000E+02  0.51100000000E-03 0. -1.
         11   -1    0    0    0    0 -0.00000000000E+00 -0.00000000000E+00 -0.45593999997E+02  0.45594000000E+02  0.51100000000E-03 0.  1.
    9900012    2    1    2    0    0  0.38303623362E+02  0.45808522729E+01 -0.12845739788E+02  0.50528870633E+02  0.30000032776E+02 0.  0.
        -12    1    1    2    0    0 -0.38303623362E+02 -0.45808522729E+01  0.12845739788E+02  0.40659129367E+02  0.00000000000E+00 0.  1.
         11    1    3    3    0    0 -0.40843253367E+00 -0.51194520408E+00 -0.31793541470E+01  0.32461050630E+01  0.51100000000E-03 0.  1.
        -11    1    3    3    0    0  0.41916623772E+01 -0.34421021632E+01 -0.10384554281E+02  0.11715676194E+02  0.51100000000E-03 0. -1.
         12    1    3    3    0    0  0.34520393518E+02  0.85348996401E+01  0.71816864031E+00  0.35567089376E+02  0.00000000000E+00 0. -1.
</event>
<event>
 7    1  0.5913457E-013  0.5052889E+02  0.7816164E-02  0.1300439E+00
        -11   -1    0    0    0    0  0.00000000000E+00  0.00000000000E+00  0.45593999997E+02  0.45594000000E+02  0.51100000000E-03 0.  1.
         11   -1    0    0    0    0 -0.00000000000E+00 -0.00000000000E+00 -0.45593999997E+02  0.45594000000E+02  0.51100000000E-03 0. -1.
    9900012    2    1    2    0    0  0.16508144556E+02  0.93765747574E+01 -0.35954477468E+02  0.50528887358E+02  0.30000083614E+02 0.  0.
        -12    1    1    2    0    0 -0.16508144556E+02 -0.93765747574E+01  0.35954477468E+02  0.40659112642E+02  0.00000000000E+00 0.  1.
         11    1    3    3    0    0  0.81405119039E+01  0.46002064202E+01 -0.23377928469E+02  0.25178510142E+02  0.51100000000E-03 0. -1.
        -11    1    3    3    0    0  0.63940536851E+01  0.11865134507E+02 -0.40201525917E+01  0.14065097459E+02  0.51100000000E-03 0.  1.
        -12    1    3    3    0    0  0.19735789667E+01 -0.70887661699E+01 -0.85563964065E+01  0.11285279758E+02  0.00000000000E+00 0.  1.
</event>
<event>
 7    1  0.5913457E-013  0.5052886E+02  0.7816164E-02  0.1300439E+00
        -11   -1    0    0    0    0  0.00000000000E+00  0.00000000000E+00  0.45593999997E+02  0.45594000000E+02  0.51100000000E-03 0.  1.
         11   -1    0    0    0    0 -0.00000000000E+00 -0.00000000000E+00 -0.45593999997E+02  0.45594000000E+02  0.51100000000E-03 0. -1.
    9900012    2    1    2    0    0  0.35693226527E+02  0.13971211716E+02 -0.13563353267E+02  0.50528859225E+02  0.29999998101E+02 0.  0.
        -12    1    1    2    0    0 -0.35693226527E+02 -0.13971211716E+02  0.13563353267E+02  0.40659140775E+02  0.00000000000E+00 0.  1.
         11    1    3    3    0    0  0.58438610076E+01  0.32610253975E+01  0.23813376898E+01  0.71032223373E+01  0.51100000000E-03 0.  1.
        -11    1    3    3    0    0  0.29901946953E+02  0.15238838812E+02 -0.83519114944E+01  0.34584723011E+02  0.51100000000E-03 0. -1.
         12    1    3    3    0    0 -0.52581433627E-01 -0.45286524929E+01 -0.75927794622E+01  0.88409138765E+01  0.00000000000E+00 0. -1.
</event>
<event>
 7    1  0.5913457E-013  0.5052887E+02  0.7816164E-02  0.1300439E+00
        -11   -1    0    0    0    0  0.00000000000E+00  0.00000000000E+00  0.45593999997E+02  0.45594000000E+02  0.51100000000E-03 0.  1.
         11   -1    0    0    0    0 -0.00000000000E+00 -0.00000000000E+00 -0.45593999997E+02  0.45594000000E+02  0.51100000000E-03 0. -1.
    9900012    2    1    2    0    0 -0.39394598277E+02 -0.33913549057E+01  0.94725503483E+01  0.50528869764E+02  0.30000030134E+02 0.  0.
        -12    1    1    2    0    0  0.39394598277E+02  0.33913549057E+01 -0.94725503483E+01  0.40659130236E+02  0.00000000000E+00 0.  1.
         11    1    3    3    0    0 -0.20987760631E+02 -0.11360178120E+02  0.19042744874E+01  0.23940885631E+02  0.51100000000E-03 0. -1.
        -11    1    3    3    0    0 -0.81454103180E+01  0.44154115615E+01 -0.45448723339E+01  0.10319856263E+02  0.51100000000E-03 0.  1.
        -12    1    3    3    0    0 -0.10261427328E+02  0.35534116532E+01  0.12113148195E+02  0.16268127869E+02  0.00000000000E+00 0.  1.
</event>
<event>
 7    1  0.5913457E-013  0.5052888E+02  0.7816164E-02  0.1300439E+00
        -11   -1    0    0    0    0  0.00000000000E+00  0.00000000000E+00  0.45593999997E+02  0.45594000000E+02  0.51100000000E-03 0.  1.
         11   -1    0    0    0    0 -0.00000000000E+00 -0.00000000000E+00 -0.45593999997E+02  0.45594000000E+02  0.51100000000E-03 0. -1.
    9900012    2    1    2    0    0 -0.30838141795E+02 -0.19978706489E+02 -0.17407605443E+02  0.50528875199E+02  0.30000046654E+02 0.  0.
        -12    1    1    2    0    0  0.30838141795E+02  0.19978706489E+02  0.17407605443E+02  0.40659124801E+02  0.00000000000E+00 0.  1.
         11    1    3    3    0    0 -0.54511166395E+01  0.45193365012E+01 -0.38691363983E+01  0.80690328887E+01  0.51100000000E-03 0. -1.
        -11    1    3    3    0    0  0.28609060753E+01 -0.18637472458E+01  0.83168359940E+00  0.35142616918E+01  0.51100000000E-03 0.  1.
         12    1    3    3    0    0 -0.28247931231E+02 -0.22634295744E+02 -0.14370152645E+02  0.38945580618E+02  0.00000000000E+00 0. -1.
</event>
<event>
 7    1  0.5913457E-013  0.5052885E+02  0.7816164E-02  0.1300439E+00
        -11   -1    0    0    0    0  0.00000000000E+00  0.00000000000E+00  0.45593999997E+02  0.45594000000E+02  0.51100000000E-03 0.  1.
         11   -1    0    0    0    0 -0.00000000000E+00 -0.00000000000E+00 -0.45593999997E+02  0.45594000000E+02  0.51100000000E-03 0. -1.
    9900012    2    1    2    0    0 -0.19702601077E+01  0.24627625485E+02 -0.32291872197E+02  0.50528845165E+02  0.29999955363E+02 0.  0.
        -12    1    1    2    0    0  0.19702601077E+01 -0.24627625485E+02  0.32291872197E+02  0.40659154835E+02  0.00000000000E+00 0.  1.
         11    1    3    3    0    0 -0.14668377958E+01 -0.49932218344E+01 -0.14096326607E+02  0.15026320291E+02  0.51100000000E-03 0. -1.
        -11    1    3    3    0    0  0.31383850328E+01  0.88108602738E+01 -0.52627046997E+01  0.10732044558E+02  0.51100000000E-03 0.  1.
        -12    1    3    3    0    0 -0.36418073447E+01  0.20809987046E+02 -0.12932840890E+02  0.24770480316E+02  0.00000000000E+00 0.  1.
</event>
<event>
 7    1  0.5913457E-013  0.5052886E+02  0.7816164E-02  0.1300439E+00
        -11   -1    0    0    0    0  0.00000000000E+00  0.00000000000E+00  0.45593999997E+02  0.45594000000E+02  0.51100000000E-03 0. -1.
         11   -1    0    0    0    0 -0.00000000000E+00 -0.00000000000E+00 -0.45593999997E+02  0.45594000000E+02  0.51100000000E-03 0.  1.
    9900012    2    1    2    0    0 -0.91691270420E+01  0.30923557585E+02 -0.24755322613E+02  0.50528864469E+02  0.30000014041E+02 0.  0.
        -12    1    1    2    0    0  0.91691270420E+01 -0.30923557585E+02  0.24755322613E+02  0.40659135531E+02  0.00000000000E+00 0.  1.
         11    1    3    3    0    0 -0.37346713533E+01  0.30371855295E+02 -0.22422867848E+02  0.37936557131E+02  0.51100000000E-03 0. -1.
        -11    1    3    3    0    0 -0.21548734978E+01  0.20237403742E+01 -0.64687400504E+01  0.71122150554E+01  0.51100000000E-03 0.  1.
        -12    1    3    3    0    0 -0.32795821909E+01 -0.14720380837E+01  0.41362852856E+01  0.54800922830E+01  0.00000000000E+00 0.  1.
</event>
<event>
 7    1  0.5913457E-013  0.5052885E+02  0.7816164E-02  0.1300439E+00
        -11   -1    0    0    0    0  0.00000000000E+00  0.00000000000E+00  0.45593999997E+02  0.45594000000E+02  0.51100000000E-03 0.  1.
         11   -1    0    0    0    0 -0.00000000000E+00 -0.00000000000E+00 -0.45593999997E+02  0.45594000000E+02  0.51100000000E-03 0. -1.
    9900012    2    1    2    0    0 -0.60570845883E+01 -0.21129071425E+01 -0.40149896229E+02  0.50528845834E+02  0.29999957396E+02 0.  0.
        -12    1    1    2    0    0  0.60570845883E+01  0.21129071425E+01  0.40149896229E+02  0.40659154166E+02  0.00000000000E+00 0.  1.
         11    1    3    3    0    0 -0.53599894230E+01 -0.54945137475E+01 -0.38330416209E+02  0.39091430966E+02  0.51100000000E-03 0. -1.
        -11    1    3    3    0    0  0.29053901864E+01  0.23651055252E+00 -0.49337614276E+01  0.57305524570E+01  0.51100000000E-03 0.  1.
        -12    1    3    3    0    0 -0.36024853517E+01  0.31450960525E+01  0.31142814078E+01  0.57068624108E+01  0.00000000000E+00 0.  1.
</event>
<event>
 7    1  0.5913457E-013  0.5052885E+02  0.7816164E-02  0.1300439E+00
        -11   -1    0    0    0    0  0.00000000000E+00  0.00000000000E+00  0.45593999997E+02  0.45594000000E+02  0.51100000000E-03 0.  1.
         11   -1    0    0    0    0 -0.00000000000E+00 -0.00000000000E+00 -0.45593999997E+02  0.45594000000E+02  0.51100000000E-03 0. -1.
    9900012    2    1    2    0    0  0.13547625364E+02 -0.37034539302E+02 -0.99030733047E+01  0.50528854470E+02  0.29999983648E+02 0.  0.
        -12    1    1    2    0    0 -0.13547625364E+02  0.37034539302E+02  0.99030733047E+01  0.40659145530E+02  0.00000000000E+00 0.  1.
         11    1    3    3    0    0 -0.17871047597E+01 -0.22095319273E+02  0.43795179215E+01  0.22595952174E+02  0.51100000000E-03 0. -1.
        -11    1    3    3    0    0 -0.27272644297E-01  0.67916508496E-01  0.13614062226E+01  0.13633721477E+01  0.51100000000E-03 0.  1.
         12    1    3    3    0    0  0.15362002768E+02 -0.15007136538E+02 -0.15643997449E+02  0.26569530148E+02  0.00000000000E+00 0. -1.
</event>
<event>
 7    1  0.5913457E-013  0.5052886E+02  0.7816164E-02  0.1300439E+00
        -11   -1    0    0    0    0  0.00000000000E+00  0.00000000000E+00  0.45593999997E+02  0.45594000000E+02  0.51100000000E-03 0. -1.
         11   -1    0    0    0    0 -0.00000000000E+00 -0.00000000000E+00 -0.45593999997E+02  0.45594000000E+02  0.51100000000E-03 0.  1.
    9900012    2    1    2    0    0 -0.10068640730E+02 -0.56806997029E+00  0.39388645390E+02  0.50528860617E+02  0.30000002333E+02 0.  0.
        -12    1    1    2    0    0  0.10068640730E+02  0.56806997029E+00 -0.39388645390E+02  0.40659139383E+02  0.00000000000E+00 0.  1.
         11    1    3    3    0    0 -0.87183864250E+01 -0.15971767502E+01  0.19426850781E+02  0.21353308103E+02  0.51100000000E-03 0. -1.
        -11    1    3    3    0    0 -0.36114712358E+01  0.10700118297E+02  0.95940784956E+01  0.14818285950E+02  0.51100000000E-03 0.  1.
        -12    1    3    3    0    0  0.22612169305E+01 -0.96710115174E+01  0.10367716114E+02  0.14357266564E+02  0.00000000000E+00 0.  1.
</event>
<event>
 7    1  0.5913457E-013  0.5052886E+02  0.7816164E-02  0.1300439E+00
        -11   -1    0    0    0    0  0.00000000000E+00  0.00000000000E+00  0.45593999997E+02  0.45594000000E+02  0.51100000000E-03 0.  1.
         11   -1    0    0    0    0 -0.00000000000E+00 -0.00000000000E+00 -0.45593999997E+02  0.45594000000E+02  0.51100000000E-03 0. -1.
    9900012    2    1    2    0    0 -0.17122740952E+02  0.35553352050E+02 -0.97947179791E+01  0.50528860806E+02  0.30000002906E+02 0.  0.
        -12    1    1    2    0    0  0.17122740952E+02 -0.35553352050E+02  0.97947179791E+01  0.40659139194E+02  0.00000000000E+00 0.  1.
         11    1    3    3    0    0 -0.33999276143E+01  0.23783275990E+01 -0.82503232067E+01  0.92349219394E+01  0.51100000000E-03 0. -1.
        -11    1    3    3    0    0 -0.17539368823E+02  0.24409879367E+02 -0.61529134515E+01  0.30681101897E+02  0.51100000000E-03 0.  1.
         12    1    3    3    0    0  0.38165554859E+01  0.87651450840E+01  0.46085186791E+01  0.10612836969E+02  0.00000000000E+00 0. -1.
</event>
<event>
 7    1  0.5913457E-013  0.5052886E+02  0.7816164E-02  0.1300439E+00
        -11   -1    0    0    0    0  0.00000000000E+00  0.00000000000E+00  0.45593999997E+02  0.45594000000E+02  0.51100000000E-03 0.  1.
         11   -1    0    0    0    0 -0.00000000000E+00 -0.00000000000E+00 -0.45593999997E+02  0.45594000000E+02  0.51100000000E-03 0. -1.
    9900012    2    1    2    0    0  0.20940714445E+02 -0.13028468111E+02 -0.32325082005E+02  0.50528862904E+02  0.30000009282E+02 0.  0.
        -12    1    1    2    0    0 -0.20940714445E+02  0.13028468111E+02  0.32325082005E+02  0.40659137096E+02  0.00000000000E+00 0.  1.
         11    1    3    3    0    0  0.21413661067E+00  0.33322155830E+01 -0.18238187175E+02  0.18541331853E+02  0.51100000000E-03 0. -1.
        -11    1    3    3    0    0  0.10843712272E+02 -0.38410128222E+01 -0.13640188740E+01  0.11584473362E+02  0.51100000000E-03 0.  1.
        -12    1    3    3    0    0  0.98828655622E+01 -0.12519670871E+02 -0.12722875956E+02  0.20403057689E+02  0.00000000000E+00 0.  1.
</event>
<event>
 7    1  0.5913457E-013  0.5052886E+02  0.7816164E-02  0.1300439E+00
        -11   -1    0    0    0    0  0.00000000000E+00  0.00000000000E+00  0.45593999997E+02  0.45594000000E+02  0.51100000000E-03 0.  1.
         11   -1    0    0    0    0 -0.00000000000E+00 -0.00000000000E+00 -0.45593999997E+02  0.45594000000E+02  0.51100000000E-03 0. -1.
    9900012    2    1    2    0    0  0.17279324131E+02 -0.32597273071E+02  0.17088258575E+02  0.50528857914E+02  0.29999994115E+02 0.  0.
        -12    1    1    2    0    0 -0.17279324131E+02  0.32597273071E+02 -0.17088258575E+02  0.40659142086E+02  0.00000000000E+00 0.  1.
         11    1    3    3    0    0  0.13662196932E+02 -0.11029543451E+02  0.14735083377E+02  0.22922241080E+02  0.51100000000E-03 0. -1.
        -11    1    3    3    0    0  0.45458208736E+01 -0.13818935573E+02  0.92102349185E+01  0.17217894625E+02  0.51100000000E-03 0.  1.
         12    1    3    3    0    0 -0.92869367445E+00 -0.77487940462E+01 -0.68570597212E+01  0.10388722209E+02  0.00000000000E+00 0. -1.
</event>
<event>
 7    1  0.5913457E-013  0.5052890E+02  0.7816164E-02  0.1300439E+00
        -11   -1    0    0    0    0  0.00000000000E+00  0.00000000000E+00  0.45593999997E+02  0.45594000000E+02  0.51100000000E-03 0. -1.
         11   -1    0    0    0    0 -0.00000000000E+00 -0.00000000000E+00 -0.45593999997E+02  0.45594000000E+02  0.51100000000E-03 0.  1.
    9900012    2    1    2    0    0  0.44603424996E+01 -0.40358857832E+02 -0.21047442026E+01  0.50528904968E+02  0.30000137139E+02 0.  0.
        -12    1    1    2    0    0 -0.44603424996E+01  0.40358857832E+02  0.21047442026E+01  0.40659095032E+02  0.00000000000E+00 0.  1.
         11    1    3    3    0    0 -0.36707463390E+01 -0.26265984582E+01 -0.30408210014E+01  0.54424250816E+01  0.51100000000E-03 0. -1.
        -11    1    3    3    0    0  0.17913162680E+01  0.92970501482E+00  0.52948502124E+01  0.56664454836E+01  0.51100000000E-03 0.  1.
        -12    1    3    3    0    0  0.63397725706E+01 -0.38661964388E+02 -0.43587734136E+01  0.39420034402E+02  0.00000000000E+00 0.  1.
</event>
<event>
 7    1  0.5913457E-013  0.5052886E+02  0.7816164E-02  0.1300439E+00
        -11   -1    0    0    0    0  0.00000000000E+00  0.00000000000E+00  0.45593999997E+02  0.45594000000E+02  0.51100000000E-03 0. -1.
         11   -1    0    0    0    0 -0.00000000000E+00 -0.00000000000E+00 -0.45593999997E+02  0.45594000000E+02  0.51100000000E-03 0.  1.
    9900012    2    1    2    0    0 -0.25075890334E+02  0.27787138302E+02 -0.15882073782E+02  0.50528860822E+02  0.30000002953E+02 0.  0.
        -12    1    1    2    0    0  0.25075890334E+02 -0.27787138302E+02  0.15882073782E+02  0.40659139178E+02  0.00000000000E+00 0.  1.
         11    1    3    3    0    0 -0.22788339254E+02  0.24951737794E+02 -0.88972570842E+01  0.34943651910E+02  0.51100000000E-03 0. -1.
        -11    1    3    3    0    0  0.52778967861E+00  0.70231537165E+01 -0.93072877309E-01  0.70435724523E+01  0.51100000000E-03 0.  1.
        -12    1    3    3    0    0 -0.28153407588E+01 -0.41877532080E+01 -0.68917438206E+01  0.85416364596E+01  0.00000000000E+00 0.  1.
</event>
<event>
 7    1  0.5913457E-013  0.5052886E+02  0.7816164E-02  0.1300439E+00
        -11   -1    0    0    0    0  0.00000000000E+00  0.00000000000E+00  0.45593999997E+02  0.45594000000E+02  0.51100000000E-03 0.  1.
         11   -1    0    0    0    0 -0.00000000000E+00 -0.00000000000E+00 -0.45593999997E+02  0.45594000000E+02  0.51100000000E-03 0. -1.
    9900012    2    1    2    0    0 -0.39736372913E+01 -0.37592486181E+02  0.14972659555E+02  0.50528863945E+02  0.30000012447E+02 0.  0.
        -12    1    1    2    0    0  0.39736372913E+01  0.37592486181E+02 -0.14972659555E+02  0.40659136055E+02  0.00000000000E+00 0.  1.
         11    1    3    3    0    0 -0.10116006127E+02 -0.93687523345E+01  0.12803407957E+01  0.13847251463E+02  0.51100000000E-03 0. -1.
        -11    1    3    3    0    0 -0.10217284661E+01 -0.20677302959E+02  0.15827180360E+02  0.26059440231E+02  0.51100000000E-03 0.  1.
         12    1    3    3    0    0  0.71640973015E+01 -0.75464308873E+01 -0.21348616009E+01  0.10622172251E+02  0.00000000000E+00 0. -1.
</event>
<event>
 7    1  0.5913457E-013  0.5052888E+02  0.7816164E-02  0.1300439E+00
        -11   -1    0    0    0    0  0.00000000000E+00  0.00000000000E+00  0.45593999997E+02  0.45594000000E+02  0.51100000000E-03 0.  1.
         11   -1    0    0    0    0 -0.00000000000E+00 -0.00000000000E+00 -0.45593999997E+02  0.45594000000E+02  0.51100000000E-03 0. -1.
    9900012    2    1    2    0    0 -0.16070053841E+02 -0.15362931738E+02 -0.34042590691E+02  0.50528877002E+02  0.30000052135E+02 0.  0.
        -12    1    1    2    0    0  0.16070053841E+02  0.15362931738E+02  0.34042590691E+02  0.40659122998E+02  0.00000000000E+00 0.  1.
         11    1    3    3    0    0  0.15485803315E+01  0.23706128092E+01 -0.10564819832E+01  0.30222608386E+01  0.51100000000E-03 0.  1.
        -11    1    3    3    0    0 -0.42114835895E+01  0.50604506125E+01 -0.12228750177E+02  0.13888379516E+02  0.51100000000E-03 0. -1.
         12    1    3    3    0    0 -0.13407150583E+02 -0.22793995160E+02 -0.20757358531E+02  0.33618236647E+02  0.00000000000E+00 0. -1.
</event>
<event>
 7    1  0.5913457E-013  0.5052886E+02  0.7816164E-02  0.1300439E+00
        -11   -1    0    0    0    0  0.00000000000E+00  0.00000000000E+00  0.45593999997E+02  0.45594000000E+02  0.51100000000E-03 0. -1.
         11   -1    0    0    0    0 -0.00000000000E+00 -0.00000000000E+00 -0.45593999997E+02  0.45594000000E+02  0.51100000000E-03 0.  1.
    9900012    2    1    2    0    0  0.52925168975E+01  0.65159278875E+01  0.39783132412E+02  0.50528859873E+02  0.30000000071E+02 0.  0.
        -12    1    1    2    0    0 -0.52925168975E+01 -0.65159278875E+01 -0.39783132412E+02  0.40659140127E+02  0.00000000000E+00 0.  1.
         11    1    3    3    0    0 -0.23487256560E+01  0.43283761443E+01 -0.23779278798E+01  0.54686281201E+01  0.51100000000E-03 0. -1.
        -11    1    3    3    0    0  0.26624918629E+01  0.17715621969E+01  0.66745055742E+00  0.32669230240E+01  0.51100000000E-03 0.  1.
         12    1    3    3    0    0  0.49787506906E+01  0.41598954625E+00  0.41493609734E+02  0.41793308729E+02  0.00000000000E+00 0. -1.
</event>
<event>
 7    1  0.5913457E-013  0.5052886E+02  0.7816164E-02  0.1300439E+00
        -11   -1    0    0    0    0  0.00000000000E+00  0.00000000000E+00  0.45593999997E+02  0.45594000000E+02  0.51100000000E-03 0.  1.
         11   -1    0    0    0    0 -0.00000000000E+00 -0.00000000000E+00 -0.45593999997E+02  0.45594000000E+02  0.51100000000E-03 0. -1.
    9900012    2    1    2    0    0 -0.38122254937E+00 -0.18806419993E+01 -0.40613835868E+02  0.50528858237E+02  0.29999995097E+02 0.  0.
        -12    1    1    2    0    0  0.38122254937E+00  0.18806419993E+01  0.40613835868E+02  0.40659141763E+02  0.00000000000E+00 0.  1.
         11    1    3    3    0    0 -0.52105883667E+01 -0.33789523649E+01 -0.31718644639E+02  0.32320890585E+02  0.51100000000E-03 0. -1.
        -11    1    3    3    0    0 -0.30535952950E+01 -0.27120422175E+01  0.16327444237E+01  0.43983487617E+01  0.51100000000E-03 0.  1.
        -12    1    3    3    0    0  0.78829611124E+01  0.42103525832E+01 -0.10527935653E+02  0.13809618890E+02  0.00000000000E+00 0.  1.
</event>
<event>
 7    1  0.5913457E-013  0.5052886E+02  0.7816164E-02  0.1300439E+00
        -11   -1    0    0    0    0  0.00000000000E+00  0.00000000000E+00  0.45593999997E+02  0.45594000000E+02  0.51100000000E-03 0.  1.
         11   -1    0    0    0    0 -0.00000000000E+00 -0.00000000000E+00 -0.45593999997E+02  0.45594000000E+02  0.51100000000E-03 0. -1.
    9900012    2    1    2    0    0 -0.26291948744E+02 -0.31001333064E+02  0.90342145941E+00  0.50528863378E+02  0.30000010724E+02 0.  0.
        -12    1    1    2    0    0  0.26291948744E+02  0.31001333064E+02 -0.90342145941E+00  0.40659136622E+02  0.00000000000E+00 0.  1.
         11    1    3    3    0    0 -0.60726547844E+01 -0.22787391790E+02  0.49478987409E+01  0.24096142076E+02  0.51100000000E-03 0. -1.
        -11    1    3    3    0    0 -0.87721474029E+01 -0.11260188582E+02 -0.20437560766E+01  0.14419409007E+02  0.51100000000E-03 0.  1.
        -12    1    3    3    0    0 -0.11447146557E+02  0.30462473078E+01 -0.20007212049E+01  0.12013312295E+02  0.00000000000E+00 0.  1.
</event>
<event>
 7    1  0.5913457E-013  0.5052885E+02  0.7816164E-02  0.1300439E+00
        -11   -1    0    0    0    0  0.00000000000E+00  0.00000000000E+00  0.45593999997E+02  0.45594000000E+02  0.51100000000E-03 0.  1.
         11   -1    0    0    0    0 -0.00000000000E+00 -0.00000000000E+00 -0.45593999997E+02  0.45594000000E+02  0.51100000000E-03 0. -1.
    9900012    2    1    2    0    0  0.12394283089E+02 -0.28604516026E+02 -0.26102304130E+02  0.50528845172E+02  0.29999955386E+02 0.  0.
        -12    1    1    2    0    0 -0.12394283089E+02  0.28604516026E+02  0.26102304130E+02  0.40659154828E+02  0.00000000000E+00 0.  1.
         11    1    3    3    0    0 -0.21573796782E+01 -0.16108534634E+02 -0.10743126841E+02  0.19482144382E+02  0.51100000000E-03 0. -1.
        -11    1    3    3    0    0  0.10585926089E+02 -0.25942456361E+01 -0.17061183206E+02  0.20245392420E+02  0.51100000000E-03 0.  1.
         12    1    3    3    0    0  0.39657366784E+01 -0.99017357561E+01  0.17020059166E+01  0.10801308371E+02  0.00000000000E+00 0. -1.
</event>
<event>
 7    1  0.5913457E-013  0.5052885E+02  0.7816164E-02  0.1300439E+00
        -11   -1    0    0    0    0  0.00000000000E+00  0.00000000000E+00  0.45593999997E+02  0.45594000000E+02  0.51100000000E-03 0.  1.
         11   -1    0    0    0    0 -0.00000000000E+00 -0.00000000000E+00 -0.45593999997E+02  0.45594000000E+02  0.51100000000E-03 0. -1.
    9900012    2    1    2    0    0  0.72542601977E+01 -0.36356905165E+02 -0.16694840036E+02  0.50528849394E+02  0.29999968218E+02 0.  0.
        -12    1    1    2    0    0 -0.72542601977E+01  0.36356905165E+02  0.16694840036E+02  0.40659150606E+02  0.00000000000E+00 0.  1.
         11    1    3    3    0    0  0.56188438490E+00 -0.54548339429E+01 -0.65677430615E+01  0.85560608103E+01  0.51100000000E-03 0. -1.
        -11    1    3    3    0    0  0.13601399134E+02 -0.22637763849E+02 -0.14751555945E+02  0.30250203529E+02  0.51100000000E-03 0.  1.
        -12    1    3    3    0    0 -0.69090233213E+01 -0.82643073724E+01  0.46244589698E+01  0.11722585055E+02  0.00000000000E+00 0.  1.
</event>
<event>
 7    1  0.5913457E-013  0.5052886E+02  0.7816164E-02  0.1300439E+00
        -11   -1    0    0    0    0  0.00000000000E+00  0.00000000000E+00  0.45593999997E+02  0.45594000000E+02  0.51100000000E-03 0.  1.
         11   -1    0    0    0    0 -0.00000000000E+00 -0.00000000000E+00 -0.45593999997E+02  0.45594000000E+02  0.51100000000E-03 0. -1.
    9900012    2    1    2    0    0  0.22691055421E+02 -0.26606688012E+02 -0.20745256244E+02  0.50528862040E+02  0.30000006656E+02 0.  0.
        -12    1    1    2    0    0 -0.22691055421E+02  0.26606688012E+02  0.20745256244E+02  0.40659137960E+02  0.00000000000E+00 0.  1.
         11    1    3    3    0    0  0.73929508972E+01 -0.18631129999E+02 -0.21246524718E+02  0.29209408430E+02  0.51100000000E-03 0. -1.
        -11    1    3    3    0    0  0.72882361143E+01 -0.84375380429E+01 -0.43222638967E+01  0.11957942939E+02  0.51100000000E-03 0.  1.
        -12    1    3    3    0    0  0.80098684097E+01  0.46198002986E+00  0.48235323713E+01  0.93615106701E+01  0.00000000000E+00 0.  1.
</event>
<event>
 7    1  0.5913457E-013  0.5052886E+02  0.7816164E-02  0.1300439E+00
        -11   -1    0    0    0    0  0.00000000000E+00  0.00000000000E+00  0.45593999997E+02  0.45594000000E+02  0.51100000000E-03 0. -1.
         11   -1    0    0    0    0 -0.00000000000E+00 -0.00000000000E+00 -0.45593999997E+02  0.45594000000E+02  0.51100000000E-03 0.  1.
    9900012    2    1    2    0    0  0.32421714335E+02  0.14616611706E+02  0.19706663054E+02  0.50528862442E+02  0.30000007880E+02 0.  0.
        -12    1    1    2    0    0 -0.32421714335E+02 -0.14616611706E+02 -0.19706663054E+02  0.40659137558E+02  0.00000000000E+00 0.  1.
         11    1    3    3    0    0  0.20944713230E+02  0.16197727047E+02  0.82209122655E+01  0.27724191106E+02  0.51100000000E-03 0. -1.
        -11    1    3    3    0    0  0.96079508528E+01 -0.32134818218E+00 -0.14075645589E+01  0.97158233049E+01  0.51100000000E-03 0.  1.
        -12    1    3    3    0    0  0.18690502532E+01 -0.12597671584E+01  0.12893315347E+02  0.13088848031E+02  0.00000000000E+00 0.  1.
</event>
<event>
 7    1  0.5913457E-013  0.5052885E+02  0.7816164E-02  0.1300439E+00
        -11   -1    0    0    0    0  0.00000000000E+00  0.00000000000E+00  0.45593999997E+02  0.45594000000E+02  0.51100000000E-03 0. -1.
         11   -1    0    0    0    0 -0.00000000000E+00 -0.00000000000E+00 -0.45593999997E+02  0.45594000000E+02  0.51100000000E-03 0.  1.
    9900012    2    1    2    0    0  0.23147298033E+02  0.33426343417E+02  0.22016214906E+00  0.50528852052E+02  0.29999976298E+02 0.  0.
        -12    1    1    2    0    0 -0.23147298033E+02 -0.33426343417E+02 -0.22016214906E+00  0.40659147948E+02  0.00000000000E+00 0.  1.
         11    1    3    3    0    0 -0.12447040011E+00  0.17295510561E+02  0.88599181452E+01  0.19433175969E+02  0.51100000000E-03 0.  1.
        -11    1    3    3    0    0  0.93922070424E+01  0.55779173399E+01  0.13404445878E+01  0.11005612520E+02  0.51100000000E-03 0. -1.
        -12    1    3    3    0    0  0.13879561391E+02  0.10552915516E+02 -0.99802005839E+01  0.20090063563E+02  0.00000000000E+00 0.  1.
</event>
<event>
 7    1  0.5913457E-013  0.5052886E+02  0.7816164E-02  0.1300439E+00
        -11   -1    0    0    0    0  0.00000000000E+00  0.00000000000E+00  0.45593999997E+02  0.45594000000E+02  0.51100000000E-03 0.  1.
         11   -1    0    0    0    0 -0.00000000000E+00 -0.00000000000E+00 -0.45593999997E+02  0.45594000000E+02  0.51100000000E-03 0. -1.
    9900012    2    1    2    0    0  0.33102324669E+02 -0.15110575628E+02 -0.18140351402E+02  0.50528859044E+02  0.29999997550E+02 0.  0.
        -12    1    1    2    0    0 -0.33102324669E+02  0.15110575628E+02  0.18140351402E+02  0.40659140956E+02  0.00000000000E+00 0.  1.
         11    1    3    3    0    0  0.10683360753E+00 -0.21092236260E+01  0.34043535194E+01  0.40062277606E+01  0.51100000000E-03 0.  1.
        -11    1    3    3    0    0  0.11081488643E+02 -0.75981958788E+01  0.23648925123E+01  0.13642752215E+02  0.51100000000E-03 0. -1.
        -12    1    3    3    0    0  0.21914002418E+02 -0.54031561235E+01 -0.23909597434E+02  0.32879879068E+02  0.00000000000E+00 0.  1.
</event>
<event>
 7    1  0.5913457E-013  0.5052890E+02  0.7816164E-02  0.1300439E+00
        -11   -1    0    0    0    0  0.00000000000E+00  0.00000000000E+00  0.45593999997E+02  0.45594000000E+02  0.51100000000E-03 0.  1.
         11   -1    0    0    0    0 -0.00000000000E+00 -0.00000000000E+00 -0.45593999997E+02  0.45594000000E+02  0.51100000000E-03 0. -1.
    9900012    2    1    2    0    0 -0.13800999617E+02 -0.18537443172E+02 -0.33452327306E+02  0.50528897797E+02  0.30000115343E+02 0.  0.
        -12    1    1    2    0    0  0.13800999617E+02  0.18537443172E+02  0.33452327306E+02  0.40659102203E+02  0.00000000000E+00 0.  1.
         11    1    3    3    0    0 -0.13247838988E+02 -0.67780822507E+01 -0.12437857136E+02  0.19394533438E+02  0.51100000000E-03 0. -1.
        -11    1    3    3    0    0  0.22426017376E+00 -0.16959078808E+02 -0.12279165426E+02  0.20938924291E+02  0.51100000000E-03 0.  1.
         12    1    3    3    0    0 -0.77742080205E+00  0.51997178871E+01 -0.87353047441E+01  0.10195440068E+02  0.00000000000E+00 0. -1.
</event>
<event>
 7    1  0.5913457E-013  0.5052885E+02  0.7816164E-02  0.1300439E+00
        -11   -1    0    0    0    0  0.00000000000E+00  0.00000000000E+00  0.45593999997E+02  0.45594000000E+02  0.51100000000E-03 0.  1.
         11   -1    0    0    0    0 -0.00000000000E+00 -0.00000000000E+00 -0.45593999997E+02  0.45594000000E+02  0.51100000000E-03 0. -1.
    9900012    2    1    2    0    0 -0.29905863279E+02 -0.62882130173E+01 -0.26819106288E+02  0.50528846744E+02  0.29999960162E+02 0.  0.
        -12    1    1    2    0    0  0.29905863279E+02  0.62882130173E+01  0.26819106288E+02  0.40659153256E+02  0.00000000000E+00 0.  1.
         11    1    3    3    0    0  0.24848598208E+01 -0.65042564052E+01 -0.98278725933E+00  0.70317672581E+01  0.51100000000E-03 0. -1.
        -11    1    3    3    0    0 -0.92362421116E+00  0.29206196450E+01 -0.72525526018E+00  0.31478717013E+01  0.51100000000E-03 0.  1.
        -12    1    3    3    0    0 -0.31467098889E+02 -0.27045762571E+01 -0.25111063768E+02  0.40349207784E+02  0.00000000000E+00 0.  1.
</event>
<event>
 7    1  0.5913457E-013  0.5052885E+02  0.7816164E-02  0.1300439E+00
        -11   -1    0    0    0    0  0.00000000000E+00  0.00000000000E+00  0.45593999997E+02  0.45594000000E+02  0.51100000000E-03 0. -1.
         11   -1    0    0    0    0 -0.00000000000E+00 -0.00000000000E+00 -0.45593999997E+02  0.45594000000E+02  0.51100000000E-03 0.  1.
    9900012    2    1    2    0    0  0.71174815661E+01 -0.39161977366E+02 -0.82974220504E+01  0.50528853086E+02  0.29999979441E+02 0.  0.
        -12    1    1    2    0    0 -0.71174815661E+01  0.39161977366E+02  0.82974220504E+01  0.40659146914E+02  0.00000000000E+00 0.  1.
         11    1    3    3    0    0 -0.31654902373E+01 -0.30384873040E+01 -0.29617793422E+00  0.43977784357E+01  0.51100000000E-03 0. -1.
        -11    1    3    3    0    0 -0.58540628167E+01 -0.12278030573E+02 -0.10567004744E+02  0.17224449940E+02  0.51100000000E-03 0.  1.
         12    1    3    3    0    0  0.16137034620E+02 -0.23845459489E+02  0.25657606277E+01  0.28906624711E+02  0.00000000000E+00 0. -1.
</event>
<event>
 7    1  0.5913457E-013  0.5052886E+02  0.7816164E-02  0.1300439E+00
        -11   -1    0    0    0    0  0.00000000000E+00  0.00000000000E+00  0.45593999997E+02  0.45594000000E+02  0.51100000000E-03 0. -1.
         11   -1    0    0    0    0 -0.00000000000E+00 -0.00000000000E+00 -0.45593999997E+02  0.45594000000E+02  0.51100000000E-03 0.  1.
    9900012    2    1    2    0    0  0.29583555192E+02  0.18669022178E+02  0.20723086923E+02  0.50528862546E+02  0.30000008195E+02 0.  0.
        -12    1    1    2    0    0 -0.29583555192E+02 -0.18669022178E+02 -0.20723086923E+02  0.40659137454E+02  0.00000000000E+00 0.  1.
         11    1    3    3    0    0  0.11038670543E+02 -0.18756439605E+01  0.62925893189E+01  0.12843946754E+02  0.51100000000E-03 0. -1.
        -11    1    3    3    0    0  0.28170627365E+01 -0.33293256147E+01  0.68286101660E+01  0.81024791620E+01  0.51100000000E-03 0.  1.
        -12    1    3    3    0    0  0.15727821913E+02  0.23873991753E+02  0.76018874381E+01  0.29582436630E+02  0.00000000000E+00 0.  1.
</event>
<event>
 7    1  0.5913457E-013  0.5052885E+02  0.7816164E-02  0.1300439E+00
        -11   -1    0    0    0    0  0.00000000000E+00  0.00000000000E+00  0.45593999997E+02  0.45594000000E+02  0.51100000000E-03 0.  1.
         11   -1    0    0    0    0 -0.00000000000E+00 -0.00000000000E+00 -0.45593999997E+02  0.45594000000E+02  0.51100000000E-03 0. -1.
    9900012    2    1    2    0    0  0.20351674625E+02 -0.13063710094E+02 -0.32685088232E+02  0.50528853745E+02  0.29999981443E+02 0.  0.
        -12    1    1    2    0    0 -0.20351674625E+02  0.13063710094E+02  0.32685088232E+02  0.40659146255E+02  0.00000000000E+00 0.  1.
         11    1    3    3    0    0  0.85684855695E+01 -0.44144740617E+01 -0.11978663102E+02  0.15375138899E+02  0.51100000000E-03 0. -1.
        -11    1    3    3    0    0  0.45806106840E+01  0.75066787164E+01 -0.13372554820E+02  0.16004919315E+02  0.51100000000E-03 0.  1.
        -12    1    3    3    0    0  0.72025783715E+01 -0.16155914749E+02 -0.73338703101E+01  0.19148795531E+02  0.00000000000E+00 0.  1.
</event>
<event>
 7    1  0.5913457E-013  0.5052886E+02  0.7816164E-02  0.1300439E+00
        -11   -1    0    0    0    0  0.00000000000E+00  0.00000000000E+00  0.45593999997E+02  0.45594000000E+02  0.51100000000E-03 0. -1.
         11   -1    0    0    0    0 -0.00000000000E+00 -0.00000000000E+00 -0.45593999997E+02  0.45594000000E+02  0.51100000000E-03 0.  1.
    9900012    2    1    2    0    0 -0.50754392676E+01 -0.18803817788E+02  0.35690637899E+02  0.50528864732E+02  0.30000014838E+02 0.  0.
        -12    1    1    2    0    0  0.50754392676E+01  0.18803817788E+02 -0.35690637899E+02  0.40659135268E+02  0.00000000000E+00 0.  1.
         11    1    3    3    0    0  0.99941803338E+00  0.17575532422E+01  0.13533347160E+01  0.24329703901E+01  0.51100000000E-03 0. -1.
        -11    1    3    3    0    0  0.81477477319E+01 -0.27679501313E+01  0.25228332863E+01  0.89672754549E+01  0.51100000000E-03 0.  1.
         12    1    3    3    0    0 -0.14222605033E+02 -0.17793420899E+02  0.31814469896E+02  0.39128618887E+02  0.00000000000E+00 0. -1.
</event>
<event>
 7    1  0.5913457E-013  0.5052886E+02  0.7816164E-02  0.1300439E+00
        -11   -1    0    0    0    0  0.00000000000E+00  0.00000000000E+00  0.45593999997E+02  0.45594000000E+02  0.51100000000E-03 0.  1.
         11   -1    0    0    0    0 -0.00000000000E+00 -0.00000000000E+00 -0.45593999997E+02  0.45594000000E+02  0.51100000000E-03 0. -1.
    9900012    2    1    2    0    0  0.58473652738E+01 -0.99989628949E+01 -0.38974286910E+02  0.50528856136E+02  0.29999988711E+02 0.  0.
        -12    1    1    2    0    0 -0.58473652738E+01  0.99989628949E+01  0.38974286910E+02  0.40659143864E+02  0.00000000000E+00 0.  1.
         11    1    3    3    0    0  0.57431328090E+00  0.22094093099E+01  0.16123884413E+01  0.27948384550E+01  0.51100000000E-03 0. -1.
        -11    1    3    3    0    0 -0.36342762009E+01 -0.42770388398E+01 -0.33273827688E+02  0.33743868095E+02  0.51100000000E-03 0.  1.
         12    1    3    3    0    0  0.89073281938E+01 -0.79313333650E+01 -0.73128476630E+01  0.13990149586E+02  0.00000000000E+00 0. -1.
</event>
<event>
 7    1  0.5913457E-013  0.5052886E+02  0.7816164E-02  0.1300439E+00
        -11   -1    0    0    0    0  0.00000000000E+00  0.00000000000E+00  0.45593999997E+02  0.45594000000E+02  0.51100000000E-03 0.  1.
         11   -1    0    0    0    0 -0.00000000000E+00 -0.00000000000E+00 -0.45593999997E+02  0.45594000000E+02  0.51100000000E-03 0. -1.
    9900012    2    1    2    0    0  0.32003370166E+02 -0.13711690907E+02 -0.20998559430E+02  0.50528859974E+02  0.30000000376E+02 0.  0.
        -12    1    1    2    0    0 -0.32003370166E+02  0.13711690907E+02  0.20998559430E+02  0.40659140026E+02  0.00000000000E+00 0.  1.
         11    1    3    3    0    0  0.19377571820E+02  0.13231466377E+01 -0.66224148684E+01  0.20520657533E+02  0.51100000000E-03 0. -1.
        -11    1    3    3    0    0  0.12451022458E+02 -0.12921184040E+02 -0.27059073824E+01  0.18146814934E+02  0.51100000000E-03 0.  1.
        -12    1    3    3    0    0  0.17477588880E+00 -0.21136535047E+01 -0.11670237179E+02  0.11861387506E+02  0.00000000000E+00 0.  1.
</event>
<event>
 7    1  0.5913457E-013  0.5052887E+02  0.7816164E-02  0.1300439E+00
        -11   -1    0    0    0    0  0.00000000000E+00  0.00000000000E+00  0.45593999997E+02  0.45594000000E+02  0.51100000000E-03 0. -1.
         11   -1    0    0    0    0 -0.00000000000E+00 -0.00000000000E+00 -0.45593999997E+02  0.45594000000E+02  0.51100000000E-03 0.  1.
    9900012    2    1    2    0    0  0.11417407461E+02 -0.11894081199E+01  0.39005040413E+02  0.50528867416E+02  0.30000022999E+02 0.  0.
        -12    1    1    2    0    0 -0.11417407461E+02  0.11894081199E+01 -0.39005040413E+02  0.40659132584E+02  0.00000000000E+00 0.  1.
         11    1    3    3    0    0  0.64133558131E+01 -0.55399022994E+01  0.14190316834E+02  0.16528361758E+02  0.51100000000E-03 0. -1.
        -11    1    3    3    0    0  0.81042769453E+01 -0.43907644718E+01  0.22682596957E+02  0.24483837984E+02  0.51100000000E-03 0.  1.
        -12    1    3    3    0    0 -0.31002252975E+01  0.87412586513E+01  0.21321266226E+01  0.95166676751E+01  0.00000000000E+00 0.  1.
</event>
<event>
 7    1  0.5913457E-013  0.5052886E+02  0.7816164E-02  0.1300439E+00
        -11   -1    0    0    0    0  0.00000000000E+00  0.00000000000E+00  0.45593999997E+02  0.45594000000E+02  0.51100000000E-03 0.  1.
         11   -1    0    0    0    0 -0.00000000000E+00 -0.00000000000E+00 -0.45593999997E+02  0.45594000000E+02  0.51100000000E-03 0. -1.
    9900012    2    1    2    0    0  0.93100430866E+01  0.10089104054E+02 -0.38271383899E+02  0.50528858981E+02  0.29999997358E+02 0.  0.
        -12    1    1    2    0    0 -0.93100430866E+01 -0.10089104054E+02  0.38271383899E+02  0.40659141019E+02  0.00000000000E+00 0.  1.
         11    1    3    3    0    0  0.25892739988E+01  0.71804857417E+01 -0.90863544663E+01  0.11866994273E+02  0.51100000000E-03 0. -1.
        -11    1    3    3    0    0  0.85023328739E+01  0.83523278570E+01 -0.30533706004E+02  0.32777404527E+02  0.51100000000E-03 0.  1.
        -12    1    3    3    0    0 -0.17815637861E+01 -0.54437095445E+01  0.13486765713E+01  0.58844601810E+01  0.00000000000E+00 0.  1.
</event>
<event>
 7    1  0.5913457E-013  0.5052888E+02  0.7816164E-02  0.1300439E+00
        -11   -1    0    0    0    0  0.00000000000E+00  0.00000000000E+00  0.45593999997E+02  0.45594000000E+02  0.51100000000E-03 0. -1.
         11   -1    0    0    0    0 -0.00000000000E+00 -0.00000000000E+00 -0.45593999997E+02  0.45594000000E+02  0.51100000000E-03 0.  1.
    9900012    2    1    2    0    0 -0.46421796848E+01  0.15128830528E+02  0.37453077871E+02  0.50528875718E+02  0.30000048233E+02 0.  0.
        -12    1    1    2    0    0  0.46421796848E+01 -0.15128830528E+02 -0.37453077871E+02  0.40659124282E+02  0.00000000000E+00 0.  1.
         11    1    3    3    0    0 -0.63590221357E-01 -0.27694729416E+01 -0.13062499709E+00  0.27732809525E+01  0.51100000000E-03 0.  1.
        -11    1    3    3    0    0 -0.13343283989E+02  0.73088263530E+01  0.15324763726E+02  0.21594225010E+02  0.51100000000E-03 0. -1.
         12    1    3    3    0    0  0.87646945261E+01  0.10589477116E+02  0.22258939142E+02  0.26161369755E+02  0.00000000000E+00 0. -1.
</event>
<event>
 7    1  0.5913457E-013  0.5052886E+02  0.7816164E-02  0.1300439E+00
        -11   -1    0    0    0    0  0.00000000000E+00  0.00000000000E+00  0.45593999997E+02  0.45594000000E+02  0.51100000000E-03 0. -1.
         11   -1    0    0    0    0 -0.00000000000E+00 -0.00000000000E+00 -0.45593999997E+02  0.45594000000E+02  0.51100000000E-03 0.  1.
    9900012    2    1    2    0    0 -0.28028917166E+02  0.21603621569E+02  0.20020719328E+02  0.50528857550E+02  0.29999993008E+02 0.  0.
        -12    1    1    2    0    0  0.28028917166E+02 -0.21603621569E+02 -0.20020719328E+02  0.40659142450E+02  0.00000000000E+00 0.  1.
         11    1    3    3    0    0 -0.87633231306E+01  0.61067240540E+01  0.11176910718E+02  0.15459988500E+02  0.51100000000E-03 0. -1.
        -11    1    3    3    0    0 -0.97933809773E+01  0.85206010688E+01  0.16528954960E+02  0.21017071772E+02  0.51100000000E-03 0.  1.
        -12    1    3    3    0    0 -0.94722130578E+01  0.69762964467E+01 -0.76851463496E+01  0.14051797278E+02  0.00000000000E+00 0.  1.
</event>
<event>
 7    1  0.5913457E-013  0.5052887E+02  0.7816164E-02  0.1300439E+00
        -11   -1    0    0    0    0  0.00000000000E+00  0.00000000000E+00  0.45593999997E+02  0.45594000000E+02  0.51100000000E-03 0.  1.
         11   -1    0    0    0    0 -0.00000000000E+00 -0.00000000000E+00 -0.45593999997E+02  0.45594000000E+02  0.51100000000E-03 0. -1.
    9900012    2    1    2    0    0  0.26742632917E+01 -0.12483524319E+02 -0.38602786886E+02  0.50528865492E+02  0.30000017150E+02 0.  0.
        -12    1    1    2    0    0 -0.26742632917E+01  0.12483524319E+02  0.38602786886E+02  0.40659134508E+02  0.00000000000E+00 0.  1.
         11    1    3    3    0    0 -0.79077729917E+01 -0.12587380389E+01 -0.69410943171E+01  0.10596984747E+02  0.51100000000E-03 0. -1.
        -11    1    3    3    0    0 -0.43790732712E+00 -0.80588805553E+01 -0.25843578175E+02  0.27074487101E+02  0.51100000000E-03 0.  1.
        -12    1    3    3    0    0  0.11019943611E+02 -0.31659057247E+01 -0.58181143937E+01  0.12857393645E+02  0.00000000000E+00 0.  1.
</event>
<event>
 7    1  0.5913457E-013  0.5052886E+02  0.7816164E-02  0.1300439E+00
        -11   -1    0    0    0    0  0.00000000000E+00  0.00000000000E+00  0.45593999997E+02  0.45594000000E+02  0.51100000000E-03 0.  1.
         11   -1    0    0    0    0 -0.00000000000E+00 -0.00000000000E+00 -0.45593999997E+02  0.45594000000E+02  0.51100000000E-03 0. -1.
    9900012    2    1    2    0    0  0.89748682413E+01 -0.26241911509E+02 -0.29731792382E+02  0.50528860094E+02  0.30000000743E+02 0.  0.
        -12    1    1    2    0    0 -0.89748682413E+01  0.26241911509E+02  0.29731792382E+02  0.40659139906E+02  0.00000000000E+00 0.  1.
         11    1    3    3    0    0  0.13042946841E+02 -0.16259617621E+02 -0.26266994315E+02  0.33532799139E+02  0.51100000000E-03 0. -1.
        -11    1    3    3    0    0  0.34445747033E+01 -0.33540883622E+01 -0.49121208770E+01  0.68734223935E+01  0.51100000000E-03 0.  1.
         12    1    3    3    0    0 -0.75126533026E+01 -0.66282055264E+01  0.14473228101E+01  0.10122638562E+02  0.00000000000E+00 0. -1.
</event>
<event>
 7    1  0.5913457E-013  0.5052886E+02  0.7816164E-02  0.1300439E+00
        -11   -1    0    0    0    0  0.00000000000E+00  0.00000000000E+00  0.45593999997E+02  0.45594000000E+02  0.51100000000E-03 0.  1.
         11   -1    0    0    0    0 -0.00000000000E+00 -0.00000000000E+00 -0.45593999997E+02  0.45594000000E+02  0.51100000000E-03 0. -1.
    9900012    2    1    2    0    0  0.12668780724E+02  0.31638155224E+02 -0.22174192176E+02  0.50528859949E+02  0.30000000301E+02 0.  0.
        -12    1    1    2    0    0 -0.12668780724E+02 -0.31638155224E+02  0.22174192176E+02  0.40659140051E+02  0.00000000000E+00 0.  1.
         11    1    3    3    0    0  0.56784725550E+01  0.12585441326E+02 -0.69382853979E+01  0.15452449271E+02  0.51100000000E-03 0. -1.
        -11    1    3    3    0    0  0.14282711218E+02  0.92367782629E+01 -0.15255188663E+02  0.22848078559E+02  0.51100000000E-03 0.  1.
        -12    1    3    3    0    0 -0.72924030497E+01  0.98159356349E+01  0.19281885167E-01  0.12228332119E+02  0.00000000000E+00 0.  1.
</event>
<event>
 7    1  0.5913457E-013  0.5052894E+02  0.7816164E-02  0.1300439E+00
        -11   -1    0    0    0    0  0.00000000000E+00  0.00000000000E+00  0.45593999997E+02  0.45594000000E+02  0.51100000000E-03 0.  1.
         11   -1    0    0    0    0 -0.00000000000E+00 -0.00000000000E+00 -0.45593999997E+02  0.45594000000E+02  0.51100000000E-03 0. -1.
    9900012    2    1    2    0    0  0.28661048356E+02  0.28767787723E+02 -0.20292785323E+01  0.50528938590E+02  0.30000239339E+02 0.  0.
        -12    1    1    2    0    0 -0.28661048356E+02 -0.28767787723E+02  0.20292785323E+01  0.40659061410E+02  0.00000000000E+00 0.  1.
         11    1    3    3    0    0  0.55177095189E+01  0.42471785698E+01  0.10592607783E+02  0.12676236983E+02  0.51100000000E-03 0. -1.
        -11    1    3    3    0    0 -0.26425182692E+00  0.49604929148E+01 -0.37471085538E+00  0.49816390347E+01  0.51100000000E-03 0.  1.
         12    1    3    3    0    0  0.23407590664E+02  0.19560116238E+02 -0.12247175460E+02  0.32871062573E+02  0.00000000000E+00 0. -1.
</event>
<event>
 7    1  0.5913457E-013  0.5052887E+02  0.7816164E-02  0.1300439E+00
        -11   -1    0    0    0    0  0.00000000000E+00  0.00000000000E+00  0.45593999997E+02  0.45594000000E+02  0.51100000000E-03 0.  1.
         11   -1    0    0    0    0 -0.00000000000E+00 -0.00000000000E+00 -0.45593999997E+02  0.45594000000E+02  0.51100000000E-03 0. -1.
    9900012    2    1    2    0    0  0.19449379975E+02 -0.11886213499E+02 -0.33669039806E+02  0.50528871945E+02  0.30000036764E+02 0.  0.
        -12    1    1    2    0    0 -0.19449379975E+02  0.11886213499E+02  0.33669039806E+02  0.40659128055E+02  0.00000000000E+00 0.  1.
         11    1    3    3    0    0  0.59732449403E+01  0.54682915682E+01 -0.95183644763E+01  0.12497244911E+02  0.51100000000E-03 0. -1.
        -11    1    3    3    0    0  0.11421664469E+02 -0.20545305958E+01 -0.17994531312E+02  0.21412115090E+02  0.51100000000E-03 0.  1.
        -12    1    3    3    0    0  0.20544705655E+01 -0.15299974471E+02 -0.61561440174E+01  0.16619511945E+02  0.00000000000E+00 0.  1.
</event>
<event>
 7    1  0.5913457E-013  0.5052886E+02  0.7816164E-02  0.1300439E+00
        -11   -1    0    0    0    0  0.00000000000E+00  0.00000000000E+00  0.45593999997E+02  0.45594000000E+02  0.51100000000E-03 0. -1.
         11   -1    0    0    0    0 -0.00000000000E+00 -0.00000000000E+00 -0.45593999997E+02  0.45594000000E+02  0.51100000000E-03 0.  1.
    9900012    2    1    2    0    0 -0.10836560914E+02 -0.29449352896E+02  0.25854790779E+02  0.50528860257E+02  0.30000001237E+02 0.  0.
        -12    1    1    2    0    0  0.10836560914E+02  0.29449352896E+02 -0.25854790779E+02  0.40659139743E+02  0.00000000000E+00 0.  1.
         11    1    3    3    0    0 -0.13842795455E+02 -0.20193204375E+02  0.18070314750E+02  0.30429011886E+02  0.51100000000E-03 0. -1.
        -11    1    3    3    0    0 -0.51602624604E+01 -0.89757078378E+01  0.46159521256E+01  0.11335724685E+02  0.51100000000E-03 0.  1.
        -12    1    3    3    0    0  0.81664970018E+01 -0.28044068325E+00  0.31685239040E+01  0.87641236862E+01  0.00000000000E+00 0.  1.
</event>
<event>
 7    1  0.5913457E-013  0.5052886E+02  0.7816164E-02  0.1300439E+00
        -11   -1    0    0    0    0  0.00000000000E+00  0.00000000000E+00  0.45593999997E+02  0.45594000000E+02  0.51100000000E-03 0. -1.
         11   -1    0    0    0    0 -0.00000000000E+00 -0.00000000000E+00 -0.45593999997E+02  0.45594000000E+02  0.51100000000E-03 0.  1.
    9900012    2    1    2    0    0  0.22324838532E+02 -0.26515924668E+02  0.21252596321E+02  0.50528861706E+02  0.30000005641E+02 0.  0.
        -12    1    1    2    0    0 -0.22324838532E+02  0.26515924668E+02 -0.21252596321E+02  0.40659138294E+02  0.00000000000E+00 0.  1.
         11    1    3    3    0    0  0.19756240631E+02 -0.21799828641E+02  0.79566699254E+01  0.30477043315E+02  0.51100000000E-03 0. -1.
        -11    1    3    3    0    0  0.28485318068E+01 -0.62925908349E+01  0.25399860680E+00  0.69119713847E+01  0.51100000000E-03 0.  1.
         12    1    3    3    0    0 -0.27993390641E+00  0.15764948088E+01  0.13041927789E+02  0.13139847006E+02  0.00000000000E+00 0. -1.
</event>
<event>
 7    1  0.5913457E-013  0.5052884E+02  0.7816164E-02  0.1300439E+00
        -11   -1    0    0    0    0  0.00000000000E+00  0.00000000000E+00  0.45593999997E+02  0.45594000000E+02  0.51100000000E-03 0. -1.
         11   -1    0    0    0    0 -0.00000000000E+00 -0.00000000000E+00 -0.45593999997E+02  0.45594000000E+02  0.51100000000E-03 0.  1.
    9900012    2    1    2    0    0  0.51159411771E+01 -0.35173969283E+02  0.19743011961E+02  0.50528837558E+02  0.29999932240E+02 0.  0.
        -12    1    1    2    0    0 -0.51159411771E+01  0.35173969283E+02 -0.19743011961E+02  0.40659162442E+02  0.00000000000E+00 0.  1.
         11    1    3    3    0    0  0.83074255058E+01 -0.26284648186E+02  0.15335981076E+02  0.31545021233E+02  0.51100000000E-03 0. -1.
        -11    1    3    3    0    0  0.53839301331E+00 -0.12928221110E+02  0.26114311949E+01  0.13200315953E+02  0.51100000000E-03 0.  1.
        -12    1    3    3    0    0 -0.37298773420E+01  0.40389000130E+01  0.17955996902E+01  0.57835003716E+01  0.00000000000E+00 0.  1.
</event>
<event>
 7    1  0.5913457E-013  0.5052886E+02  0.7816164E-02  0.1300439E+00
        -11   -1    0    0    0    0  0.00000000000E+00  0.00000000000E+00  0.45593999997E+02  0.45594000000E+02  0.51100000000E-03 0.  1.
         11   -1    0    0    0    0 -0.00000000000E+00 -0.00000000000E+00 -0.45593999997E+02  0.45594000000E+02  0.51100000000E-03 0. -1.
    9900012    2    1    2    0    0  0.35370440659E+02 -0.10517369167E+01  0.20024761855E+02  0.50528864368E+02  0.30000013734E+02 0.  0.
        -12    1    1    2    0    0 -0.35370440659E+02  0.10517369167E+01 -0.20024761855E+02  0.40659135632E+02  0.00000000000E+00 0.  1.
         11    1    3    3    0    0  0.11871130217E+02 -0.48719870828E+01  0.69240187681E+01  0.14580878812E+02  0.51100000000E-03 0. -1.
        -11    1    3    3    0    0  0.10505597002E+02 -0.99032263002E+01  0.40574289523E+01  0.14996805976E+02  0.51100000000E-03 0.  1.
         12    1    3    3    0    0  0.12993713441E+02  0.13723476466E+02  0.90433141344E+01  0.20951179581E+02  0.00000000000E+00 0. -1.
</event>
<event>
 7    1  0.5913457E-013  0.5052885E+02  0.7816164E-02  0.1300439E+00
        -11   -1    0    0    0    0  0.00000000000E+00  0.00000000000E+00  0.45593999997E+02  0.45594000000E+02  0.51100000000E-03 0. -1.
         11   -1    0    0    0    0 -0.00000000000E+00 -0.00000000000E+00 -0.45593999997E+02  0.45594000000E+02  0.51100000000E-03 0.  1.
    9900012    2    1    2    0    0 -0.55255894013E+01 -0.40109789912E+02  0.37200999450E+01  0.50528849386E+02  0.29999968194E+02 0.  0.
        -12    1    1    2    0    0  0.55255894013E+01  0.40109789912E+02 -0.37200999450E+01  0.40659150614E+02  0.00000000000E+00 0.  1.
         11    1    3    3    0    0 -0.87427872378E+01 -0.38029243225E+01  0.16501623659E+01  0.96758254523E+01  0.51100000000E-03 0.  1.
        -11    1    3    3    0    0 -0.54632359872E+01 -0.11719802200E+02 -0.49572757969E+01  0.13848295730E+02  0.51100000000E-03 0. -1.
         12    1    3    3    0    0  0.86804338237E+01 -0.24587063390E+02  0.70272133759E+01  0.27004728204E+02  0.00000000000E+00 0. -1.
</event>
<event>
 7    1  0.5913457E-013  0.5052885E+02  0.7816164E-02  0.1300439E+00
        -11   -1    0    0    0    0  0.00000000000E+00  0.00000000000E+00  0.45593999997E+02  0.45594000000E+02  0.51100000000E-03 0. -1.
         11   -1    0    0    0    0 -0.00000000000E+00 -0.00000000000E+00 -0.45593999997E+02  0.45594000000E+02  0.51100000000E-03 0.  1.
    9900012    2    1    2    0    0  0.36889702438E+02 -0.34672329444E+01  0.16741992666E+02  0.50528853813E+02  0.29999981650E+02 0.  0.
        -12    1    1    2    0    0 -0.36889702438E+02  0.34672329444E+01 -0.16741992666E+02  0.40659146187E+02  0.00000000000E+00 0.  1.
         11    1    3    3    0    0  0.96857940818E+01 -0.73757496423E+01 -0.95838866115E+00  0.12212075944E+02  0.51100000000E-03 0.  1.
        -11    1    3    3    0    0  0.23011466828E+02  0.49063976012E+01  0.22012489328E+02  0.32220335654E+02  0.51100000000E-03 0. -1.
         12    1    3    3    0    0  0.41924415277E+01 -0.99788090337E+00 -0.43121080010E+01  0.60964422143E+01  0.00000000000E+00 0. -1.
</event>
<event>
 7    1  0.5913457E-013  0.5052885E+02  0.7816164E-02  0.1300439E+00
        -11   -1    0    0    0    0  0.00000000000E+00  0.00000000000E+00  0.45593999997E+02  0.45594000000E+02  0.51100000000E-03 0.  1.
         11   -1    0    0    0    0 -0.00000000000E+00 -0.00000000000E+00 -0.45593999997E+02  0.45594000000E+02  0.51100000000E-03 0. -1.
    9900012    2    1    2    0    0  0.18931333760E+02  0.75726186461E+01 -0.35177073382E+02  0.50528850442E+02  0.29999971402E+02 0.  0.
        -12    1    1    2    0    0 -0.18931333760E+02 -0.75726186461E+01  0.35177073382E+02  0.40659149558E+02  0.00000000000E+00 0.  1.
         11    1    3    3    0    0  0.33628579614E+00 -0.17594299303E+01 -0.83279079391E+00  0.19754044102E+01  0.51100000000E-03 0. -1.
        -11    1    3    3    0    0  0.12744103444E+02 -0.86139628902E+01 -0.13968010342E+02  0.20777820926E+02  0.51100000000E-03 0.  1.
         12    1    3    3    0    0  0.58509445198E+01  0.17946011467E+02 -0.20376272246E+02  0.27775625105E+02  0.00000000000E+00 0. -1.
</event>
<event>
 7    1  0.5913457E-013  0.5052888E+02  0.7816164E-02  0.1300439E+00
        -11   -1    0    0    0    0  0.00000000000E+00  0.00000000000E+00  0.45593999997E+02  0.45594000000E+02  0.51100000000E-03 0. -1.
         11   -1    0    0    0    0 -0.00000000000E+00 -0.00000000000E+00 -0.45593999997E+02  0.45594000000E+02  0.51100000000E-03 0.  1.
    9900012    2    1    2    0    0  0.39015664602E+02  0.10707716912E+02  0.40357065955E+01  0.50528877856E+02  0.30000054730E+02 0.  0.
        -12    1    1    2    0    0 -0.39015664602E+02 -0.10707716912E+02 -0.40357065955E+01  0.40659122144E+02  0.00000000000E+00 0.  1.
         11    1    3    3    0    0 -0.19738994022E+01 -0.11313391371E+01 -0.32792995515E+01  0.39912420251E+01  0.51100000000E-03 0.  1.
        -11    1    3    3    0    0  0.28501547368E+02  0.13902961023E+01 -0.35775775426E+00  0.28537678891E+02  0.51100000000E-03 0. -1.
        -12    1    3    3    0    0  0.12488016636E+02  0.10448759947E+02  0.76727639013E+01  0.17999956939E+02  0.00000000000E+00 0.  1.
</event>
<event>
 7    1  0.6594244E-013  0.5052888E+02  0.7816164E-02  0.1300439E+00
        -11   -1    0    0    0    0  0.00000000000E+00  0.00000000000E+00  0.45593999997E+02  0.45594000000E+02  0.51100000000E-03 0.  1.
         11   -1    0    0    0    0 -0.00000000000E+00 -0.00000000000E+00 -0.45593999997E+02  0.45594000000E+02  0.51100000000E-03 0. -1.
    9900012    2    1    2    0    0 -0.28371284691E+02 -0.26419365378E+02 -0.12257718025E+02  0.50528876630E+02  0.30000051004E+02 0.  0.
        -12    1    1    2    0    0  0.28371284691E+02  0.26419365378E+02  0.12257718025E+02  0.40659123370E+02  0.00000000000E+00 0.  1.
         11    1    3    3    0    0 -0.88971984913E+01 -0.18839756186E+02 -0.40017598006E+01  0.21215810989E+02  0.51100000000E-03 0. -1.
        -11    1    3    3    0    0 -0.12734833553E+02 -0.54286249336E+01 -0.14376820352E+02  0.19958429748E+02  0.51100000000E-03 0.  1.
        -12    1    3    3    0    0 -0.67392526468E+01 -0.21509842588E+01  0.61208621274E+01  0.93546358936E+01  0.00000000000E+00 0.  1.
</event>
<event>
 7    1  0.5913457E-013  0.5052886E+02  0.7816164E-02  0.1300439E+00
        -11   -1    0    0    0    0  0.00000000000E+00  0.00000000000E+00  0.45593999997E+02  0.45594000000E+02  0.51100000000E-03 0. -1.
         11   -1    0    0    0    0 -0.00000000000E+00 -0.00000000000E+00 -0.45593999997E+02  0.45594000000E+02  0.51100000000E-03 0.  1.
    9900012    2    1    2    0    0  0.20132068143E+02  0.11794535314E+02  0.33297960132E+02  0.50528863512E+02  0.30000011132E+02 0.  0.
        -12    1    1    2    0    0 -0.20132068143E+02 -0.11794535314E+02 -0.33297960132E+02  0.40659136488E+02  0.00000000000E+00 0.  1.
         11    1    3    3    0    0  0.54595246453E+01  0.17442876755E+01  0.11496917789E+02  0.12846325068E+02  0.51100000000E-03 0. -1.
        -11    1    3    3    0    0 -0.69066517926E+00  0.76545621062E+01  0.20716121547E+02  0.22095860057E+02  0.51100000000E-03 0.  1.
        -12    1    3    3    0    0  0.15363208677E+02  0.23956855324E+01  0.10849207958E+01  0.15586678388E+02  0.00000000000E+00 0.  1.
</event>
<event>
 7    1  0.5913457E-013  0.5052887E+02  0.7816164E-02  0.1300439E+00
        -11   -1    0    0    0    0  0.00000000000E+00  0.00000000000E+00  0.45593999997E+02  0.45594000000E+02  0.51100000000E-03 0.  1.
         11   -1    0    0    0    0 -0.00000000000E+00 -0.00000000000E+00 -0.45593999997E+02  0.45594000000E+02  0.51100000000E-03 0. -1.
    9900012    2    1    2    0    0  0.21550745760E+01 -0.39624437216E+02 -0.88557500036E+01  0.50528872129E+02  0.30000037323E+02 0.  0.
        -12    1    1    2    0    0 -0.21550745760E+01  0.39624437216E+02  0.88557500036E+01  0.40659127871E+02  0.00000000000E+00 0.  1.
         11    1    3    3    0    0 -0.38070661378E+00  0.41440494806E+01 -0.24873570404E+01  0.48481985243E+01  0.51100000000E-03 0. -1.
        -11    1    3    3    0    0  0.42693125114E+01 -0.56945187160E+01 -0.78212103975E+00  0.71600479265E+01  0.51100000000E-03 0.  1.
         12    1    3    3    0    0 -0.17335313217E+01 -0.38073967981E+02 -0.55862719235E+01  0.38520625678E+02  0.00000000000E+00 0. -1.
</event>
<event>
 7    1  0.5913457E-013  0.5052886E+02  0.7816164E-02  0.1300439E+00
        -11   -1    0    0    0    0  0.00000000000E+00  0.00000000000E+00  0.45593999997E+02  0.45594000000E+02  0.51100000000E-03 0. -1.
         11   -1    0    0    0    0 -0.00000000000E+00 -0.00000000000E+00 -0.45593999997E+02  0.45594000000E+02  0.51100000000E-03 0.  1.
    9900012    2    1    2    0    0  0.36704264446E+02  0.16588190662E+02 -0.55493155459E+01  0.50528855875E+02  0.29999987918E+02 0.  0.
        -12    1    1    2    0    0 -0.36704264446E+02 -0.16588190662E+02  0.55493155459E+01  0.40659144125E+02  0.00000000000E+00 0.  1.
         11    1    3    3    0    0  0.32549051715E+02  0.40406578138E+01 -0.97596208616E+01  0.34220138555E+02  0.51100000000E-03 0.  1.
        -11    1    3    3    0    0  0.45586586865E+01  0.27490283041E+01  0.37109662757E+01  0.64892061607E+01  0.51100000000E-03 0. -1.
        -12    1    3    3    0    0 -0.40344595538E+00  0.97985045438E+01  0.49933903996E+00  0.98195111594E+01  0.00000000000E+00 0.  1.
</event>
<event>
 7    1  0.5913457E-013  0.5052887E+02  0.7816164E-02  0.1300439E+00
        -11   -1    0    0    0    0  0.00000000000E+00  0.00000000000E+00  0.45593999997E+02  0.45594000000E+02  0.51100000000E-03 0. -1.
         11   -1    0    0    0    0 -0.00000000000E+00 -0.00000000000E+00 -0.45593999997E+02  0.45594000000E+02  0.51100000000E-03 0.  1.
    9900012    2    1    2    0    0 -0.36135357859E+02  0.14151471212E+02  0.12129998252E+02  0.50528867168E+02  0.30000022244E+02 0.  0.
        -12    1    1    2    0    0  0.36135357859E+02 -0.14151471212E+02 -0.12129998252E+02  0.40659132832E+02  0.00000000000E+00 0.  1.
         11    1    3    3    0    0 -0.47109456738E+01 -0.18826708541E+01  0.37623987152E+00  0.50871421631E+01  0.51100000000E-03 0. -1.
        -11    1    3    3    0    0  0.37062076024E+01  0.30562566914E+01 -0.24439281415E+01  0.53897555397E+01  0.51100000000E-03 0.  1.
         12    1    3    3    0    0 -0.35130619788E+02  0.12977885375E+02  0.14197686522E+02  0.40051969465E+02  0.00000000000E+00 0. -1.
</event>
<event>
 7    1  0.5913457E-013  0.5052886E+02  0.7816164E-02  0.1300439E+00
        -11   -1    0    0    0    0  0.00000000000E+00  0.00000000000E+00  0.45593999997E+02  0.45594000000E+02  0.51100000000E-03 0. -1.
         11   -1    0    0    0    0 -0.00000000000E+00 -0.00000000000E+00 -0.45593999997E+02  0.45594000000E+02  0.51100000000E-03 0.  1.
    9900012    2    1    2    0    0  0.93016866783E+01 -0.28440318876E+02  0.27528035040E+02  0.50528858027E+02  0.29999994457E+02 0.  0.
        -12    1    1    2    0    0 -0.93016866783E+01  0.28440318876E+02 -0.27528035040E+02  0.40659141973E+02  0.00000000000E+00 0.  1.
         11    1    3    3    0    0 -0.48500556267E+01 -0.72623941257E+01  0.10327692620E+02  0.13525037639E+02  0.51100000000E-03 0.  1.
        -11    1    3    3    0    0 -0.35971227788E+01 -0.11836010797E+02  0.40360034604E+01  0.13012292960E+02  0.51100000000E-03 0. -1.
         12    1    3    3    0    0  0.17748865084E+02 -0.93419139534E+01  0.13164338960E+02  0.23991527428E+02  0.00000000000E+00 0. -1.
</event>
<event>
 7    1  0.5913457E-013  0.5052886E+02  0.7816164E-02  0.1300439E+00
        -11   -1    0    0    0    0  0.00000000000E+00  0.00000000000E+00  0.45593999997E+02  0.45594000000E+02  0.51100000000E-03 0.  1.
         11   -1    0    0    0    0 -0.00000000000E+00 -0.00000000000E+00 -0.45593999997E+02  0.45594000000E+02  0.51100000000E-03 0. -1.
    9900012    2    1    2    0    0 -0.36034054292E+02  0.18648392323E+01 -0.18741253431E+02  0.50528864811E+02  0.30000015081E+02 0.  0.
        -12    1    1    2    0    0  0.36034054292E+02 -0.18648392323E+01  0.18741253431E+02  0.40659135189E+02  0.00000000000E+00 0.  1.
         11    1    3    3    0    0 -0.13594105029E+02  0.33027797584E+00 -0.34604614283E+01  0.14031520539E+02  0.51100000000E-03 0. -1.
        -11    1    3    3    0    0 -0.23164066261E+02 -0.38974200360E+01 -0.38260141853E+01  0.23799206572E+02  0.51100000000E-03 0.  1.
         12    1    3    3    0    0  0.72411699744E+00  0.54319812925E+01 -0.11454777818E+02  0.12698137700E+02  0.00000000000E+00 0. -1.
</event>
<event>
 7    1  0.5913457E-013  0.5052886E+02  0.7816164E-02  0.1300439E+00
        -11   -1    0    0    0    0  0.00000000000E+00  0.00000000000E+00  0.45593999997E+02  0.45594000000E+02  0.51100000000E-03 0.  1.
         11   -1    0    0    0    0 -0.00000000000E+00 -0.00000000000E+00 -0.45593999997E+02  0.45594000000E+02  0.51100000000E-03 0. -1.
    9900012    2    1    2    0    0  0.14948484197E+02  0.33263999209E+02  0.17978176519E+02  0.50528860140E+02  0.30000000883E+02 0.  0.
        -12    1    1    2    0    0 -0.14948484197E+02 -0.33263999209E+02 -0.17978176519E+02  0.40659139860E+02  0.00000000000E+00 0.  1.
         11    1    3    3    0    0  0.18576734720E+02  0.15749002935E+02  0.30882626325E+01  0.24549206355E+02  0.51100000000E-03 0. -1.
        -11    1    3    3    0    0  0.35525947251E+01  0.53454082345E+01  0.16758309694E+01  0.66334552213E+01  0.51100000000E-03 0.  1.
        -12    1    3    3    0    0 -0.71808452483E+01  0.12169588040E+02  0.13214082917E+02  0.19346198564E+02  0.00000000000E+00 0.  1.
</event>
<event>
 7    1  0.5913457E-013  0.5052885E+02  0.7816164E-02  0.1300439E+00
        -11   -1    0    0    0    0  0.00000000000E+00  0.00000000000E+00  0.45593999997E+02  0.45594000000E+02  0.51100000000E-03 0.  1.
         11   -1    0    0    0    0 -0.00000000000E+00 -0.00000000000E+00 -0.45593999997E+02  0.45594000000E+02  0.51100000000E-03 0. -1.
    9900012    2    1    2    0    0 -0.32071791371E+02 -0.16922953660E+02 -0.18389671773E+02  0.50528853548E+02  0.29999980844E+02 0.  0.
        -12    1    1    2    0    0  0.32071791371E+02  0.16922953660E+02  0.18389671773E+02  0.40659146452E+02  0.00000000000E+00 0.  1.
         11    1    3    3    0    0 -0.22012856760E+02 -0.10593004373E+02 -0.33272249882E+00  0.24431297733E+02  0.51100000000E-03 0. -1.
        -11    1    3    3    0    0 -0.60723981947E+01 -0.38340874725E+01  0.26015679636E+00  0.71862318639E+01  0.51100000000E-03 0.  1.
         12    1    3    3    0    0 -0.39865364158E+01 -0.24958618149E+01 -0.18317106070E+02  0.18911323951E+02  0.00000000000E+00 0. -1.
</event>
<event>
 7    1  0.5913457E-013  0.5052886E+02  0.7816164E-02  0.1300439E+00
        -11   -1    0    0    0    0  0.00000000000E+00  0.00000000000E+00  0.45593999997E+02  0.45594000000E+02  0.51100000000E-03 0.  1.
         11   -1    0    0    0    0 -0.00000000000E+00 -0.00000000000E+00 -0.45593999997E+02  0.45594000000E+02  0.51100000000E-03 0. -1.
    9900012    2    1    2    0    0  0.15051851906E+02 -0.23039932722E+02 -0.29929396404E+02  0.50528861854E+02  0.30000006092E+02 0.  0.
        -12    1    1    2    0    0 -0.15051851906E+02  0.23039932722E+02  0.29929396404E+02  0.40659138146E+02  0.00000000000E+00 0.  1.
         11    1    3    3    0    0  0.56620165156E+01 -0.18178074175E+01 -0.46469208143E+01  0.75469681426E+01  0.51100000000E-03 0. -1.
        -11    1    3    3    0    0  0.82656988601E+01  0.85689127134E+00  0.12963565356E+01  0.84105041956E+01  0.51100000000E-03 0.  1.
        -12    1    3    3    0    0  0.11241365304E+01 -0.22079016576E+02 -0.26578832126E+02  0.34571389516E+02  0.00000000000E+00 0.  1.
</event>
<event>
 7    1  0.5913457E-013  0.5052886E+02  0.7816164E-02  0.1300439E+00
        -11   -1    0    0    0    0  0.00000000000E+00  0.00000000000E+00  0.45593999997E+02  0.45594000000E+02  0.51100000000E-03 0.  1.
         11   -1    0    0    0    0 -0.00000000000E+00 -0.00000000000E+00 -0.45593999997E+02  0.45594000000E+02  0.51100000000E-03 0. -1.
    9900012    2    1    2    0    0  0.97364787020E+01  0.15671690126E+02 -0.36232097016E+02  0.50528859046E+02  0.29999997557E+02 0.  0.
        -12    1    1    2    0    0 -0.97364787020E+01 -0.15671690126E+02  0.36232097016E+02  0.40659140954E+02  0.00000000000E+00 0.  1.
         11    1    3    3    0    0 -0.45910549704E+01 -0.15710401252E+01 -0.13414295805E+02  0.14264967053E+02  0.51100000000E-03 0. -1.
        -11    1    3    3    0    0  0.11776711300E+02  0.18521434600E+01 -0.13832097931E+02  0.18260566745E+02  0.51100000000E-03 0.  1.
        -12    1    3    3    0    0  0.25508223729E+01  0.15390586791E+02 -0.89857032799E+01  0.18003325248E+02  0.00000000000E+00 0.  1.
</event>
<event>
 7    1  0.5913457E-013  0.5052882E+02  0.7816164E-02  0.1300439E+00
        -11   -1    0    0    0    0  0.00000000000E+00  0.00000000000E+00  0.45593999997E+02  0.45594000000E+02  0.51100000000E-03 0. -1.
         11   -1    0    0    0    0 -0.00000000000E+00 -0.00000000000E+00 -0.45593999997E+02  0.45594000000E+02  0.51100000000E-03 0.  1.
    9900012    2    1    2    0    0  0.16707082068E+02 -0.37038183040E+02 -0.14884616859E+01  0.50528817613E+02  0.29999871617E+02 0.  0.
        -12    1    1    2    0    0 -0.16707082068E+02  0.37038183040E+02  0.14884616859E+01  0.40659182387E+02  0.00000000000E+00 0.  1.
         11    1    3    3    0    0  0.63080499450E+01 -0.16897059086E+02  0.84374494435E+01  0.19912123273E+02  0.51100000000E-03 0.  1.
        -11    1    3    3    0    0 -0.15637927333E+01  0.22389557158E+01  0.11051091790E+01  0.29461223615E+01  0.51100000000E-03 0. -1.
        -12    1    3    3    0    0  0.11962824857E+02 -0.22380079670E+02 -0.11031020308E+02  0.27670571979E+02  0.00000000000E+00 0.  1.
</event>
<event>
 7    1  0.5913457E-013  0.5052898E+02  0.7816164E-02  0.1300438E+00
        -11   -1    0    0    0    0  0.00000000000E+00  0.00000000000E+00  0.45593999997E+02  0.45594000000E+02  0.51100000000E-03 0.  1.
         11   -1    0    0    0    0 -0.00000000000E+00 -0.00000000000E+00 -0.45593999997E+02  0.45594000000E+02  0.51100000000E-03 0. -1.
    9900012    2    1    2    0    0  0.11387128673E+01 -0.14924547361E+02 -0.37803669251E+02  0.50528976527E+02  0.30000354649E+02 0.  0.
        -12    1    1    2    0    0 -0.11387128673E+01  0.14924547361E+02  0.37803669251E+02  0.40659023473E+02  0.00000000000E+00 0.  1.
         11    1    3    3    0    0  0.74586655400E+01  0.25404692165E+00 -0.17884092571E+01  0.76742842928E+01  0.51100000000E-03 0. -1.
        -11    1    3    3    0    0  0.13763731489E+01 -0.12659374152E+01  0.13106083787E+01  0.22835707057E+01  0.51100000000E-03 0.  1.
         12    1    3    3    0    0 -0.76963258216E+01 -0.13912656868E+02 -0.37325868373E+02  0.40571121528E+02  0.00000000000E+00 0. -1.
</event>
<event>
 7    1  0.5913457E-013  0.5052887E+02  0.7816164E-02  0.1300439E+00
        -11   -1    0    0    0    0  0.00000000000E+00  0.00000000000E+00  0.45593999997E+02  0.45594000000E+02  0.51100000000E-03 0. -1.
         11   -1    0    0    0    0 -0.00000000000E+00 -0.00000000000E+00 -0.45593999997E+02  0.45594000000E+02  0.51100000000E-03 0.  1.
    9900012    2    1    2    0    0 -0.14175543510E+02 -0.26687280629E+02  0.27203092789E+02  0.50528865252E+02  0.30000016419E+02 0.  0.
        -12    1    1    2    0    0  0.14175543510E+02  0.26687280629E+02 -0.27203092789E+02  0.40659134748E+02  0.00000000000E+00 0.  1.
         11    1    3    3    0    0 -0.10064908189E+02 -0.15060549942E+02  0.90114185954E+01  0.20231861179E+02  0.51100000000E-03 0. -1.
        -11    1    3    3    0    0 -0.55992555487E+01 -0.99361952563E+01 -0.55187420615E+00  0.11418590293E+02  0.51100000000E-03 0.  1.
        -12    1    3    3    0    0  0.14886202276E+01 -0.16905354307E+01  0.18743548400E+02  0.18878413780E+02  0.00000000000E+00 0.  1.
</event>
<event>
 7    1  0.5913457E-013  0.5052886E+02  0.7816164E-02  0.1300439E+00
        -11   -1    0    0    0    0  0.00000000000E+00  0.00000000000E+00  0.45593999997E+02  0.45594000000E+02  0.51100000000E-03 0. -1.
         11   -1    0    0    0    0 -0.00000000000E+00 -0.00000000000E+00 -0.45593999997E+02  0.45594000000E+02  0.51100000000E-03 0.  1.
    9900012    2    1    2    0    0 -0.35653447676E+02  0.11830872011E+02 -0.15557236551E+02  0.50528862370E+02  0.30000007660E+02 0.  0.
        -12    1    1    2    0    0  0.35653447676E+02 -0.11830872011E+02  0.15557236551E+02  0.40659137630E+02  0.00000000000E+00 0.  1.
         11    1    3    3    0    0 -0.17612878926E+02 -0.74054890880E+01 -0.91628362636E+01  0.21189911310E+02  0.51100000000E-03 0.  1.
        -11    1    3    3    0    0 -0.45527458548E+01  0.33958365937E+01  0.30993242461E+01  0.64703177691E+01  0.51100000000E-03 0. -1.
        -12    1    3    3    0    0 -0.13487822895E+02  0.15840524506E+02 -0.94937245336E+01  0.22868633291E+02  0.00000000000E+00 0.  1.
</event>
<event>
 7    1  0.5913457E-013  0.5052886E+02  0.7816164E-02  0.1300439E+00
        -11   -1    0    0    0    0  0.00000000000E+00  0.00000000000E+00  0.45593999997E+02  0.45594000000E+02  0.51100000000E-03 0. -1.
         11   -1    0    0    0    0 -0.00000000000E+00 -0.00000000000E+00 -0.45593999997E+02  0.45594000000E+02  0.51100000000E-03 0.  1.
    9900012    2    1    2    0    0  0.11192553154E+02  0.33537985437E+02  0.20077243147E+02  0.50528863195E+02  0.30000010169E+02 0.  0.
        -12    1    1    2    0    0 -0.11192553154E+02 -0.33537985437E+02 -0.20077243147E+02  0.40659136805E+02  0.00000000000E+00 0.  1.
         11    1    3    3    0    0  0.34908686573E+01  0.21794098378E+02  0.24348382720E+02  0.32863545600E+02  0.51100000000E-03 0. -1.
        -11    1    3    3    0    0 -0.20761824880E+01  0.24874825485E+01  0.69602916895E+00  0.33139945712E+01  0.51100000000E-03 0.  1.
        -12    1    3    3    0    0  0.97778669847E+01  0.92564045110E+01 -0.49671687414E+01  0.14351323024E+02  0.00000000000E+00 0.  1.
</event>
<event>
 7    1  0.5913457E-013  0.5052888E+02  0.7816164E-02  0.1300439E+00
        -11   -1    0    0    0    0  0.00000000000E+00  0.00000000000E+00  0.45593999997E+02  0.45594000000E+02  0.51100000000E-03 0.  1.
         11   -1    0    0    0    0 -0.00000000000E+00 -0.00000000000E+00 -0.45593999997E+02  0.45594000000E+02  0.51100000000E-03 0. -1.
    9900012    2    1    2    0    0  0.35659892009E+02  0.10611313250E+02 -0.16399273703E+02  0.50528879929E+02  0.30000061031E+02 0.  0.
        -12    1    1    2    0    0 -0.35659892009E+02 -0.10611313250E+02  0.16399273703E+02  0.40659120071E+02  0.00000000000E+00 0.  1.
         11    1    3    3    0    0  0.14313887887E+02  0.14547344744E+01  0.92331403747E-01  0.14387917298E+02  0.51100000000E-03 0. -1.
        -11    1    3    3    0    0  0.79591356710E+01  0.37504431948E-01  0.48713324555E+01  0.93316197611E+01  0.51100000000E-03 0.  1.
         12    1    3    3    0    0  0.13386868451E+02  0.91190743437E+01 -0.21362937562E+02  0.26809342870E+02  0.00000000000E+00 0. -1.
</event>
<event>
 7    1  0.5913457E-013  0.5052886E+02  0.7816164E-02  0.1300439E+00
        -11   -1    0    0    0    0  0.00000000000E+00  0.00000000000E+00  0.45593999997E+02  0.45594000000E+02  0.51100000000E-03 0.  1.
         11   -1    0    0    0    0 -0.00000000000E+00 -0.00000000000E+00 -0.45593999997E+02  0.45594000000E+02  0.51100000000E-03 0. -1.
    9900012    2    1    2    0    0  0.54152875097E+01  0.37734941650E+02 -0.14139106095E+02  0.50528862265E+02  0.30000007341E+02 0.  0.
        -12    1    1    2    0    0 -0.54152875097E+01 -0.37734941650E+02  0.14139106095E+02  0.40659137735E+02  0.00000000000E+00 0.  1.
         11    1    3    3    0    0  0.80655748716E+01  0.28677911280E+01 -0.76152574583E+01  0.11457306419E+02  0.51100000000E-03 0. -1.
        -11    1    3    3    0    0  0.22852188969E+01 -0.74266551062E+00  0.46725696706E+00  0.24478780202E+01  0.51100000000E-03 0.  1.
         12    1    3    3    0    0 -0.49355062588E+01  0.35609816033E+02 -0.69911056037E+01  0.36623677826E+02  0.00000000000E+00 0. -1.
</event>
<event>
 7    1  0.5913457E-013  0.5052885E+02  0.7816164E-02  0.1300439E+00
        -11   -1    0    0    0    0  0.00000000000E+00  0.00000000000E+00  0.45593999997E+02  0.45594000000E+02  0.51100000000E-03 0.  1.
         11   -1    0    0    0    0 -0.00000000000E+00 -0.00000000000E+00 -0.45593999997E+02  0.45594000000E+02  0.51100000000E-03 0. -1.
    9900012    2    1    2    0    0 -0.12812397751E+01 -0.18578212306E+02 -0.36143803826E+02  0.50528854622E+02  0.29999984108E+02 0.  0.
        -12    1    1    2    0    0  0.12812397751E+01  0.18578212306E+02  0.36143803826E+02  0.40659145378E+02  0.00000000000E+00 0.  1.
         11    1    3    3    0    0  0.12884758420E+02 -0.49162393781E+01 -0.14738387579E+02  0.20184312667E+02  0.51100000000E-03 0. -1.
        -11    1    3    3    0    0 -0.23663956478E+01 -0.79479554307E+01 -0.68575254954E+01  0.10760830826E+02  0.51100000000E-03 0.  1.
        -12    1    3    3    0    0 -0.11799602547E+02 -0.57140174974E+01 -0.14547890752E+02  0.19583711128E+02  0.00000000000E+00 0.  1.
</event>
<event>
 7    1  0.5913457E-013  0.5052886E+02  0.7816164E-02  0.1300439E+00
        -11   -1    0    0    0    0  0.00000000000E+00  0.00000000000E+00  0.45593999997E+02  0.45594000000E+02  0.51100000000E-03 0. -1.
         11   -1    0    0    0    0 -0.00000000000E+00 -0.00000000000E+00 -0.45593999997E+02  0.45594000000E+02  0.51100000000E-03 0.  1.
    9900012    2    1    2    0    0  0.29600827646E+02  0.27673031938E+02 -0.33406209069E+01  0.50528862749E+02  0.30000008811E+02 0.  0.
        -12    1    1    2    0    0 -0.29600827646E+02 -0.27673031938E+02  0.33406209069E+01  0.40659137251E+02  0.00000000000E+00 0.  1.
         11    1    3    3    0    0  0.31773502199E+01  0.30911089238E+01 -0.66899989015E+01  0.80253719142E+01  0.51100000000E-03 0.  1.
        -11    1    3    3    0    0  0.19522961371E+02  0.23977782090E+02 -0.53533693361E+01  0.31380545218E+02  0.51100000000E-03 0. -1.
         12    1    3    3    0    0  0.69005160553E+01  0.60414092362E+00  0.87027473307E+01  0.11122945616E+02  0.00000000000E+00 0. -1.
</event>
<event>
 7    1  0.5913457E-013  0.5052886E+02  0.7816164E-02  0.1300439E+00
        -11   -1    0    0    0    0  0.00000000000E+00  0.00000000000E+00  0.45593999997E+02  0.45594000000E+02  0.51100000000E-03 0. -1.
         11   -1    0    0    0    0 -0.00000000000E+00 -0.00000000000E+00 -0.45593999997E+02  0.45594000000E+02  0.51100000000E-03 0.  1.
    9900012    2    1    2    0    0  0.15744361978E+02 -0.92205199677E-01  0.37486958709E+02  0.50528861924E+02  0.30000006303E+02 0.  0.
        -12    1    1    2    0    0 -0.15744361978E+02  0.92205199677E-01 -0.37486958709E+02  0.40659138076E+02  0.00000000000E+00 0.  1.
         11    1    3    3    0    0  0.13858211728E+02 -0.78692603404E+01  0.27372224958E+02  0.31673553479E+02  0.51100000000E-03 0. -1.
        -11    1    3    3    0    0  0.36729542908E+01 -0.31274751680E+01  0.24787642907E+01  0.54236488473E+01  0.51100000000E-03 0.  1.
         12    1    3    3    0    0 -0.17868040406E+01  0.10904530309E+02  0.76359694600E+01  0.13431659597E+02  0.00000000000E+00 0. -1.
</event>
<event>
 7    1  0.5913457E-013  0.5052886E+02  0.7816164E-02  0.1300439E+00
        -11   -1    0    0    0    0  0.00000000000E+00  0.00000000000E+00  0.45593999997E+02  0.45594000000E+02  0.51100000000E-03 0.  1.
         11   -1    0    0    0    0 -0.00000000000E+00 -0.00000000000E+00 -0.45593999997E+02  0.45594000000E+02  0.51100000000E-03 0. -1.
    9900012    2    1    2    0    0 -0.11653137699E+02  0.37877775618E+02 -0.90908705385E+01  0.50528862883E+02  0.30000009219E+02 0.  0.
        -12    1    1    2    0    0  0.11653137699E+02 -0.37877775618E+02  0.90908705385E+01  0.40659137117E+02  0.00000000000E+00 0.  1.
         11    1    3    3    0    0 -0.25943060714E+01  0.16152481815E+02  0.47764139053E+01  0.17042512221E+02  0.51100000000E-03 0. -1.
        -11    1    3    3    0    0  0.18190581454E+01  0.12351999811E+02  0.13569515945E+01  0.12558749530E+02  0.51100000000E-03 0.  1.
         12    1    3    3    0    0 -0.10877889773E+02  0.93732939920E+01 -0.15224236038E+02  0.20927601132E+02  0.00000000000E+00 0. -1.
</event>
<event>
 7    1  0.5913457E-013  0.5052887E+02  0.7816164E-02  0.1300439E+00
        -11   -1    0    0    0    0  0.00000000000E+00  0.00000000000E+00  0.45593999997E+02  0.45594000000E+02  0.51100000000E-03 0. -1.
         11   -1    0    0    0    0 -0.00000000000E+00 -0.00000000000E+00 -0.45593999997E+02  0.45594000000E+02  0.51100000000E-03 0.  1.
    9900012    2    1    2    0    0  0.11353850279E+02 -0.25425865408E+02  0.29627363741E+02  0.50528865355E+02  0.30000016732E+02 0.  0.
        -12    1    1    2    0    0 -0.11353850279E+02  0.25425865408E+02 -0.29627363741E+02  0.40659134645E+02  0.00000000000E+00 0.  1.
         11    1    3    3    0    0 -0.81897768573E+01 -0.11284805929E+02  0.11512647213E+02  0.18082044573E+02  0.51100000000E-03 0. -1.
        -11    1    3    3    0    0  0.27038210552E+00 -0.13482493343E+01  0.63448956105E+01  0.64921940298E+01  0.51100000000E-03 0.  1.
        -12    1    3    3    0    0  0.19273245031E+02 -0.12792810144E+02  0.11769820918E+02  0.25954626752E+02  0.00000000000E+00 0.  1.
</event>
<event>
 7    1  0.5913457E-013  0.5052887E+02  0.7816164E-02  0.1300439E+00
        -11   -1    0    0    0    0  0.00000000000E+00  0.00000000000E+00  0.45593999997E+02  0.45594000000E+02  0.51100000000E-03 0.  1.
         11   -1    0    0    0    0 -0.00000000000E+00 -0.00000000000E+00 -0.45593999997E+02  0.45594000000E+02  0.51100000000E-03 0. -1.
    9900012    2    1    2    0    0 -0.33588722049E+02 -0.22549984557E+02 -0.40571984284E+01  0.50528869273E+02  0.30000028641E+02 0.  0.
        -12    1    1    2    0    0  0.33588722049E+02  0.22549984557E+02  0.40571984284E+01  0.40659130727E+02  0.00000000000E+00 0.  1.
         11    1    3    3    0    0 -0.20481871168E+02 -0.17315353362E+01  0.18653169595E+01  0.20639396037E+02  0.51100000000E-03 0. -1.
        -11    1    3    3    0    0 -0.11344482908E+02 -0.35487336566E+01 -0.32736374097E+01  0.12329132377E+02  0.51100000000E-03 0.  1.
        -12    1    3    3    0    0 -0.17623679740E+01 -0.17269715564E+02 -0.26488779782E+01  0.17560340859E+02  0.00000000000E+00 0.  1.
</event>
<event>
 7    1  0.5913457E-013  0.5052888E+02  0.7816164E-02  0.1300439E+00
        -11   -1    0    0    0    0  0.00000000000E+00  0.00000000000E+00  0.45593999997E+02  0.45594000000E+02  0.51100000000E-03 0.  1.
         11   -1    0    0    0    0 -0.00000000000E+00 -0.00000000000E+00 -0.45593999997E+02  0.45594000000E+02  0.51100000000E-03 0. -1.
    9900012    2    1    2    0    0  0.30835550968E+02  0.25514538397E+02 -0.71652922150E+01  0.50528876969E+02  0.30000052036E+02 0.  0.
        -12    1    1    2    0    0 -0.30835550968E+02 -0.25514538397E+02  0.71652922150E+01  0.40659123031E+02  0.00000000000E+00 0.  1.
         11    1    3    3    0    0  0.52714928288E+01 -0.34551112970E+00 -0.73561444037E+01  0.90565377123E+01  0.51100000000E-03 0. -1.
        -11    1    3    3    0    0  0.19083567778E+02  0.14285503128E+02  0.90747555651E+01  0.25507045058E+02  0.51100000000E-03 0.  1.
         12    1    3    3    0    0  0.64804903606E+01  0.11574546398E+02 -0.88839033764E+01  0.15965294198E+02  0.00000000000E+00 0. -1.
</event>
<event>
 7    1  0.5913457E-013  0.5052885E+02  0.7816164E-02  0.1300439E+00
        -11   -1    0    0    0    0  0.00000000000E+00  0.00000000000E+00  0.45593999997E+02  0.45594000000E+02  0.51100000000E-03 0.  1.
         11   -1    0    0    0    0 -0.00000000000E+00 -0.00000000000E+00 -0.45593999997E+02  0.45594000000E+02  0.51100000000E-03 0. -1.
    9900012    2    1    2    0    0  0.25831013356E+02  0.56854871987E+00 -0.31394298047E+02  0.50528850372E+02  0.29999971189E+02 0.  0.
        -12    1    1    2    0    0 -0.25831013356E+02 -0.56854871987E+00  0.31394298047E+02  0.40659149628E+02  0.00000000000E+00 0.  1.
         11    1    3    3    0    0  0.73589610369E+01  0.10879917414E+02 -0.50753499832E+01  0.14081409311E+02  0.51100000000E-03 0. -1.
        -11    1    3    3    0    0  0.67511457250E+01 -0.30353819935E+01 -0.80912271805E+00  0.74462199995E+01  0.51100000000E-03 0.  1.
         12    1    3    3    0    0  0.11720906594E+02 -0.72759867006E+01 -0.25509825346E+02  0.29001221061E+02  0.00000000000E+00 0. -1.
</event>
<event>
 7    1  0.5913457E-013  0.5052887E+02  0.7816164E-02  0.1300439E+00
        -11   -1    0    0    0    0  0.00000000000E+00  0.00000000000E+00  0.45593999997E+02  0.45594000000E+02  0.51100000000E-03 0.  1.
         11   -1    0    0    0    0 -0.00000000000E+00 -0.00000000000E+00 -0.45593999997E+02  0.45594000000E+02  0.51100000000E-03 0. -1.
    9900012    2    1    2    0    0 -0.81280572777E+01 -0.11577196488E+02 -0.38119134889E+02  0.50528865253E+02  0.30000016424E+02 0.  0.
        -12    1    1    2    0    0  0.81280572777E+01  0.11577196488E+02  0.38119134889E+02  0.40659134747E+02  0.00000000000E+00 0.  1.
         11    1    3    3    0    0  0.19951859033E+01  0.25419606765E+01  0.50044927597E+00  0.32699817443E+01  0.51100000000E-03 0. -1.
        -11    1    3    3    0    0 -0.89319923890E+01  0.39300082396E+00 -0.41838160501E+01  0.98711323913E+01  0.51100000000E-03 0.  1.
         12    1    3    3    0    0 -0.11912507920E+01 -0.14512157989E+02 -0.34435768115E+02  0.37387751118E+02  0.00000000000E+00 0. -1.
</event>
<event>
 7    1  0.5913457E-013  0.5052889E+02  0.7816164E-02  0.1300439E+00
        -11   -1    0    0    0    0  0.00000000000E+00  0.00000000000E+00  0.45593999997E+02  0.45594000000E+02  0.51100000000E-03 0.  1.
         11   -1    0    0    0    0 -0.00000000000E+00 -0.00000000000E+00 -0.45593999997E+02  0.45594000000E+02  0.51100000000E-03 0. -1.
    9900012    2    1    2    0    0 -0.31491902258E+02 -0.23139908317E+02  0.11223558834E+02  0.50528886167E+02  0.30000079993E+02 0.  0.
        -12    1    1    2    0    0  0.31491902258E+02  0.23139908317E+02 -0.11223558834E+02  0.40659113833E+02  0.00000000000E+00 0.  1.
         11    1    3    3    0    0 -0.16898017254E+02 -0.15450832371E+01 -0.12560717270E+01  0.17014934198E+02  0.51100000000E-03 0. -1.
        -11    1    3    3    0    0 -0.17537199596E+01 -0.18989099981E+01 -0.40279036568E+01  0.47859587344E+01  0.51100000000E-03 0.  1.
        -12    1    3    3    0    0 -0.12840165045E+02 -0.19695915082E+02  0.16507534218E+02  0.28727993234E+02  0.00000000000E+00 0.  1.
</event>
<event>
 7    1  0.5913457E-013  0.5052887E+02  0.7816164E-02  0.1300439E+00
        -11   -1    0    0    0    0  0.00000000000E+00  0.00000000000E+00  0.45593999997E+02  0.45594000000E+02  0.51100000000E-03 0. -1.
         11   -1    0    0    0    0 -0.00000000000E+00 -0.00000000000E+00 -0.45593999997E+02  0.45594000000E+02  0.51100000000E-03 0.  1.
    9900012    2    1    2    0    0 -0.10457087414E+02 -0.32811528721E+02  0.21615221363E+02  0.50528869553E+02  0.30000029492E+02 0.  0.
        -12    1    1    2    0    0  0.10457087414E+02  0.32811528721E+02 -0.21615221363E+02  0.40659130447E+02  0.00000000000E+00 0.  1.
         11    1    3    3    0    0 -0.57240516350E+01 -0.11447704761E+02  0.75210144644E+01  0.14845213715E+02  0.51100000000E-03 0. -1.
        -11    1    3    3    0    0 -0.11557630079E+02 -0.12119856551E+02  0.16966629277E+02  0.23839803798E+02  0.51100000000E-03 0.  1.
        -12    1    3    3    0    0  0.68245943000E+01 -0.92439674088E+01 -0.28724223780E+01  0.11843852039E+02  0.00000000000E+00 0.  1.
</event>
<event>
 7    1  0.5913457E-013  0.5052886E+02  0.7816164E-02  0.1300439E+00
        -11   -1    0    0    0    0  0.00000000000E+00  0.00000000000E+00  0.45593999997E+02  0.45594000000E+02  0.51100000000E-03 0.  1.
         11   -1    0    0    0    0 -0.00000000000E+00 -0.00000000000E+00 -0.45593999997E+02  0.45594000000E+02  0.51100000000E-03 0. -1.
    9900012    2    1    2    0    0 -0.38692276504E+02 -0.53908848102E+01 -0.11269958271E+02  0.50528857614E+02  0.29999993204E+02 0.  0.
        -12    1    1    2    0    0  0.38692276504E+02  0.53908848102E+01  0.11269958271E+02  0.40659142386E+02  0.00000000000E+00 0.  1.
         11    1    3    3    0    0 -0.24754945098E+02 -0.70796618116E+01 -0.43276654832E+01  0.26108573438E+02  0.51100000000E-03 0. -1.
        -11    1    3    3    0    0 -0.16757403099E+02  0.17774238963E+01  0.80837528816E-01  0.16851597233E+02  0.51100000000E-03 0.  1.
        -12    1    3    3    0    0  0.28200716920E+01 -0.88646894865E-01 -0.70231303161E+01  0.75686869441E+01  0.00000000000E+00 0.  1.
</event>
<event>
 7    1  0.5913457E-013  0.5052886E+02  0.7816164E-02  0.1300439E+00
        -11   -1    0    0    0    0  0.00000000000E+00  0.00000000000E+00  0.45593999997E+02  0.45594000000E+02  0.51100000000E-03 0.  1.
         11   -1    0    0    0    0 -0.00000000000E+00 -0.00000000000E+00 -0.45593999997E+02  0.45594000000E+02  0.51100000000E-03 0. -1.
    9900012    2    1    2    0    0  0.26879178263E+02  0.27213015565E+02 -0.13788658219E+02  0.50528861596E+02  0.30000005308E+02 0.  0.
        -12    1    1    2    0    0 -0.26879178263E+02 -0.27213015565E+02  0.13788658219E+02  0.40659138404E+02  0.00000000000E+00 0.  1.
         11    1    3    3    0    0  0.16464886549E+00  0.30336732302E+01 -0.72665620104E+01  0.78761161894E+01  0.51100000000E-03 0. -1.
        -11    1    3    3    0    0  0.63409589970E+01  0.16477626785E+01 -0.10128305283E+02  0.12062564032E+02  0.51100000000E-03 0.  1.
        -12    1    3    3    0    0  0.20373570400E+02  0.22531579656E+02  0.36062090746E+01  0.30590181375E+02  0.00000000000E+00 0.  1.
</event>
<event>
 7    1  0.5913457E-013  0.5052885E+02  0.7816164E-02  0.1300439E+00
        -11   -1    0    0    0    0  0.00000000000E+00  0.00000000000E+00  0.45593999997E+02  0.45594000000E+02  0.51100000000E-03 0.  1.
         11   -1    0    0    0    0 -0.00000000000E+00 -0.00000000000E+00 -0.45593999997E+02  0.45594000000E+02  0.51100000000E-03 0. -1.
    9900012    2    1    2    0    0 -0.34458958428E+02  0.53038432040E+01 -0.20919263262E+02  0.50528854115E+02  0.29999982567E+02 0.  0.
        -12    1    1    2    0    0  0.34458958428E+02 -0.53038432040E+01  0.20919263262E+02  0.40659145885E+02  0.00000000000E+00 0.  1.
         11    1    3    3    0    0 -0.43973014771E+01  0.49217292275E+01 -0.61073811456E+01  0.89922068252E+01  0.51100000000E-03 0. -1.
        -11    1    3    3    0    0 -0.77046829217E+01  0.39413737152E+01  0.62029797920E+01  0.10647700421E+02  0.51100000000E-03 0.  1.
         12    1    3    3    0    0 -0.22356974030E+02 -0.35592597387E+01 -0.21014861908E+02  0.30888946869E+02  0.00000000000E+00 0. -1.
</event>
<event>
 7    1  0.5913457E-013  0.5052886E+02  0.7816164E-02  0.1300439E+00
        -11   -1    0    0    0    0  0.00000000000E+00  0.00000000000E+00  0.45593999997E+02  0.45594000000E+02  0.51100000000E-03 0.  1.
         11   -1    0    0    0    0 -0.00000000000E+00 -0.00000000000E+00 -0.45593999997E+02  0.45594000000E+02  0.51100000000E-03 0. -1.
    9900012    2    1    2    0    0 -0.35527158395E+02  0.10159828415E+01 -0.19747270130E+02  0.50528857334E+02  0.29999992353E+02 0.  0.
        -12    1    1    2    0    0  0.35527158395E+02 -0.10159828415E+01  0.19747270130E+02  0.40659142666E+02  0.00000000000E+00 0.  1.
         11    1    3    3    0    0 -0.53278058816E+01 -0.42663423872E+01  0.77051527909E+00  0.68688344669E+01  0.51100000000E-03 0. -1.
        -11    1    3    3    0    0 -0.17324350946E+02 -0.64789886793E+01 -0.26362326440E+01  0.18683151576E+02  0.51100000000E-03 0.  1.
        -12    1    3    3    0    0 -0.12875001567E+02  0.11761313908E+02 -0.17881552765E+02  0.24976871291E+02  0.00000000000E+00 0.  1.
</event>
<event>
 7    1  0.5913457E-013  0.5052886E+02  0.7816164E-02  0.1300439E+00
        -11   -1    0    0    0    0  0.00000000000E+00  0.00000000000E+00  0.45593999997E+02  0.45594000000E+02  0.51100000000E-03 0. -1.
         11   -1    0    0    0    0 -0.00000000000E+00 -0.00000000000E+00 -0.45593999997E+02  0.45594000000E+02  0.51100000000E-03 0.  1.
    9900012    2    1    2    0    0  0.23556213394E+02  0.22530447346E+02  0.24303277198E+02  0.50528861671E+02  0.30000005536E+02 0.  0.
        -12    1    1    2    0    0 -0.23556213394E+02 -0.22530447346E+02 -0.24303277198E+02  0.40659138329E+02  0.00000000000E+00 0.  1.
         11    1    3    3    0    0  0.83891789149E+01  0.61105078134E+01  0.19544357482E+02  0.22129133247E+02  0.51100000000E-03 0. -1.
        -11    1    3    3    0    0  0.90665408080E+01  0.15895934966E+02  0.95344619353E+01  0.20634652294E+02  0.51100000000E-03 0.  1.
        -12    1    3    3    0    0  0.61004936708E+01  0.52400456749E+00 -0.47755422198E+01  0.77650761301E+01  0.00000000000E+00 0.  1.
</event>
<event>
 7    1  0.5913457E-013  0.5052894E+02  0.7816164E-02  0.1300439E+00
        -11   -1    0    0    0    0  0.00000000000E+00  0.00000000000E+00  0.45593999997E+02  0.45594000000E+02  0.51100000000E-03 0. -1.
         11   -1    0    0    0    0 -0.00000000000E+00 -0.00000000000E+00 -0.45593999997E+02  0.45594000000E+02  0.51100000000E-03 0.  1.
    9900012    2    1    2    0    0  0.28901929436E+01  0.95226109674E+01  0.39422403132E+02  0.50528939465E+02  0.30000241995E+02 0.  0.
        -12    1    1    2    0    0 -0.28901929436E+01 -0.95226109674E+01 -0.39422403132E+02  0.40659060535E+02  0.00000000000E+00 0.  1.
         11    1    3    3    0    0  0.13270306645E+02  0.20710598095E+01  0.27150790438E+02  0.30291182692E+02  0.51100000000E-03 0. -1.
        -11    1    3    3    0    0 -0.27362212123E+01  0.50690963456E+01  0.21458533832E+00  0.57644333123E+01  0.51100000000E-03 0.  1.
        -12    1    3    3    0    0 -0.76438924895E+01  0.23824548122E+01  0.12057027356E+02  0.14473323460E+02  0.00000000000E+00 0.  1.
</event>
<event>
 7    1  0.5913457E-013  0.5052886E+02  0.7816164E-02  0.1300439E+00
        -11   -1    0    0    0    0  0.00000000000E+00  0.00000000000E+00  0.45593999997E+02  0.45594000000E+02  0.51100000000E-03 0.  1.
         11   -1    0    0    0    0 -0.00000000000E+00 -0.00000000000E+00 -0.45593999997E+02  0.45594000000E+02  0.51100000000E-03 0. -1.
    9900012    2    1    2    0    0 -0.40179624274E+02  0.34355954796E+01 -0.51923428161E+01  0.50528856539E+02  0.29999989935E+02 0.  0.
        -12    1    1    2    0    0  0.40179624274E+02 -0.34355954796E+01  0.51923428161E+01  0.40659143461E+02  0.00000000000E+00 0.  1.
         11    1    3    3    0    0 -0.72627372455E+01 -0.23250870686E+01  0.55891727469E+01  0.94547466613E+01  0.51100000000E-03 0. -1.
        -11    1    3    3    0    0 -0.37784454799E+01  0.94554772171E-01  0.59127063611E+01  0.70175271730E+01  0.51100000000E-03 0.  1.
         12    1    3    3    0    0 -0.29138441548E+02  0.56661277760E+01 -0.16694221924E+02  0.34056582704E+02  0.00000000000E+00 0. -1.
</event>
<event>
 7    1  0.5913457E-013  0.5052886E+02  0.7816164E-02  0.1300439E+00
        -11   -1    0    0    0    0  0.00000000000E+00  0.00000000000E+00  0.45593999997E+02  0.45594000000E+02  0.51100000000E-03 0. -1.
         11   -1    0    0    0    0 -0.00000000000E+00 -0.00000000000E+00 -0.45593999997E+02  0.45594000000E+02  0.51100000000E-03 0.  1.
    9900012    2    1    2    0    0  0.33061584752E+02 -0.20543900063E+02  0.11749287784E+02  0.50528856138E+02  0.29999988718E+02 0.  0.
        -12    1    1    2    0    0 -0.33061584752E+02  0.20543900063E+02 -0.11749287784E+02  0.40659143862E+02  0.00000000000E+00 0.  1.
         11    1    3    3    0    0  0.93106616306E+01 -0.66545669305E+01  0.31660353485E+01  0.11874150964E+02  0.51100000000E-03 0. -1.
        -11    1    3    3    0    0  0.22140316404E+02 -0.15883052878E+02  0.15451145202E+02  0.31324157890E+02  0.51100000000E-03 0.  1.
        -12    1    3    3    0    0  0.16106067180E+01  0.19937197455E+01 -0.68678927671E+01  0.73305472841E+01  0.00000000000E+00 0.  1.
</event>
<event>
 7    1  0.5913457E-013  0.5052886E+02  0.7816164E-02  0.1300439E+00
        -11   -1    0    0    0    0  0.00000000000E+00  0.00000000000E+00  0.45593999997E+02  0.45594000000E+02  0.51100000000E-03 0.  1.
         11   -1    0    0    0    0 -0.00000000000E+00 -0.00000000000E+00 -0.45593999997E+02  0.45594000000E+02  0.51100000000E-03 0. -1.
    9900012    2    1    2    0    0 -0.25028681209E+02  0.25589577638E+01 -0.31940290788E+02  0.50528864206E+02  0.30000013241E+02 0.  0.
        -12    1    1    2    0    0  0.25028681209E+02 -0.25589577638E+01  0.31940290788E+02  0.40659135794E+02  0.00000000000E+00 0.  1.
         11    1    3    3    0    0  0.25605784804E+01  0.23800432009E+01 -0.24635103250E+01  0.42766869391E+01  0.51100000000E-03 0. -1.
        -11    1    3    3    0    0 -0.25701306060E+01 -0.44809119216E+01  0.22033657166E+01  0.56159561718E+01  0.51100000000E-03 0.  1.
         12    1    3    3    0    0 -0.25019129083E+02  0.46598264846E+01 -0.31680146180E+02  0.40636221095E+02  0.00000000000E+00 0. -1.
</event>
<event>
 7    1  0.5913457E-013  0.5052886E+02  0.7816164E-02  0.1300439E+00
        -11   -1    0    0    0    0  0.00000000000E+00  0.00000000000E+00  0.45593999997E+02  0.45594000000E+02  0.51100000000E-03 0.  1.
         11   -1    0    0    0    0 -0.00000000000E+00 -0.00000000000E+00 -0.45593999997E+02  0.45594000000E+02  0.51100000000E-03 0. -1.
    9900012    2    1    2    0    0 -0.25603223506E+02  0.13179349909E+02 -0.28704441539E+02  0.50528864717E+02  0.30000014793E+02 0.  0.
        -12    1    1    2    0    0  0.25603223506E+02 -0.13179349909E+02  0.28704441539E+02  0.40659135283E+02  0.00000000000E+00 0.  1.
         11    1    3    3    0    0 -0.20207163550E+02  0.52828363730E+01 -0.17758329174E+02  0.27415252583E+02  0.51100000000E-03 0. -1.
        -11    1    3    3    0    0 -0.60656208317E+01  0.13454750921E+02 -0.78985767276E+01  0.16739462148E+02  0.51100000000E-03 0.  1.
        -12    1    3    3    0    0  0.66956087546E+00 -0.55582373846E+01 -0.30475356373E+01  0.63741499865E+01  0.00000000000E+00 0.  1.
</event>
<event>
 7    1  0.5913457E-013  0.5052887E+02  0.7816164E-02  0.1300439E+00
        -11   -1    0    0    0    0  0.00000000000E+00  0.00000000000E+00  0.45593999997E+02  0.45594000000E+02  0.51100000000E-03 0.  1.
         11   -1    0    0    0    0 -0.00000000000E+00 -0.00000000000E+00 -0.45593999997E+02  0.45594000000E+02  0.51100000000E-03 0. -1.
    9900012    2    1    2    0    0  0.35513268575E+02 -0.46201466772E+01 -0.19251662122E+02  0.50528874399E+02  0.30000044222E+02 0.  0.
        -12    1    1    2    0    0 -0.35513268575E+02  0.46201466772E+01  0.19251662122E+02  0.40659125601E+02  0.00000000000E+00 0.  1.
         11    1    3    3    0    0  0.75724488855E+01  0.65772964319E+01  0.33197773252E+01  0.10565213307E+02  0.51100000000E-03 0. -1.
        -11    1    3    3    0    0  0.68523882958E+01 -0.62136024875E+01 -0.13740452467E+02  0.16563940216E+02  0.51100000000E-03 0.  1.
        -12    1    3    3    0    0  0.21088431394E+02 -0.49838406215E+01 -0.88309869806E+01  0.23399720875E+02  0.00000000000E+00 0.  1.
</event>
<event>
 7    1  0.5913457E-013  0.5052895E+02  0.7816164E-02  0.1300438E+00
        -11   -1    0    0    0    0  0.00000000000E+00  0.00000000000E+00  0.45593999997E+02  0.45594000000E+02  0.51100000000E-03 0. -1.
         11   -1    0    0    0    0 -0.00000000000E+00 -0.00000000000E+00 -0.45593999997E+02  0.45594000000E+02  0.51100000000E-03 0.  1.
    9900012    2    1    2    0    0 -0.33713658646E+02  0.12463675719E+02  0.19005382872E+02  0.50528947259E+02  0.30000265686E+02 0.  0.
        -12    1    1    2    0    0  0.33713658646E+02 -0.12463675719E+02 -0.19005382872E+02  0.40659052741E+02  0.00000000000E+00 0.  1.
         11    1    3    3    0    0 -0.20209559016E+02  0.11119201321E+02  0.11547066988E+02  0.25795303253E+02  0.51100000000E-03 0. -1.
        -11    1    3    3    0    0 -0.17806916874E+02  0.21770723473E+01  0.90220173961E+01  0.20080406637E+02  0.51100000000E-03 0.  1.
         12    1    3    3    0    0  0.43028172442E+01 -0.83259794941E+00 -0.15637015123E+01  0.46532373679E+01  0.00000000000E+00 0. -1.
</event>
<event>
 7    1  0.5913457E-013  0.5052886E+02  0.7816164E-02  0.1300439E+00
        -11   -1    0    0    0    0  0.00000000000E+00  0.00000000000E+00  0.45593999997E+02  0.45594000000E+02  0.51100000000E-03 0.  1.
         11   -1    0    0    0    0 -0.00000000000E+00 -0.00000000000E+00 -0.45593999997E+02  0.45594000000E+02  0.51100000000E-03 0. -1.
    9900012    2    1    2    0    0  0.18740770696E+02 -0.27189209468E+02  0.23721213473E+02  0.50528861219E+02  0.30000004161E+02 0.  0.
        -12    1    1    2    0    0 -0.18740770696E+02  0.27189209468E+02 -0.23721213473E+02  0.40659138781E+02  0.00000000000E+00 0.  1.
         11    1    3    3    0    0 -0.16892097889E+01  0.12838785144E+01  0.19562089753E+01  0.28859188427E+01  0.51100000000E-03 0. -1.
        -11    1    3    3    0    0  0.70251202116E+01 -0.59354485018E+01  0.19207430857E+02  0.21295709974E+02  0.51100000000E-03 0.  1.
         12    1    3    3    0    0  0.13404860273E+02 -0.22537639481E+02  0.25575736402E+01  0.26347232402E+02  0.00000000000E+00 0. -1.
</event>
<event>
 7    1  0.5913457E-013  0.5052885E+02  0.7816164E-02  0.1300439E+00
        -11   -1    0    0    0    0  0.00000000000E+00  0.00000000000E+00  0.45593999997E+02  0.45594000000E+02  0.51100000000E-03 0.  1.
         11   -1    0    0    0    0 -0.00000000000E+00 -0.00000000000E+00 -0.45593999997E+02  0.45594000000E+02  0.51100000000E-03 0. -1.
    9900012    2    1    2    0    0  0.39707132752E+02 -0.10083878380E+01 -0.86886742053E+01  0.50528852237E+02  0.29999976859E+02 0.  0.
        -12    1    1    2    0    0 -0.39707132752E+02  0.10083878380E+01  0.86886742053E+01  0.40659147763E+02  0.00000000000E+00 0.  1.
         11    1    3    3    0    0  0.30174273286E+01 -0.55987483458E+01  0.35428040816E+01  0.72802686588E+01  0.51100000000E-03 0.  1.
        -11    1    3    3    0    0  0.31601118177E+02 -0.15970740722E+01 -0.42247389001E+01  0.31922245138E+02  0.51100000000E-03 0. -1.
        -12    1    3    3    0    0  0.50885872459E+01  0.61874345800E+01 -0.80067393867E+01  0.11326338440E+02  0.00000000000E+00 0.  1.
</event>
<event>
 7    1  0.5913457E-013  0.5052888E+02  0.7816164E-02  0.1300439E+00
        -11   -1    0    0    0    0  0.00000000000E+00  0.00000000000E+00  0.45593999997E+02  0.45594000000E+02  0.51100000000E-03 0.  1.
         11   -1    0    0    0    0 -0.00000000000E+00 -0.00000000000E+00 -0.45593999997E+02  0.45594000000E+02  0.51100000000E-03 0. -1.
    9900012    2    1    2    0    0 -0.60611936225E+01 -0.85371286323E+01 -0.39287956129E+02  0.50528878880E+02  0.30000057845E+02 0.  0.
        -12    1    1    2    0    0  0.60611936225E+01  0.85371286323E+01  0.39287956129E+02  0.40659121120E+02  0.00000000000E+00 0.  1.
         11    1    3    3    0    0  0.89887773269E+00 -0.77172977183E+01 -0.11353570226E+02  0.13757478780E+02  0.51100000000E-03 0. -1.
        -11    1    3    3    0    0  0.19754394294E+01  0.49072975995E+01  0.14863595333E+01  0.54948335364E+01  0.51100000000E-03 0.  1.
         12    1    3    3    0    0 -0.89355107846E+01 -0.57271285135E+01 -0.29420745436E+02  0.31276566564E+02  0.00000000000E+00 0. -1.
</event>
<event>
 7    1  0.5913457E-013  0.5052885E+02  0.7816164E-02  0.1300439E+00
        -11   -1    0    0    0    0  0.00000000000E+00  0.00000000000E+00  0.45593999997E+02  0.45594000000E+02  0.51100000000E-03 0. -1.
         11   -1    0    0    0    0 -0.00000000000E+00 -0.00000000000E+00 -0.45593999997E+02  0.45594000000E+02  0.51100000000E-03 0.  1.
    9900012    2    1    2    0    0  0.25195385098E+02 -0.26872736805E+02  0.17210896747E+02  0.50528851209E+02  0.29999973734E+02 0.  0.
        -12    1    1    2    0    0 -0.25195385098E+02  0.26872736805E+02 -0.17210896747E+02  0.40659148791E+02  0.00000000000E+00 0.  1.
         11    1    3    3    0    0  0.11211389622E+02 -0.75263752618E+01  0.85676806615E+01  0.15992083480E+02  0.51100000000E-03 0. -1.
        -11    1    3    3    0    0  0.17347354294E+02 -0.44925102784E+01  0.69214059887E+01  0.19209872741E+02  0.51100000000E-03 0.  1.
        -12    1    3    3    0    0 -0.33633588191E+01 -0.14853851265E+02  0.17218100966E+01  0.15326894987E+02  0.00000000000E+00 0.  1.
</event>
<event>
 7    1  0.5913457E-013  0.5052886E+02  0.7816164E-02  0.1300439E+00
        -11   -1    0    0    0    0  0.00000000000E+00  0.00000000000E+00  0.45593999997E+02  0.45594000000E+02  0.51100000000E-03 0. -1.
         11   -1    0    0    0    0 -0.00000000000E+00 -0.00000000000E+00 -0.45593999997E+02  0.45594000000E+02  0.51100000000E-03 0.  1.
    9900012    2    1    2    0    0  0.26164525140E+02  0.28002850589E+02  0.13580266523E+02  0.50528860120E+02  0.30000000821E+02 0.  0.
        -12    1    1    2    0    0 -0.26164525140E+02 -0.28002850589E+02 -0.13580266523E+02  0.40659139880E+02  0.00000000000E+00 0.  1.
         11    1    3    3    0    0  0.16755897887E+01  0.48248861477E+01  0.72404417477E+00  0.51586207175E+01  0.51100000000E-03 0. -1.
        -11    1    3    3    0    0  0.18324404783E+02  0.93141128169E+01 -0.57664193752E+01  0.21349194385E+02  0.51100000000E-03 0.  1.
        -12    1    3    3    0    0  0.61645305689E+01  0.13863851625E+02  0.18622641723E+02  0.24021045018E+02  0.00000000000E+00 0.  1.
</event>
<event>
 7    1  0.5913457E-013  0.5052894E+02  0.7816164E-02  0.1300439E+00
        -11   -1    0    0    0    0  0.00000000000E+00  0.00000000000E+00  0.45593999997E+02  0.45594000000E+02  0.51100000000E-03 0. -1.
         11   -1    0    0    0    0 -0.00000000000E+00 -0.00000000000E+00 -0.45593999997E+02  0.45594000000E+02  0.51100000000E-03 0.  1.
    9900012    2    1    2    0    0  0.17962201124E+02 -0.32621943105E+02  0.16319543298E+02  0.50528937854E+02  0.30000237099E+02 0.  0.
        -12    1    1    2    0    0 -0.17962201124E+02  0.32621943105E+02 -0.16319543298E+02  0.40659062146E+02  0.00000000000E+00 0.  1.
         11    1    3    3    0    0  0.11032061937E+02 -0.18313361671E+02 -0.37612245138E+01  0.21707888344E+02  0.51100000000E-03 0. -1.
        -11    1    3    3    0    0  0.20379891980E+01 -0.10412413999E+02  0.36172172516E+01  0.11209639877E+02  0.51100000000E-03 0.  1.
         12    1    3    3    0    0  0.48921499895E+01 -0.38961674346E+01  0.16463550560E+02  0.17611409633E+02  0.00000000000E+00 0. -1.
</event>
<event>
 7    1  0.5913457E-013  0.5052886E+02  0.7816164E-02  0.1300439E+00
        -11   -1    0    0    0    0  0.00000000000E+00  0.00000000000E+00  0.45593999997E+02  0.45594000000E+02  0.51100000000E-03 0.  1.
         11   -1    0    0    0    0 -0.00000000000E+00 -0.00000000000E+00 -0.45593999997E+02  0.45594000000E+02  0.51100000000E-03 0. -1.
    9900012    2    1    2    0    0 -0.16160055217E+02  0.19725917628E+02 -0.31668701813E+02  0.50528857297E+02  0.29999992239E+02 0.  0.
        -12    1    1    2    0    0  0.16160055217E+02 -0.19725917628E+02  0.31668701813E+02  0.40659142703E+02  0.00000000000E+00 0.  1.
         11    1    3    3    0    0 -0.17741549034E+01  0.16174149945E+02 -0.21265626743E+02  0.26776438022E+02  0.51100000000E-03 0. -1.
        -11    1    3    3    0    0 -0.72247124266E+01  0.82379270807E+01 -0.10525117441E+02  0.15193354127E+02  0.51100000000E-03 0.  1.
        -12    1    3    3    0    0 -0.71611878871E+01 -0.46861593981E+01  0.12204237169E+00  0.85590651475E+01  0.00000000000E+00 0.  1.
</event>
<event>
 7    1  0.5913457E-013  0.5052886E+02  0.7816164E-02  0.1300439E+00
        -11   -1    0    0    0    0  0.00000000000E+00  0.00000000000E+00  0.45593999997E+02  0.45594000000E+02  0.51100000000E-03 0.  1.
         11   -1    0    0    0    0 -0.00000000000E+00 -0.00000000000E+00 -0.45593999997E+02  0.45594000000E+02  0.51100000000E-03 0. -1.
    9900012    2    1    2    0    0 -0.29882853759E+02 -0.86256280710E+00 -0.27557877126E+02  0.50528861358E+02  0.30000004585E+02 0.  0.
        -12    1    1    2    0    0  0.29882853759E+02  0.86256280710E+00  0.27557877126E+02  0.40659138642E+02  0.00000000000E+00 0.  1.
         11    1    3    3    0    0 -0.89785422685E+01  0.44808461056E+01 -0.14502526995E+02  0.17635631335E+02  0.51100000000E-03 0. -1.
        -11    1    3    3    0    0 -0.18645684630E+02 -0.15532881087E+01 -0.18209461173E+02  0.26108595055E+02  0.51100000000E-03 0.  1.
        -12    1    3    3    0    0 -0.22586268612E+01 -0.37901208040E+01  0.51541110429E+01  0.67846349680E+01  0.00000000000E+00 0.  1.
</event>
<event>
 7    1  0.5913457E-013  0.5052886E+02  0.7816164E-02  0.1300439E+00
        -11   -1    0    0    0    0  0.00000000000E+00  0.00000000000E+00  0.45593999997E+02  0.45594000000E+02  0.51100000000E-03 0.  1.
         11   -1    0    0    0    0 -0.00000000000E+00 -0.00000000000E+00 -0.45593999997E+02  0.45594000000E+02  0.51100000000E-03 0. -1.
    9900012    2    1    2    0    0  0.37960352280E+02 -0.43962190958E+01 -0.13887061387E+02  0.50528861279E+02  0.30000004344E+02 0.  0.
        -12    1    1    2    0    0 -0.37960352280E+02  0.43962190958E+01  0.13887061387E+02  0.40659138721E+02  0.00000000000E+00 0.  1.
         11    1    3    3    0    0  0.26314129060E+02  0.58642787217E+01 -0.68678474946E+01  0.27820684438E+02  0.51100000000E-03 0. -1.
        -11    1    3    3    0    0  0.46936647309E+01 -0.47385993995E+01  0.45874495556E+01  0.80950297443E+01  0.51100000000E-03 0.  1.
         12    1    3    3    0    0  0.69525584891E+01 -0.55218984180E+01 -0.11606663448E+02  0.14613147097E+02  0.00000000000E+00 0. -1.
</event>
<event>
 7    1  0.5913457E-013  0.5052886E+02  0.7816164E-02  0.1300439E+00
        -11   -1    0    0    0    0  0.00000000000E+00  0.00000000000E+00  0.45593999997E+02  0.45594000000E+02  0.51100000000E-03 0.  1.
         11   -1    0    0    0    0 -0.00000000000E+00 -0.00000000000E+00 -0.45593999997E+02  0.45594000000E+02  0.51100000000E-03 0. -1.
    9900012    2    1    2    0    0 -0.12301904199E+02  0.30397170209E+02 -0.24038318733E+02  0.50528861161E+02  0.30000003985E+02 0.  0.
        -12    1    1    2    0    0  0.12301904199E+02 -0.30397170209E+02  0.24038318733E+02  0.40659138839E+02  0.00000000000E+00 0.  1.
         11    1    3    3    0    0 -0.56128046257E+01 -0.11977317216E+01  0.17000361171E+01  0.59856712325E+01  0.51100000000E-03 0. -1.
        -11    1    3    3    0    0  0.68903188880E+00 -0.64289149184E+00  0.14508559310E+01  0.17300455507E+01  0.51100000000E-03 0.  1.
         12    1    3    3    0    0 -0.73781314618E+01  0.32237793423E+02 -0.27189210781E+02  0.42813144378E+02  0.00000000000E+00 0. -1.
</event>
<event>
 7    1  0.5913457E-013  0.5052886E+02  0.7816164E-02  0.1300439E+00
        -11   -1    0    0    0    0  0.00000000000E+00  0.00000000000E+00  0.45593999997E+02  0.45594000000E+02  0.51100000000E-03 0. -1.
         11   -1    0    0    0    0 -0.00000000000E+00 -0.00000000000E+00 -0.45593999997E+02  0.45594000000E+02  0.51100000000E-03 0.  1.
    9900012    2    1    2    0    0 -0.37087913631E+02  0.10112340867E+00  0.16662595007E+02  0.50528860366E+02  0.30000001567E+02 0.  0.
        -12    1    1    2    0    0  0.37087913631E+02 -0.10112340867E+00 -0.16662595007E+02  0.40659139634E+02  0.00000000000E+00 0.  1.
         11    1    3    3    0    0  0.12464327428E+01  0.30482006438E+01  0.72830312627E+00  0.33727655495E+01  0.51100000000E-03 0. -1.
        -11    1    3    3    0    0 -0.82902047506E+01  0.18820024611E+01 -0.53290217563E+01  0.10033339484E+02  0.51100000000E-03 0.  1.
         12    1    3    3    0    0 -0.30044141623E+02 -0.48290796963E+01  0.21263313637E+02  0.37122755332E+02  0.00000000000E+00 0. -1.
</event>
<event>
 7    1  0.5913457E-013  0.5052885E+02  0.7816164E-02  0.1300439E+00
        -11   -1    0    0    0    0  0.00000000000E+00  0.00000000000E+00  0.45593999997E+02  0.45594000000E+02  0.51100000000E-03 0.  1.
         11   -1    0    0    0    0 -0.00000000000E+00 -0.00000000000E+00 -0.45593999997E+02  0.45594000000E+02  0.51100000000E-03 0. -1.
    9900012    2    1    2    0    0 -0.18371621767E+02 -0.31496197469E+02 -0.17989978575E+02  0.50528852561E+02  0.29999977843E+02 0.  0.
        -12    1    1    2    0    0  0.18371621767E+02  0.31496197469E+02  0.17989978575E+02  0.40659147439E+02  0.00000000000E+00 0.  1.
         11    1    3    3    0    0 -0.43385109939E+01 -0.85070353784E+01  0.41197885862E+01  0.10400239749E+02  0.51100000000E-03 0. -1.
        -11    1    3    3    0    0 -0.20351364866E+01 -0.17355030451E+02 -0.44208920127E+01  0.18024515220E+02  0.51100000000E-03 0.  1.
        -12    1    3    3    0    0 -0.11997974287E+02 -0.56341316397E+01 -0.17688875148E+02  0.22104097592E+02  0.00000000000E+00 0.  1.
</event>
<event>
 7    1  0.5913457E-013  0.5052887E+02  0.7816164E-02  0.1300439E+00
        -11   -1    0    0    0    0  0.00000000000E+00  0.00000000000E+00  0.45593999997E+02  0.45594000000E+02  0.51100000000E-03 0.  1.
         11   -1    0    0    0    0 -0.00000000000E+00 -0.00000000000E+00 -0.45593999997E+02  0.45594000000E+02  0.51100000000E-03 0. -1.
    9900012    2    1    2    0    0  0.89011836775E+01  0.39016600350E+02 -0.71860258225E+01  0.50528866452E+02  0.30000020069E+02 0.  0.
        -12    1    1    2    0    0 -0.89011836775E+01 -0.39016600350E+02  0.71860258225E+01  0.40659133548E+02  0.00000000000E+00 0.  1.
         11    1    3    3    0    0  0.55124583716E+00  0.10339062495E+02  0.38652390504E+01  0.11051703870E+02  0.51100000000E-03 0. -1.
        -11    1    3    3    0    0 -0.62435697011E+01  0.11981348499E+02  0.21342967879E+01  0.13678088226E+02  0.51100000000E-03 0.  1.
         12    1    3    3    0    0  0.14593507541E+02  0.16696189356E+02 -0.13185561661E+02  0.25799074357E+02  0.00000000000E+00 0. -1.
</event>
<event>
 7    1  0.5913457E-013  0.5052886E+02  0.7816164E-02  0.1300439E+00
        -11   -1    0    0    0    0  0.00000000000E+00  0.00000000000E+00  0.45593999997E+02  0.45594000000E+02  0.51100000000E-03 0. -1.
         11   -1    0    0    0    0 -0.00000000000E+00 -0.00000000000E+00 -0.45593999997E+02  0.45594000000E+02  0.51100000000E-03 0.  1.
    9900012    2    1    2    0    0 -0.26796832351E+02 -0.23470756513E+02  0.19601501621E+02  0.50528862022E+02  0.30000006602E+02 0.  0.
        -12    1    1    2    0    0  0.26796832351E+02  0.23470756513E+02 -0.19601501621E+02  0.40659137978E+02  0.00000000000E+00 0.  1.
         11    1    3    3    0    0 -0.11872801171E+02 -0.49181838299E+01  0.12484642948E+02  0.17916982158E+02  0.51100000000E-03 0. -1.
        -11    1    3    3    0    0 -0.37353047417E+01 -0.34074238289E+00 -0.63312963697E+01  0.73589347644E+01  0.51100000000E-03 0.  1.
         12    1    3    3    0    0 -0.11188726438E+02 -0.18211830300E+02  0.13448155043E+02  0.25252945100E+02  0.00000000000E+00 0. -1.
</event>
<event>
 7    1  0.5913457E-013  0.5052887E+02  0.7816164E-02  0.1300439E+00
        -11   -1    0    0    0    0  0.00000000000E+00  0.00000000000E+00  0.45593999997E+02  0.45594000000E+02  0.51100000000E-03 0. -1.
         11   -1    0    0    0    0 -0.00000000000E+00 -0.00000000000E+00 -0.45593999997E+02  0.45594000000E+02  0.51100000000E-03 0.  1.
    9900012    2    1    2    0    0  0.18135527077E+02  0.32640533744E+02 -0.16089229270E+02  0.50528867152E+02  0.30000022195E+02 0.  0.
        -12    1    1    2    0    0 -0.18135527077E+02 -0.32640533744E+02  0.16089229270E+02  0.40659132848E+02  0.00000000000E+00 0.  1.
         11    1    3    3    0    0  0.10255864349E+02  0.10648703648E+02  0.20623662253E+01  0.14927524833E+02  0.51100000000E-03 0. -1.
        -11    1    3    3    0    0 -0.49451228866E+01  0.72036355368E+01 -0.12455736978E+02  0.15214860802E+02  0.51100000000E-03 0.  1.
         12    1    3    3    0    0  0.12824785615E+02  0.14788194559E+02 -0.56958585172E+01  0.20386481517E+02  0.00000000000E+00 0. -1.
</event>
<event>
 7    1  0.5913457E-013  0.5052891E+02  0.7816164E-02  0.1300439E+00
        -11   -1    0    0    0    0  0.00000000000E+00  0.00000000000E+00  0.45593999997E+02  0.45594000000E+02  0.51100000000E-03 0. -1.
         11   -1    0    0    0    0 -0.00000000000E+00 -0.00000000000E+00 -0.45593999997E+02  0.45594000000E+02  0.51100000000E-03 0.  1.
    9900012    2    1    2    0    0  0.16207312047E+02  0.29408418547E+02  0.22926614282E+02  0.50528908918E+02  0.30000149145E+02 0.  0.
        -12    1    1    2    0    0 -0.16207312047E+02 -0.29408418547E+02 -0.22926614282E+02  0.40659091082E+02  0.00000000000E+00 0.  1.
         11    1    3    3    0    0  0.65474761283E+01  0.70559243637E+01  0.19134228300E+02  0.21419015037E+02  0.51100000000E-03 0. -1.
        -11    1    3    3    0    0 -0.11322989209E+00 -0.91567349251E+00  0.37610752524E+01  0.38725916733E+01  0.51100000000E-03 0.  1.
        -12    1    3    3    0    0  0.97730658110E+01  0.23268167676E+02  0.31310729731E-01  0.25237302207E+02  0.00000000000E+00 0.  1.
</event>
<event>
 7    1  0.5913457E-013  0.5052886E+02  0.7816164E-02  0.1300439E+00
        -11   -1    0    0    0    0  0.00000000000E+00  0.00000000000E+00  0.45593999997E+02  0.45594000000E+02  0.51100000000E-03 0. -1.
         11   -1    0    0    0    0 -0.00000000000E+00 -0.00000000000E+00 -0.45593999997E+02  0.45594000000E+02  0.51100000000E-03 0.  1.
    9900012    2    1    2    0    0  0.39173674601E+02 -0.33193967540E+01  0.10371609939E+02  0.50528862413E+02  0.30000007791E+02 0.  0.
        -12    1    1    2    0    0 -0.39173674601E+02  0.33193967540E+01 -0.10371609939E+02  0.40659137587E+02  0.00000000000E+00 0.  1.
         11    1    3    3    0    0  0.20991578542E+02 -0.13711283135E+02  0.45762486404E+01  0.25487010550E+02  0.51100000000E-03 0. -1.
        -11    1    3    3    0    0  0.19597564060E+01 -0.27423529678E+01 -0.32380764001E-01  0.33707853307E+01  0.51100000000E-03 0.  1.
         12    1    3    3    0    0  0.16222339653E+02  0.13134239349E+02  0.58277420629E+01  0.21671066532E+02  0.00000000000E+00 0. -1.
</event>
<event>
 7    1  0.5913457E-013  0.5052886E+02  0.7816164E-02  0.1300439E+00
        -11   -1    0    0    0    0  0.00000000000E+00  0.00000000000E+00  0.45593999997E+02  0.45594000000E+02  0.51100000000E-03 0. -1.
         11   -1    0    0    0    0 -0.00000000000E+00 -0.00000000000E+00 -0.45593999997E+02  0.45594000000E+02  0.51100000000E-03 0.  1.
    9900012    2    1    2    0    0 -0.62569268287E+01  0.30979192039E+02  0.25579407962E+02  0.50528860998E+02  0.30000003488E+02 0.  0.
        -12    1    1    2    0    0  0.62569268287E+01 -0.30979192039E+02 -0.25579407962E+02  0.40659139002E+02  0.00000000000E+00 0.  1.
         11    1    3    3    0    0 -0.17612398775E+01  0.10044107499E+02  0.39660889901E+01  0.10941477209E+02  0.51100000000E-03 0. -1.
        -11    1    3    3    0    0 -0.14478318051E+01  0.25975906030E+02  0.12820087418E+02  0.29003423120E+02  0.51100000000E-03 0.  1.
        -12    1    3    3    0    0 -0.30478551460E+01 -0.50408214902E+01  0.87932315535E+01  0.10583960669E+02  0.00000000000E+00 0.  1.
</event>
<event>
 7    1  0.5913457E-013  0.5052885E+02  0.7816164E-02  0.1300439E+00
        -11   -1    0    0    0    0  0.00000000000E+00  0.00000000000E+00  0.45593999997E+02  0.45594000000E+02  0.51100000000E-03 0.  1.
         11   -1    0    0    0    0 -0.00000000000E+00 -0.00000000000E+00 -0.45593999997E+02  0.45594000000E+02  0.51100000000E-03 0. -1.
    9900012    2    1    2    0    0 -0.29076209692E+02 -0.48752459230E+01 -0.27999508511E+02  0.50528850111E+02  0.29999970396E+02 0.  0.
        -12    1    1    2    0    0  0.29076209692E+02  0.48752459230E+01  0.27999508511E+02  0.40659149889E+02  0.00000000000E+00 0.  1.
         11    1    3    3    0    0 -0.76797924727E+01  0.31349782065E+00 -0.80448493742E+01  0.11126414293E+02  0.51100000000E-03 0. -1.
        -11    1    3    3    0    0 -0.19805292946E+02  0.25232608492E+01 -0.23440622076E+02  0.30790895368E+02  0.51100000000E-03 0.  1.
        -12    1    3    3    0    0 -0.15911242729E+01 -0.77120045928E+01  0.34859629392E+01  0.86115404490E+01  0.00000000000E+00 0.  1.
</event>
<event>
 7    1  0.5913457E-013  0.5052886E+02  0.7816164E-02  0.1300439E+00
        -11   -1    0    0    0    0  0.00000000000E+00  0.00000000000E+00  0.45593999997E+02  0.45594000000E+02  0.51100000000E-03 0.  1.
         11   -1    0    0    0    0 -0.00000000000E+00 -0.00000000000E+00 -0.45593999997E+02  0.45594000000E+02  0.51100000000E-03 0. -1.
    9900012    2    1    2    0    0 -0.81420476277E+01  0.28660750561E+02 -0.27666480250E+02  0.50528859678E+02  0.29999999478E+02 0.  0.
        -12    1    1    2    0    0  0.81420476277E+01 -0.28660750561E+02  0.27666480250E+02  0.40659140322E+02  0.00000000000E+00 0.  1.
         11    1    3    3    0    0  0.44522250803E+01  0.24040827725E+02 -0.16099612491E+02  0.29274241724E+02  0.51100000000E-03 0. -1.
        -11    1    3    3    0    0  0.20284343804E+01  0.11856018454E+01 -0.34702852154E+01  0.41908325556E+01  0.51100000000E-03 0.  1.
        -12    1    3    3    0    0 -0.14622707088E+02  0.34343209903E+01 -0.80965825435E+01  0.17063785399E+02  0.00000000000E+00 0.  1.
</event>
<event>
 7    1  0.5913457E-013  0.5052885E+02  0.7816164E-02  0.1300439E+00
        -11   -1    0    0    0    0  0.00000000000E+00  0.00000000000E+00  0.45593999997E+02  0.45594000000E+02  0.51100000000E-03 0. -1.
         11   -1    0    0    0    0 -0.00000000000E+00 -0.00000000000E+00 -0.45593999997E+02  0.45594000000E+02  0.51100000000E-03 0.  1.
    9900012    2    1    2    0    0 -0.25525376790E+02  0.31546157379E+02  0.25420128041E+01  0.50528846852E+02  0.29999960491E+02 0.  0.
        -12    1    1    2    0    0  0.25525376790E+02 -0.31546157379E+02 -0.25420128041E+01  0.40659153148E+02  0.00000000000E+00 0.  1.
         11    1    3    3    0    0 -0.15639934532E+02  0.16006346439E+02  0.81498621044E+01  0.23816610403E+02  0.51100000000E-03 0. -1.
        -11    1    3    3    0    0 -0.77298396627E+01 -0.22645741725E+01 -0.29701659554E+01  0.85849055590E+01  0.51100000000E-03 0.  1.
         12    1    3    3    0    0 -0.21556025947E+01  0.17804385112E+02 -0.26376833449E+01  0.18127330890E+02  0.00000000000E+00 0. -1.
</event>
<event>
 7    1  0.5913457E-013  0.5052885E+02  0.7816164E-02  0.1300439E+00
        -11   -1    0    0    0    0  0.00000000000E+00  0.00000000000E+00  0.45593999997E+02  0.45594000000E+02  0.51100000000E-03 0.  1.
         11   -1    0    0    0    0 -0.00000000000E+00 -0.00000000000E+00 -0.45593999997E+02  0.45594000000E+02  0.51100000000E-03 0. -1.
    9900012    2    1    2    0    0 -0.11291450463E+02  0.33773973261E+02  0.19621118127E+02  0.50528850969E+02  0.29999973005E+02 0.  0.
        -12    1    1    2    0    0  0.11291450463E+02 -0.33773973261E+02 -0.19621118127E+02  0.40659149031E+02  0.00000000000E+00 0.  1.
         11    1    3    3    0    0 -0.12213588670E+01  0.41688880324E+01  0.71601184274E+00  0.44027284869E+01  0.51100000000E-03 0. -1.
        -11    1    3    3    0    0 -0.18836493000E+01  0.11095543215E+02  0.22882093273E+02  0.25499988367E+02  0.51100000000E-03 0.  1.
         12    1    3    3    0    0 -0.81864422965E+01  0.18509542013E+02 -0.39769869889E+01  0.20626134115E+02  0.00000000000E+00 0. -1.
</event>
<event>
 7    1  0.5913457E-013  0.5052885E+02  0.7816164E-02  0.1300439E+00
        -11   -1    0    0    0    0  0.00000000000E+00  0.00000000000E+00  0.45593999997E+02  0.45594000000E+02  0.51100000000E-03 0.  1.
         11   -1    0    0    0    0 -0.00000000000E+00 -0.00000000000E+00 -0.45593999997E+02  0.45594000000E+02  0.51100000000E-03 0. -1.
    9900012    2    1    2    0    0  0.27431630906E+00  0.26742813263E+02 -0.30625371139E+02  0.50528847672E+02  0.29999962983E+02 0.  0.
        -12    1    1    2    0    0 -0.27431630906E+00 -0.26742813263E+02  0.30625371139E+02  0.40659152328E+02  0.00000000000E+00 0.  1.
         11    1    3    3    0    0 -0.25909277780E+01  0.13268924912E+02 -0.29019564874E+02  0.32014253401E+02  0.51100000000E-03 0. -1.
        -11    1    3    3    0    0 -0.40138921762E+01  0.23592014679E+01 -0.27263069679E+01  0.53953602208E+01  0.51100000000E-03 0.  1.
         12    1    3    3    0    0  0.68791362632E+01  0.11114686883E+02  0.11205007029E+01  0.13119234050E+02  0.00000000000E+00 0. -1.
</event>
<event>
 7    1  0.5913457E-013  0.5052886E+02  0.7816164E-02  0.1300439E+00
        -11   -1    0    0    0    0  0.00000000000E+00  0.00000000000E+00  0.45593999997E+02  0.45594000000E+02  0.51100000000E-03 0. -1.
         11   -1    0    0    0    0 -0.00000000000E+00 -0.00000000000E+00 -0.45593999997E+02  0.45594000000E+02  0.51100000000E-03 0.  1.
    9900012    2    1    2    0    0  0.29471764377E+02  0.24951640656E+02  0.12727767509E+02  0.50528864093E+02  0.30000012897E+02 0.  0.
        -12    1    1    2    0    0 -0.29471764377E+02 -0.24951640656E+02 -0.12727767509E+02  0.40659135907E+02  0.00000000000E+00 0.  1.
         11    1    3    3    0    0 -0.16439361011E+01  0.85657658899E+01 -0.27257476080E+01  0.91380835774E+01  0.51100000000E-03 0.  1.
        -11    1    3    3    0    0  0.92912249311E+01  0.11181753445E+02  0.73348864439E+00  0.14556664339E+02  0.51100000000E-03 0. -1.
         12    1    3    3    0    0  0.21824475547E+02  0.52041213215E+01  0.14720026473E+02  0.26834116177E+02  0.00000000000E+00 0. -1.
</event>
<event>
 7    1  0.5913457E-013  0.5052885E+02  0.7816164E-02  0.1300439E+00
        -11   -1    0    0    0    0  0.00000000000E+00  0.00000000000E+00  0.45593999997E+02  0.45594000000E+02  0.51100000000E-03 0. -1.
         11   -1    0    0    0    0 -0.00000000000E+00 -0.00000000000E+00 -0.45593999997E+02  0.45594000000E+02  0.51100000000E-03 0.  1.
    9900012    2    1    2    0    0  0.10101155374E+02  0.36226031545E+02  0.15453405046E+02  0.50528850613E+02  0.29999971922E+02 0.  0.
        -12    1    1    2    0    0 -0.10101155374E+02 -0.36226031545E+02 -0.15453405046E+02  0.40659149387E+02  0.00000000000E+00 0.  1.
         11    1    3    3    0    0 -0.31487122055E+01 -0.10010446357E+01 -0.21171269656E+01  0.39241184698E+01  0.51100000000E-03 0. -1.
        -11    1    3    3    0    0  0.10378551235E+02  0.63748999384E+01  0.49035509288E+01  0.13130060431E+02  0.51100000000E-03 0.  1.
         12    1    3    3    0    0  0.28713163446E+01  0.30852176242E+02  0.12666981083E+02  0.33474671711E+02  0.00000000000E+00 0. -1.
</event>
<event>
 7    1  0.5913457E-013  0.5052885E+02  0.7816164E-02  0.1300439E+00
        -11   -1    0    0    0    0  0.00000000000E+00  0.00000000000E+00  0.45593999997E+02  0.45594000000E+02  0.51100000000E-03 0.  1.
         11   -1    0    0    0    0 -0.00000000000E+00 -0.00000000000E+00 -0.45593999997E+02  0.45594000000E+02  0.51100000000E-03 0. -1.
    9900012    2    1    2    0    0 -0.59766945600E+01 -0.24287639539E+02 -0.32055515845E+02  0.50528850866E+02  0.29999972692E+02 0.  0.
        -12    1    1    2    0    0  0.59766945600E+01  0.24287639539E+02  0.32055515845E+02  0.40659149134E+02  0.00000000000E+00 0.  1.
         11    1    3    3    0    0  0.18085778144E+01 -0.47647163197E+01 -0.35809518960E+01  0.62286990665E+01  0.51100000000E-03 0. -1.
        -11    1    3    3    0    0 -0.13441293933E+02 -0.22540191749E+02 -0.17348625654E+02  0.31459552429E+02  0.51100000000E-03 0.  1.
        -12    1    3    3    0    0  0.56560215589E+01  0.30172685295E+01 -0.11125938295E+02  0.12840599371E+02  0.00000000000E+00 0.  1.
</event>
<event>
 7    1  0.5913457E-013  0.5052887E+02  0.7816164E-02  0.1300439E+00
        -11   -1    0    0    0    0  0.00000000000E+00  0.00000000000E+00  0.45593999997E+02  0.45594000000E+02  0.51100000000E-03 0. -1.
         11   -1    0    0    0    0 -0.00000000000E+00 -0.00000000000E+00 -0.45593999997E+02  0.45594000000E+02  0.51100000000E-03 0.  1.
    9900012    2    1    2    0    0 -0.28021529570E+02 -0.70939328260E+01  0.28594319229E+02  0.50528867021E+02  0.30000021798E+02 0.  0.
        -12    1    1    2    0    0  0.28021529570E+02  0.70939328260E+01 -0.28594319229E+02  0.40659132979E+02  0.00000000000E+00 0.  1.
         11    1    3    3    0    0 -0.12059433760E+01 -0.40220294545E+01  0.33239281408E+01  0.53553262184E+01  0.51100000000E-03 0. -1.
        -11    1    3    3    0    0 -0.23310400277E+02 -0.94685068107E+01  0.27761019681E+02  0.37466005876E+02  0.51100000000E-03 0.  1.
        -12    1    3    3    0    0 -0.35051859170E+01  0.63966034393E+01 -0.24906285920E+01  0.77075349273E+01  0.00000000000E+00 0.  1.
</event>
<event>
 7    1  0.5913457E-013  0.5052889E+02  0.7816164E-02  0.1300439E+00
        -11   -1    0    0    0    0  0.00000000000E+00  0.00000000000E+00  0.45593999997E+02  0.45594000000E+02  0.51100000000E-03 0.  1.
         11   -1    0    0    0    0 -0.00000000000E+00 -0.00000000000E+00 -0.45593999997E+02  0.45594000000E+02  0.51100000000E-03 0. -1.
    9900012    2    1    2    0    0  0.18283790283E+02 -0.13419188500E+02 -0.33745989239E+02  0.50528887899E+02  0.30000085258E+02 0.  0.
        -12    1    1    2    0    0 -0.18283790283E+02  0.13419188500E+02  0.33745989239E+02  0.40659112101E+02  0.00000000000E+00 0.  1.
         11    1    3    3    0    0  0.89242310023E+01 -0.14682775590E+01 -0.46733254542E+01  0.10180260755E+02  0.51100000000E-03 0. -1.
        -11    1    3    3    0    0 -0.19362812069E+01 -0.82045182698E+00  0.35213655247E+01  0.41015047887E+01  0.51100000000E-03 0.  1.
         12    1    3    3    0    0  0.11295840488E+02 -0.11130459114E+02 -0.32594029310E+02  0.36247122355E+02  0.00000000000E+00 0. -1.
</event>
<event>
 7    1  0.5913457E-013  0.5052886E+02  0.7816164E-02  0.1300439E+00
        -11   -1    0    0    0    0  0.00000000000E+00  0.00000000000E+00  0.45593999997E+02  0.45594000000E+02  0.51100000000E-03 0.  1.
         11   -1    0    0    0    0 -0.00000000000E+00 -0.00000000000E+00 -0.45593999997E+02  0.45594000000E+02  0.51100000000E-03 0. -1.
    9900012    2    1    2    0    0  0.13667850448E+02  0.45041614411E+01 -0.38027198903E+02  0.50528862496E+02  0.30000008042E+02 0.  0.
        -12    1    1    2    0    0 -0.13667850448E+02 -0.45041614411E+01  0.38027198903E+02  0.40659137504E+02  0.00000000000E+00 0.  1.
         11    1    3    3    0    0  0.32661568708E+01 -0.11601026412E+00  0.26535395309E+00  0.32789711904E+01  0.51100000000E-03 0. -1.
        -11    1    3    3    0    0  0.15142133642E+02  0.10786839925E+02 -0.19656759680E+02  0.27056022031E+02  0.51100000000E-03 0.  1.
        -12    1    3    3    0    0 -0.47404400643E+01 -0.61666682195E+01 -0.18635793176E+02  0.20193869274E+02  0.00000000000E+00 0.  1.
</event>
<event>
 7    1  0.5913457E-013  0.5052886E+02  0.7816164E-02  0.1300439E+00
        -11   -1    0    0    0    0  0.00000000000E+00  0.00000000000E+00  0.45593999997E+02  0.45594000000E+02  0.51100000000E-03 0. -1.
         11   -1    0    0    0    0 -0.00000000000E+00 -0.00000000000E+00 -0.45593999997E+02  0.45594000000E+02  0.51100000000E-03 0.  1.
    9900012    2    1    2    0    0 -0.36624004256E+02  0.16445724505E+02  0.64332047894E+01  0.50528859993E+02  0.30000000434E+02 0.  0.
        -12    1    1    2    0    0  0.36624004256E+02 -0.16445724505E+02 -0.64332047894E+01  0.40659140007E+02  0.00000000000E+00 0.  1.
         11    1    3    3    0    0 -0.30976750231E+02  0.76917425798E+01 -0.33404101690E+01  0.32091748147E+02  0.51100000000E-03 0. -1.
        -11    1    3    3    0    0 -0.65830259920E+01  0.27896116307E+01  0.10118884426E+02  0.12389914711E+02  0.51100000000E-03 0.  1.
        -12    1    3    3    0    0  0.93577196642E+00  0.59643702944E+01 -0.34526946732E+00  0.60471971348E+01  0.00000000000E+00 0.  1.
</event>
<event>
 7    1  0.5913457E-013  0.5052886E+02  0.7816164E-02  0.1300439E+00
        -11   -1    0    0    0    0  0.00000000000E+00  0.00000000000E+00  0.45593999997E+02  0.45594000000E+02  0.51100000000E-03 0.  1.
         11   -1    0    0    0    0 -0.00000000000E+00 -0.00000000000E+00 -0.45593999997E+02  0.45594000000E+02  0.51100000000E-03 0. -1.
    9900012    2    1    2    0    0  0.15775781023E+01  0.29661066411E+01 -0.40520105049E+02  0.50528862596E+02  0.30000008345E+02 0.  0.
        -12    1    1    2    0    0 -0.15775781023E+01 -0.29661066411E+01  0.40520105049E+02  0.40659137404E+02  0.00000000000E+00 0.  1.
         11    1    3    3    0    0 -0.21441171553E+01 -0.90831114574E+01 -0.17361510348E+02  0.19710966337E+02  0.51100000000E-03 0. -1.
        -11    1    3    3    0    0 -0.61974190882E+01  0.52257099744E+01 -0.73157586125E+01  0.10919540852E+02  0.51100000000E-03 0.  1.
         12    1    3    3    0    0  0.99191143457E+01  0.68235081240E+01 -0.15842836089E+02  0.19898355406E+02  0.00000000000E+00 0. -1.
</event>
<event>
 7    1  0.5913457E-013  0.5052883E+02  0.7816164E-02  0.1300439E+00
        -11   -1    0    0    0    0  0.00000000000E+00  0.00000000000E+00  0.45593999997E+02  0.45594000000E+02  0.51100000000E-03 0.  1.
         11   -1    0    0    0    0 -0.00000000000E+00 -0.00000000000E+00 -0.45593999997E+02  0.45594000000E+02  0.51100000000E-03 0. -1.
    9900012    2    1    2    0    0 -0.37207828200E+02  0.10973229877E+02  0.12179228099E+02  0.50528833132E+02  0.29999918788E+02 0.  0.
        -12    1    1    2    0    0  0.37207828200E+02 -0.10973229877E+02 -0.12179228099E+02  0.40659166868E+02  0.00000000000E+00 0.  1.
         11    1    3    3    0    0 -0.31626970117E+02  0.68893912858E+01 -0.11634066098E+01  0.32389542545E+02  0.51100000000E-03 0. -1.
        -11    1    3    3    0    0 -0.73476305071E+01  0.21978011765E+01  0.44240394665E+01  0.88538200537E+01  0.51100000000E-03 0.  1.
         12    1    3    3    0    0  0.17667724243E+01  0.18860374150E+01  0.89185952421E+01  0.92854705331E+01  0.00000000000E+00 0. -1.
</event>
<event>
 7    1  0.5913457E-013  0.5052886E+02  0.7816164E-02  0.1300439E+00
        -11   -1    0    0    0    0  0.00000000000E+00  0.00000000000E+00  0.45593999997E+02  0.45594000000E+02  0.51100000000E-03 0. -1.
         11   -1    0    0    0    0 -0.00000000000E+00 -0.00000000000E+00 -0.45593999997E+02  0.45594000000E+02  0.51100000000E-03 0.  1.
    9900012    2    1    2    0    0 -0.11486599063E+02  0.37122538143E+02  0.11964153811E+02  0.50528858684E+02  0.29999996455E+02 0.  0.
        -12    1    1    2    0    0  0.11486599063E+02 -0.37122538143E+02 -0.11964153811E+02  0.40659141316E+02  0.00000000000E+00 0.  1.
         11    1    3    3    0    0 -0.30764782918E+01  0.20000008377E+02 -0.74564273903E+01  0.21565327807E+02  0.51100000000E-03 0. -1.
        -11    1    3    3    0    0  0.88940216848E+00  0.14564088950E+01 -0.67845553806E+00  0.18364273100E+01  0.51100000000E-03 0.  1.
        -12    1    3    3    0    0 -0.92995229393E+01  0.15666120871E+02  0.20099036739E+02  0.27127103566E+02  0.00000000000E+00 0.  1.
</event>
<event>
 7    1  0.5913457E-013  0.5052885E+02  0.7816164E-02  0.1300439E+00
        -11   -1    0    0    0    0  0.00000000000E+00  0.00000000000E+00  0.45593999997E+02  0.45594000000E+02  0.51100000000E-03 0. -1.
         11   -1    0    0    0    0 -0.00000000000E+00 -0.00000000000E+00 -0.45593999997E+02  0.45594000000E+02  0.51100000000E-03 0.  1.
    9900012    2    1    2    0    0  0.28079992699E+02  0.23664487969E+02  0.17454871699E+02  0.50528849409E+02  0.29999968262E+02 0.  0.
        -12    1    1    2    0    0 -0.28079992699E+02 -0.23664487969E+02 -0.17454871699E+02  0.40659150591E+02  0.00000000000E+00 0.  1.
         11    1    3    3    0    0  0.51592840373E+01 -0.95701029930E-01 -0.48086342554E+01  0.70533916755E+01  0.51100000000E-03 0. -1.
        -11    1    3    3    0    0  0.72144791901E+01  0.22536206313E+01 -0.15896790176E+01  0.77236387521E+01  0.51100000000E-03 0.  1.
         12    1    3    3    0    0  0.15706229472E+02  0.21506568367E+02  0.23853184972E+02  0.35751818981E+02  0.00000000000E+00 0. -1.
</event>
<event>
 7    1  0.5913457E-013  0.5052884E+02  0.7816164E-02  0.1300439E+00
        -11   -1    0    0    0    0  0.00000000000E+00  0.00000000000E+00  0.45593999997E+02  0.45594000000E+02  0.51100000000E-03 0. -1.
         11   -1    0    0    0    0 -0.00000000000E+00 -0.00000000000E+00 -0.45593999997E+02  0.45594000000E+02  0.51100000000E-03 0.  1.
    9900012    2    1    2    0    0  0.37233418520E+02 -0.86251228539E+01  0.13872543925E+02  0.50528835303E+02  0.29999925387E+02 0.  0.
        -12    1    1    2    0    0 -0.37233418520E+02  0.86251228539E+01 -0.13872543925E+02  0.40659164697E+02  0.00000000000E+00 0.  1.
         11    1    3    3    0    0  0.25015669624E+02 -0.72087984800E+01  0.97338776516E+01  0.27793864011E+02  0.51100000000E-03 0. -1.
        -11    1    3    3    0    0 -0.34473159784E+01  0.17482578840E+01  0.54702680455E+01  0.66980762787E+01  0.51100000000E-03 0.  1.
         12    1    3    3    0    0  0.15665064874E+02 -0.31645822578E+01 -0.13316017725E+01  0.16036895013E+02  0.00000000000E+00 0. -1.
</event>
<event>
 7    1  0.5913457E-013  0.5052885E+02  0.7816164E-02  0.1300439E+00
        -11   -1    0    0    0    0  0.00000000000E+00  0.00000000000E+00  0.45593999997E+02  0.45594000000E+02  0.51100000000E-03 0.  1.
         11   -1    0    0    0    0 -0.00000000000E+00 -0.00000000000E+00 -0.45593999997E+02  0.45594000000E+02  0.51100000000E-03 0. -1.
    9900012    2    1    2    0    0 -0.14315462619E+02 -0.15286262662E+01 -0.38024951419E+02  0.50528854673E+02  0.29999984265E+02 0.  0.
        -12    1    1    2    0    0  0.14315462619E+02  0.15286262662E+01  0.38024951419E+02  0.40659145327E+02  0.00000000000E+00 0.  1.
         11    1    3    3    0    0 -0.37791571380E+01  0.96044823420E+00 -0.13176682273E+02  0.13741522677E+02  0.51100000000E-03 0. -1.
        -11    1    3    3    0    0 -0.97608156014E+01  0.91495371169E+01 -0.20204755565E+02  0.24232616416E+02  0.51100000000E-03 0.  1.
        -12    1    3    3    0    0 -0.77548987928E+00 -0.11638611617E+02 -0.46435135807E+01  0.12554715580E+02  0.00000000000E+00 0.  1.
</event>
<event>
 7    1  0.5913457E-013  0.5052886E+02  0.7816164E-02  0.1300439E+00
        -11   -1    0    0    0    0  0.00000000000E+00  0.00000000000E+00  0.45593999997E+02  0.45594000000E+02  0.51100000000E-03 0.  1.
         11   -1    0    0    0    0 -0.00000000000E+00 -0.00000000000E+00 -0.45593999997E+02  0.45594000000E+02  0.51100000000E-03 0. -1.
    9900012    2    1    2    0    0 -0.16410573600E+01  0.23334569092E+01 -0.40558935397E+02  0.50528864115E+02  0.30000012964E+02 0.  0.
        -12    1    1    2    0    0  0.16410573600E+01 -0.23334569092E+01  0.40558935397E+02  0.40659135885E+02  0.00000000000E+00 0.  1.
         11    1    3    3    0    0  0.38314039872E+01  0.11816938426E+01 -0.23375171164E+02  0.23716548738E+02  0.51100000000E-03 0. -1.
        -11    1    3    3    0    0 -0.57369540873E+01 -0.71711720366E+01 -0.15935207352E+02  0.18392095699E+02  0.51100000000E-03 0.  1.
        -12    1    3    3    0    0  0.26449274018E+00  0.83229351032E+01 -0.12485568806E+01  0.84202196780E+01  0.00000000000E+00 0.  1.
</event>
<event>
 7    1  0.5913457E-013  0.5052886E+02  0.7816164E-02  0.1300439E+00
        -11   -1    0    0    0    0  0.00000000000E+00  0.00000000000E+00  0.45593999997E+02  0.45594000000E+02  0.51100000000E-03 0.  1.
         11   -1    0    0    0    0 -0.00000000000E+00 -0.00000000000E+00 -0.45593999997E+02  0.45594000000E+02  0.51100000000E-03 0. -1.
    9900012    2    1    2    0    0 -0.20362920558E+02 -0.16188028620E+01 -0.35155318125E+02  0.50528862665E+02  0.30000008556E+02 0.  0.
        -12    1    1    2    0    0  0.20362920558E+02  0.16188028620E+01  0.35155318125E+02  0.40659137335E+02  0.00000000000E+00 0.  1.
         11    1    3    3    0    0 -0.20599966735E+01 -0.58120588914E+01 -0.20541884156E+00  0.61697497530E+01  0.51100000000E-03 0. -1.
        -11    1    3    3    0    0  0.12861918336E+01 -0.14366369596E+01 -0.17270512842E+02  0.17377825792E+02  0.51100000000E-03 0.  1.
         12    1    3    3    0    0 -0.19589115718E+02  0.56298929890E+01 -0.17679386442E+02  0.26981287120E+02  0.00000000000E+00 0. -1.
</event>
<event>
 7    1  0.5913457E-013  0.5052901E+02  0.7816164E-02  0.1300438E+00
        -11   -1    0    0    0    0  0.00000000000E+00  0.00000000000E+00  0.45593999997E+02  0.45594000000E+02  0.51100000000E-03 0.  1.
         11   -1    0    0    0    0 -0.00000000000E+00 -0.00000000000E+00 -0.45593999997E+02  0.45594000000E+02  0.51100000000E-03 0. -1.
    9900012    2    1    2    0    0 -0.11193123180E+00  0.18729027867E+02 -0.36088290116E+02  0.50529007182E+02  0.30000447827E+02 0.  0.
        -12    1    1    2    0    0  0.11193123180E+00 -0.18729027867E+02  0.36088290116E+02  0.40658992818E+02  0.00000000000E+00 0.  1.
         11    1    3    3    0    0 -0.22766290619E+01  0.24513393600E+01  0.32133616732E+01  0.46387280636E+01  0.51100000000E-03 0. -1.
        -11    1    3    3    0    0  0.36763874728E+01  0.14606630844E+00 -0.34114265024E+00  0.36950695238E+01  0.51100000000E-03 0.  1.
         12    1    3    3    0    0 -0.15116896427E+01  0.16131622199E+02 -0.38960509139E+02  0.42195209595E+02  0.00000000000E+00 0. -1.
</event>
<event>
 7    1  0.5913457E-013  0.5052886E+02  0.7816164E-02  0.1300439E+00
        -11   -1    0    0    0    0  0.00000000000E+00  0.00000000000E+00  0.45593999997E+02  0.45594000000E+02  0.51100000000E-03 0.  1.
         11   -1    0    0    0    0 -0.00000000000E+00 -0.00000000000E+00 -0.45593999997E+02  0.45594000000E+02  0.51100000000E-03 0. -1.
    9900012    2    1    2    0    0 -0.38106742367E+02  0.41192570484E+01 -0.13567373163E+02  0.50528859490E+02  0.29999998905E+02 0.  0.
        -12    1    1    2    0    0  0.38106742367E+02 -0.41192570484E+01  0.13567373163E+02  0.40659140510E+02  0.00000000000E+00 0.  1.
         11    1    3    3    0    0 -0.94301998775E+01 -0.39893239476E+00 -0.55868458856E+01  0.10968165936E+02  0.51100000000E-03 0. -1.
        -11    1    3    3    0    0 -0.15678713628E+02  0.15256863696E+02 -0.49633586878E+01  0.22432763552E+02  0.51100000000E-03 0.  1.
         12    1    3    3    0    0 -0.12997828862E+02 -0.10738674253E+02 -0.30171685893E+01  0.17127930002E+02  0.00000000000E+00 0. -1.
</event>
<event>
 7    1  0.5913457E-013  0.5052876E+02  0.7816164E-02  0.1300439E+00
        -11   -1    0    0    0    0  0.00000000000E+00  0.00000000000E+00  0.45593999997E+02  0.45594000000E+02  0.51100000000E-03 0.  1.
         11   -1    0    0    0    0 -0.00000000000E+00 -0.00000000000E+00 -0.45593999997E+02  0.45594000000E+02  0.51100000000E-03 0. -1.
    9900012    2    1    2    0    0  0.57442555367E+01  0.79828938366E+01 -0.39451882749E+02  0.50528756056E+02  0.29999684505E+02 0.  0.
        -12    1    1    2    0    0 -0.57442555367E+01 -0.79828938366E+01  0.39451882749E+02  0.40659243944E+02  0.00000000000E+00 0.  1.
         11    1    3    3    0    0  0.14276936656E+02  0.21555195226E+01 -0.79329708324E+01  0.16474501849E+02  0.51100000000E-03 0.  1.
        -11    1    3    3    0    0 -0.30399657130E+00  0.39943495292E+01 -0.14766212350E+02  0.15299943447E+02  0.51100000000E-03 0. -1.
        -12    1    3    3    0    0 -0.82286845480E+01  0.18330247848E+01 -0.16752699567E+02  0.18754310759E+02  0.00000000000E+00 0.  1.
</event>
<event>
 7    1  0.5913457E-013  0.5052886E+02  0.7816164E-02  0.1300439E+00
        -11   -1    0    0    0    0  0.00000000000E+00  0.00000000000E+00  0.45593999997E+02  0.45594000000E+02  0.51100000000E-03 0.  1.
         11   -1    0    0    0    0 -0.00000000000E+00 -0.00000000000E+00 -0.45593999997E+02  0.45594000000E+02  0.51100000000E-03 0. -1.
    9900012    2    1    2    0    0  0.31822585586E+02 -0.11650117500E+02 -0.22466942148E+02  0.50528859814E+02  0.29999999891E+02 0.  0.
        -12    1    1    2    0    0 -0.31822585586E+02  0.11650117500E+02  0.22466942148E+02  0.40659140186E+02  0.00000000000E+00 0.  1.
         11    1    3    3    0    0  0.12371286352E+02  0.60758826935E+01 -0.43183781268E+01  0.14443457564E+02  0.51100000000E-03 0. -1.
        -11    1    3    3    0    0  0.14182798973E+01  0.50781849151E+00  0.26622179325E+01  0.30588890252E+01  0.51100000000E-03 0.  1.
        -12    1    3    3    0    0  0.18033019337E+02 -0.18233818685E+02 -0.20810781953E+02  0.33026513225E+02  0.00000000000E+00 0.  1.
</event>
<event>
 7    1  0.5913457E-013  0.5052886E+02  0.7816164E-02  0.1300439E+00
        -11   -1    0    0    0    0  0.00000000000E+00  0.00000000000E+00  0.45593999997E+02  0.45594000000E+02  0.51100000000E-03 0.  1.
         11   -1    0    0    0    0 -0.00000000000E+00 -0.00000000000E+00 -0.45593999997E+02  0.45594000000E+02  0.51100000000E-03 0. -1.
    9900012    2    1    2    0    0 -0.37050262895E+02 -0.16133737434E+02 -0.44884102689E+01  0.50528864607E+02  0.30000014458E+02 0.  0.
        -12    1    1    2    0    0  0.37050262895E+02  0.16133737434E+02  0.44884102689E+01  0.40659135393E+02  0.00000000000E+00 0.  1.
         11    1    3    3    0    0 -0.93403612210E+01 -0.11416877377E+02  0.33539109091E+01  0.15127331405E+02  0.51100000000E-03 0. -1.
        -11    1    3    3    0    0  0.28087502208E+00 -0.23360780154E+01  0.42183011228E+01  0.48301362192E+01  0.51100000000E-03 0.  1.
         12    1    3    3    0    0 -0.27990776696E+02 -0.23807820413E+01 -0.12060622301E+02  0.30571396983E+02  0.00000000000E+00 0. -1.
</event>
<event>
 7    1  0.5913457E-013  0.5052886E+02  0.7816164E-02  0.1300439E+00
        -11   -1    0    0    0    0  0.00000000000E+00  0.00000000000E+00  0.45593999997E+02  0.45594000000E+02  0.51100000000E-03 0. -1.
         11   -1    0    0    0    0 -0.00000000000E+00 -0.00000000000E+00 -0.45593999997E+02  0.45594000000E+02  0.51100000000E-03 0.  1.
    9900012    2    1    2    0    0 -0.31645058839E+02 -0.19240610715E+02  0.16779600591E+02  0.50528857786E+02  0.29999993726E+02 0.  0.
        -12    1    1    2    0    0  0.31645058839E+02  0.19240610715E+02 -0.16779600591E+02  0.40659142214E+02  0.00000000000E+00 0.  1.
         11    1    3    3    0    0 -0.14216231526E+02 -0.21832868561E+02  0.15362654464E+02  0.30245438348E+02  0.51100000000E-03 0. -1.
        -11    1    3    3    0    0 -0.31099358337E+01 -0.30340578033E+01  0.22175735913E+01  0.48779955450E+01  0.51100000000E-03 0.  1.
        -12    1    3    3    0    0 -0.14318891480E+02  0.56263156496E+01 -0.80062746374E+00  0.15405423893E+02  0.00000000000E+00 0.  1.
</event>
<event>
 7    1  0.5913457E-013  0.5052887E+02  0.7816164E-02  0.1300439E+00
        -11   -1    0    0    0    0  0.00000000000E+00  0.00000000000E+00  0.45593999997E+02  0.45594000000E+02  0.51100000000E-03 0.  1.
         11   -1    0    0    0    0 -0.00000000000E+00 -0.00000000000E+00 -0.45593999997E+02  0.45594000000E+02  0.51100000000E-03 0. -1.
    9900012    2    1    2    0    0  0.22575186858E+02  0.22875350774E+02 -0.24904707777E+02  0.50528865674E+02  0.30000017702E+02 0.  0.
        -12    1    1    2    0    0 -0.22575186858E+02 -0.22875350774E+02  0.24904707777E+02  0.40659134326E+02  0.00000000000E+00 0.  1.
         11    1    3    3    0    0 -0.13520109256E+01 -0.89038762225E+00 -0.60201293698E+01  0.62339940288E+01  0.51100000000E-03 0. -1.
        -11    1    3    3    0    0  0.16161153768E+00  0.58893797108E+01 -0.12586220862E+02  0.13896901364E+02  0.51100000000E-03 0.  1.
         12    1    3    3    0    0  0.23765586246E+02  0.17876358686E+02 -0.62983575450E+01  0.30397970282E+02  0.00000000000E+00 0. -1.
</event>
<event>
 7    1  0.5913457E-013  0.5052886E+02  0.7816164E-02  0.1300439E+00
        -11   -1    0    0    0    0  0.00000000000E+00  0.00000000000E+00  0.45593999997E+02  0.45594000000E+02  0.51100000000E-03 0. -1.
         11   -1    0    0    0    0 -0.00000000000E+00 -0.00000000000E+00 -0.45593999997E+02  0.45594000000E+02  0.51100000000E-03 0.  1.
    9900012    2    1    2    0    0 -0.26753913502E+02  0.31367783183E+00  0.30615285517E+02  0.50528856025E+02  0.29999988375E+02 0.  0.
        -12    1    1    2    0    0  0.26753913502E+02 -0.31367783183E+00 -0.30615285517E+02  0.40659143975E+02  0.00000000000E+00 0.  1.
         11    1    3    3    0    0  0.18929682451E+01  0.58364019172E+01  0.14107914368E+01  0.62958120092E+01  0.51100000000E-03 0.  1.
        -11    1    3    3    0    0 -0.37313159709E+01  0.49178053014E+01  0.62253853640E+01  0.87671518208E+01  0.51100000000E-03 0. -1.
         12    1    3    3    0    0 -0.24915565776E+02 -0.10440529387E+02  0.22979108716E+02  0.35465892195E+02  0.00000000000E+00 0. -1.
</event>
<event>
 7    1  0.5913457E-013  0.5052879E+02  0.7816164E-02  0.1300439E+00
        -11   -1    0    0    0    0  0.00000000000E+00  0.00000000000E+00  0.45593999997E+02  0.45594000000E+02  0.51100000000E-03 0.  1.
         11   -1    0    0    0    0 -0.00000000000E+00 -0.00000000000E+00 -0.45593999997E+02  0.45594000000E+02  0.51100000000E-03 0. -1.
    9900012    2    1    2    0    0 -0.39825060193E+02  0.35549883921E+00  0.81859167529E+01  0.50528794008E+02  0.29999799867E+02 0.  0.
        -12    1    1    2    0    0  0.39825060193E+02 -0.35549883921E+00 -0.81859167529E+01  0.40659205992E+02  0.00000000000E+00 0.  1.
         11    1    3    3    0    0 -0.17379696729E+02 -0.42820310544E+01  0.12748112754E+02  0.21975077415E+02  0.51100000000E-03 0. -1.
        -11    1    3    3    0    0 -0.20215480889E+01 -0.50576135614E+01 -0.19939544150E+01  0.58001694874E+01  0.51100000000E-03 0.  1.
         12    1    3    3    0    0 -0.20423815375E+02  0.96951434550E+01 -0.25682415857E+01  0.22753547106E+02  0.00000000000E+00 0. -1.
</event>
<event>
 7    1  0.5913457E-013  0.5052886E+02  0.7816164E-02  0.1300439E+00
        -11   -1    0    0    0    0  0.00000000000E+00  0.00000000000E+00  0.45593999997E+02  0.45594000000E+02  0.51100000000E-03 0.  1.
         11   -1    0    0    0    0 -0.00000000000E+00 -0.00000000000E+00 -0.45593999997E+02  0.45594000000E+02  0.51100000000E-03 0. -1.
    9900012    2    1    2    0    0 -0.11974421313E+02 -0.24972044953E+02 -0.29768706407E+02  0.50528859871E+02  0.30000000063E+02 0.  0.
        -12    1    1    2    0    0  0.11974421313E+02  0.24972044953E+02  0.29768706407E+02  0.40659140129E+02  0.00000000000E+00 0.  1.
         11    1    3    3    0    0 -0.19609784814E+00 -0.12013387206E+02 -0.42893606207E+01  0.12757685578E+02  0.51100000000E-03 0. -1.
        -11    1    3    3    0    0  0.49583499942E+01  0.66385368981E+00 -0.10102673091E+02  0.11273417416E+02  0.51100000000E-03 0.  1.
        -12    1    3    3    0    0 -0.16736673459E+02 -0.13622511437E+02 -0.15376672695E+02  0.26497756877E+02  0.00000000000E+00 0.  1.
</event>
<event>
 7    1  0.5913457E-013  0.5052885E+02  0.7816164E-02  0.1300439E+00
        -11   -1    0    0    0    0  0.00000000000E+00  0.00000000000E+00  0.45593999997E+02  0.45594000000E+02  0.51100000000E-03 0. -1.
         11   -1    0    0    0    0 -0.00000000000E+00 -0.00000000000E+00 -0.45593999997E+02  0.45594000000E+02  0.51100000000E-03 0.  1.
    9900012    2    1    2    0    0  0.40521769468E+02 -0.13690515031E+01  0.30459816213E+01  0.50528854573E+02  0.29999983959E+02 0.  0.
        -12    1    1    2    0    0 -0.40521769468E+02  0.13690515031E+01 -0.30459816213E+01  0.40659145427E+02  0.00000000000E+00 0.  1.
         11    1    3    3    0    0  0.74016386416E+01  0.68478966545E+01  0.64341702768E+01  0.11961458547E+02  0.51100000000E-03 0. -1.
        -11    1    3    3    0    0 -0.20157410843E+01 -0.12941558335E+01  0.76829057433E+00  0.25156156519E+01  0.51100000000E-03 0.  1.
         12    1    3    3    0    0  0.35135871911E+02 -0.69227923242E+01 -0.41564792298E+01  0.36051780373E+02  0.00000000000E+00 0. -1.
</event>
<event>
 7    1  0.5913457E-013  0.5052887E+02  0.7816164E-02  0.1300439E+00
        -11   -1    0    0    0    0  0.00000000000E+00  0.00000000000E+00  0.45593999997E+02  0.45594000000E+02  0.51100000000E-03 0.  1.
         11   -1    0    0    0    0 -0.00000000000E+00 -0.00000000000E+00 -0.45593999997E+02  0.45594000000E+02  0.51100000000E-03 0. -1.
    9900012    2    1    2    0    0  0.36455380644E+02 -0.17973990149E+02  0.10514812004E+01  0.50528871720E+02  0.30000036081E+02 0.  0.
        -12    1    1    2    0    0 -0.36455380644E+02  0.17973990149E+02 -0.10514812004E+01  0.40659128280E+02  0.00000000000E+00 0.  1.
         11    1    3    3    0    0  0.58029106682E+01 -0.10471302399E+02 -0.94744004007E+01  0.15267161143E+02  0.51100000000E-03 0. -1.
        -11    1    3    3    0    0  0.46392406789E+01 -0.16131378162E+00 -0.24834420316E+01  0.52646045244E+01  0.51100000000E-03 0.  1.
        -12    1    3    3    0    0  0.26013229297E+02 -0.73413739681E+01  0.13009323633E+02  0.29997106053E+02  0.00000000000E+00 0.  1.
</event>
<event>
 7    1  0.5913457E-013  0.5052886E+02  0.7816164E-02  0.1300439E+00
        -11   -1    0    0    0    0  0.00000000000E+00  0.00000000000E+00  0.45593999997E+02  0.45594000000E+02  0.51100000000E-03 0. -1.
         11   -1    0    0    0    0 -0.00000000000E+00 -0.00000000000E+00 -0.45593999997E+02  0.45594000000E+02  0.51100000000E-03 0.  1.
    9900012    2    1    2    0    0  0.36047657900E+02 -0.14024027211E+02  0.12532314634E+02  0.50528857247E+02  0.29999992089E+02 0.  0.
        -12    1    1    2    0    0 -0.36047657900E+02  0.14024027211E+02 -0.12532314634E+02  0.40659142753E+02  0.00000000000E+00 0.  1.
         11    1    3    3    0    0  0.15248251762E+02  0.18141613422E+01  0.13082162887E+02  0.20172836916E+02  0.51100000000E-03 0. -1.
        -11    1    3    3    0    0  0.47593181460E+01  0.18091341686E+01  0.34841405554E+01  0.61695470925E+01  0.51100000000E-03 0.  1.
        -12    1    3    3    0    0  0.16040087992E+02 -0.17647322722E+02 -0.40339888081E+01  0.24186473239E+02  0.00000000000E+00 0.  1.
</event>
<event>
 7    1  0.5913457E-013  0.5052886E+02  0.7816164E-02  0.1300439E+00
        -11   -1    0    0    0    0  0.00000000000E+00  0.00000000000E+00  0.45593999997E+02  0.45594000000E+02  0.51100000000E-03 0. -1.
         11   -1    0    0    0    0 -0.00000000000E+00 -0.00000000000E+00 -0.45593999997E+02  0.45594000000E+02  0.51100000000E-03 0.  1.
    9900012    2    1    2    0    0 -0.33616980809E+02 -0.21778666993E+02  0.69823932804E+01  0.50528861413E+02  0.30000004751E+02 0.  0.
        -12    1    1    2    0    0  0.33616980809E+02  0.21778666993E+02 -0.69823932804E+01  0.40659138587E+02  0.00000000000E+00 0.  1.
         11    1    3    3    0    0 -0.12947768072E+02 -0.73718786467E+01  0.60788911187E+00  0.14911700851E+02  0.51100000000E-03 0. -1.
        -11    1    3    3    0    0 -0.17013754492E+02 -0.20004729037E+02  0.98919608855E+01  0.28062571446E+02  0.51100000000E-03 0.  1.
         12    1    3    3    0    0 -0.36554582447E+01  0.55979406907E+01 -0.35174567170E+01  0.75545891160E+01  0.00000000000E+00 0. -1.
</event>
<event>
 7    1  0.5913457E-013  0.5052886E+02  0.7816164E-02  0.1300439E+00
        -11   -1    0    0    0    0  0.00000000000E+00  0.00000000000E+00  0.45593999997E+02  0.45594000000E+02  0.51100000000E-03 0.  1.
         11   -1    0    0    0    0 -0.00000000000E+00 -0.00000000000E+00 -0.45593999997E+02  0.45594000000E+02  0.51100000000E-03 0. -1.
    9900012    2    1    2    0    0  0.17096383306E+02 -0.10155355700E+01 -0.36876117545E+02  0.50528859824E+02  0.29999999921E+02 0.  0.
        -12    1    1    2    0    0 -0.17096383306E+02  0.10155355700E+01  0.36876117545E+02  0.40659140176E+02  0.00000000000E+00 0.  1.
         11    1    3    3    0    0 -0.10844103484E+01  0.59741509297E+01 -0.11831858459E+02  0.13298845814E+02  0.51100000000E-03 0. -1.
        -11    1    3    3    0    0  0.41074310661E-01  0.40596402046E+01 -0.11106676409E+02  0.11825422902E+02  0.51100000000E-03 0.  1.
         12    1    3    3    0    0  0.18139719344E+02 -0.11049326704E+02 -0.13937582677E+02  0.25404591108E+02  0.00000000000E+00 0. -1.
</event>
<event>
 7    1  0.5913457E-013  0.5052886E+02  0.7816164E-02  0.1300439E+00
        -11   -1    0    0    0    0  0.00000000000E+00  0.00000000000E+00  0.45593999997E+02  0.45594000000E+02  0.51100000000E-03 0. -1.
         11   -1    0    0    0    0 -0.00000000000E+00 -0.00000000000E+00 -0.45593999997E+02  0.45594000000E+02  0.51100000000E-03 0.  1.
    9900012    2    1    2    0    0  0.11595671308E+02  0.26950164257E+02  0.28149508323E+02  0.50528858772E+02  0.29999996724E+02 0.  0.
        -12    1    1    2    0    0 -0.11595671308E+02 -0.26950164257E+02 -0.28149508323E+02  0.40659141228E+02  0.00000000000E+00 0.  1.
         11    1    3    3    0    0  0.19804355233E+01 -0.21397559096E+01  0.54598361779E+01  0.61895469597E+01  0.51100000000E-03 0. -1.
        -11    1    3    3    0    0  0.50053589124E+01  0.28343509109E+01  0.15787935378E+02  0.16803156450E+02  0.51100000000E-03 0.  1.
         12    1    3    3    0    0  0.46098768720E+01  0.26255569256E+02  0.69017367670E+01  0.27536155362E+02  0.00000000000E+00 0. -1.
</event>
<event>
 7    1  0.5913457E-013  0.5052886E+02  0.7816164E-02  0.1300439E+00
        -11   -1    0    0    0    0  0.00000000000E+00  0.00000000000E+00  0.45593999997E+02  0.45594000000E+02  0.51100000000E-03 0. -1.
         11   -1    0    0    0    0 -0.00000000000E+00 -0.00000000000E+00 -0.45593999997E+02  0.45594000000E+02  0.51100000000E-03 0.  1.
    9900012    2    1    2    0    0 -0.10636825005E+02 -0.30378241722E+02 -0.24843231076E+02  0.50528859003E+02  0.29999997426E+02 0.  0.
        -12    1    1    2    0    0  0.10636825005E+02  0.30378241722E+02  0.24843231076E+02  0.40659140997E+02  0.00000000000E+00 0.  1.
         11    1    3    3    0    0  0.40082932741E+01 -0.13550243941E+00  0.28384596245E+01  0.49134131908E+01  0.51100000000E-03 0. -1.
        -11    1    3    3    0    0 -0.11987702066E+01  0.14170717436E+01 -0.15466664866E+01  0.24160545972E+01  0.51100000000E-03 0.  1.
        -12    1    3    3    0    0 -0.13446348073E+02 -0.31659811026E+02 -0.26135024214E+02  0.43199391215E+02  0.00000000000E+00 0.  1.
</event>
<event>
 7    1  0.5913457E-013  0.5052885E+02  0.7816164E-02  0.1300439E+00
        -11   -1    0    0    0    0  0.00000000000E+00  0.00000000000E+00  0.45593999997E+02  0.45594000000E+02  0.51100000000E-03 0. -1.
         11   -1    0    0    0    0 -0.00000000000E+00 -0.00000000000E+00 -0.45593999997E+02  0.45594000000E+02  0.51100000000E-03 0.  1.
    9900012    2    1    2    0    0  0.55842767608E+01  0.37629977664E+02  0.14351541449E+02  0.50528854560E+02  0.29999983920E+02 0.  0.
        -12    1    1    2    0    0 -0.55842767608E+01 -0.37629977664E+02 -0.14351541449E+02  0.40659145440E+02  0.00000000000E+00 0.  1.
         11    1    3    3    0    0  0.99433806982E+01  0.27584418701E+02  0.16306734511E+02  0.33551163399E+02  0.51100000000E-03 0. -1.
        -11    1    3    3    0    0  0.17277618415E+01  0.88834600137E+00  0.40189629916E+01  0.44638977798E+01  0.51100000000E-03 0.  1.
         12    1    3    3    0    0 -0.60868657789E+01  0.91572129620E+01 -0.59741560528E+01  0.12513793381E+02  0.00000000000E+00 0. -1.
</event>
<event>
 7    1  0.5913457E-013  0.5052885E+02  0.7816164E-02  0.1300439E+00
        -11   -1    0    0    0    0  0.00000000000E+00  0.00000000000E+00  0.45593999997E+02  0.45594000000E+02  0.51100000000E-03 0. -1.
         11   -1    0    0    0    0 -0.00000000000E+00 -0.00000000000E+00 -0.45593999997E+02  0.45594000000E+02  0.51100000000E-03 0.  1.
    9900012    2    1    2    0    0 -0.31536444858E+02 -0.86330678512E+01  0.24167932887E+02  0.50528853491E+02  0.29999980670E+02 0.  0.
        -12    1    1    2    0    0  0.31536444858E+02  0.86330678512E+01 -0.24167932887E+02  0.40659146509E+02  0.00000000000E+00 0.  1.
         11    1    3    3    0    0 -0.12485816079E+02 -0.80802557662E+01  0.74465089117E+01  0.16632397050E+02  0.51100000000E-03 0. -1.
        -11    1    3    3    0    0 -0.67801779917E+01 -0.66656660681E+01 -0.29180290948E+01  0.99456931277E+01  0.51100000000E-03 0.  1.
         12    1    3    3    0    0 -0.12270450788E+02  0.61128539831E+01  0.19639453070E+02  0.23950763313E+02  0.00000000000E+00 0. -1.
</event>
<event>
 7    1  0.5913457E-013  0.5052886E+02  0.7816164E-02  0.1300439E+00
        -11   -1    0    0    0    0  0.00000000000E+00  0.00000000000E+00  0.45593999997E+02  0.45594000000E+02  0.51100000000E-03 0.  1.
         11   -1    0    0    0    0 -0.00000000000E+00 -0.00000000000E+00 -0.45593999997E+02  0.45594000000E+02  0.51100000000E-03 0. -1.
    9900012    2    1    2    0    0  0.14772442878E+02  0.34295796044E+02 -0.16085369139E+02  0.50528858406E+02  0.29999995610E+02 0.  0.
        -12    1    1    2    0    0 -0.14772442878E+02 -0.34295796044E+02  0.16085369139E+02  0.40659141594E+02  0.00000000000E+00 0.  1.
         11    1    3    3    0    0 -0.55009660223E+01  0.36575893872E+01 -0.21553286684E+01  0.69486710409E+01  0.51100000000E-03 0. -1.
        -11    1    3    3    0    0  0.95810720549E+01  0.17235305684E+02  0.24463141819E+01  0.19870509734E+02  0.51100000000E-03 0.  1.
         12    1    3    3    0    0  0.10692336845E+02  0.13402900973E+02 -0.16376354652E+02  0.23709677631E+02  0.00000000000E+00 0. -1.
</event>
<event>
 7    1  0.5913457E-013  0.5052886E+02  0.7816164E-02  0.1300439E+00
        -11   -1    0    0    0    0  0.00000000000E+00  0.00000000000E+00  0.45593999997E+02  0.45594000000E+02  0.51100000000E-03 0.  1.
         11   -1    0    0    0    0 -0.00000000000E+00 -0.00000000000E+00 -0.45593999997E+02  0.45594000000E+02  0.51100000000E-03 0. -1.
    9900012    2    1    2    0    0 -0.35142286893E+02 -0.17808123226E+02 -0.10052672941E+02  0.50528858173E+02  0.29999994901E+02 0.  0.
        -12    1    1    2    0    0  0.35142286893E+02  0.17808123226E+02  0.10052672941E+02  0.40659141827E+02  0.00000000000E+00 0.  1.
         11    1    3    3    0    0 -0.55357388548E+01  0.18017929334E+01  0.14664413474E+01  0.60034417570E+01  0.51100000000E-03 0. -1.
        -11    1    3    3    0    0 -0.15041681478E+02 -0.12251054805E+02  0.62679050786E+01  0.20386936009E+02  0.51100000000E-03 0.  1.
         12    1    3    3    0    0 -0.14564866560E+02 -0.73588613548E+01 -0.17787019367E+02  0.24138480406E+02  0.00000000000E+00 0. -1.
</event>
<event>
 7    1  0.5913457E-013  0.5052886E+02  0.7816164E-02  0.1300439E+00
        -11   -1    0    0    0    0  0.00000000000E+00  0.00000000000E+00  0.45593999997E+02  0.45594000000E+02  0.51100000000E-03 0. -1.
         11   -1    0    0    0    0 -0.00000000000E+00 -0.00000000000E+00 -0.45593999997E+02  0.45594000000E+02  0.51100000000E-03 0.  1.
    9900012    2    1    2    0    0 -0.34574935294E+02 -0.12074160784E+02  0.17662225598E+02  0.50528859302E+02  0.29999998335E+02 0.  0.
        -12    1    1    2    0    0  0.34574935294E+02  0.12074160784E+02 -0.17662225598E+02  0.40659140698E+02  0.00000000000E+00 0.  1.
         11    1    3    3    0    0  0.26566281804E+01 -0.11791688214E+01  0.12880565959E+01  0.31791826707E+01  0.51100000000E-03 0.  1.
        -11    1    3    3    0    0 -0.37729594225E+02 -0.51682858428E+01  0.16720422566E+02  0.41590936392E+02  0.51100000000E-03 0. -1.
         12    1    3    3    0    0  0.49803075059E+00 -0.57267061201E+01 -0.34625356434E+00  0.57587402394E+01  0.00000000000E+00 0. -1.
</event>
<event>
 7    1  0.6633131E-013  0.5052886E+02  0.7816164E-02  0.1300439E+00
        -11   -1    0    0    0    0  0.00000000000E+00  0.00000000000E+00  0.45593999997E+02  0.45594000000E+02  0.51100000000E-03 0.  1.
         11   -1    0    0    0    0 -0.00000000000E+00 -0.00000000000E+00 -0.45593999997E+02  0.45594000000E+02  0.51100000000E-03 0. -1.
    9900012    2    1    2    0    0 -0.16849539304E+02  0.31913030852E+02 -0.18730119458E+02  0.50528857266E+02  0.29999992147E+02 0.  0.
        -12    1    1    2    0    0  0.16849539304E+02 -0.31913030852E+02  0.18730119458E+02  0.40659142734E+02  0.00000000000E+00 0.  1.
         11    1    3    3    0    0 -0.17811117284E+02  0.17217402548E+02 -0.15096135451E+02  0.29009794126E+02  0.51100000000E-03 0. -1.
        -11    1    3    3    0    0  0.32309841319E+01  0.42386817283E+01 -0.82852847916E+01  0.98514783456E+01  0.51100000000E-03 0.  1.
        -12    1    3    3    0    0 -0.22694061521E+01  0.10456946576E+02  0.46513007841E+01  0.11667584795E+02  0.00000000000E+00 0.  1.
</event>
<event>
 7    1  0.5913457E-013  0.5052886E+02  0.7816164E-02  0.1300439E+00
        -11   -1    0    0    0    0  0.00000000000E+00  0.00000000000E+00  0.45593999997E+02  0.45594000000E+02  0.51100000000E-03 0. -1.
         11   -1    0    0    0    0 -0.00000000000E+00 -0.00000000000E+00 -0.45593999997E+02  0.45594000000E+02  0.51100000000E-03 0.  1.
    9900012    2    1    2    0    0 -0.93666482338E+01 -0.33271508652E+02  0.21411163060E+02  0.50528864609E+02  0.30000014467E+02 0.  0.
        -12    1    1    2    0    0  0.93666482338E+01  0.33271508652E+02 -0.21411163060E+02  0.40659135391E+02  0.00000000000E+00 0.  1.
         11    1    3    3    0    0  0.13330212214E+01 -0.15302479146E+02  0.20131711835E+02  0.25322492675E+02  0.51100000000E-03 0. -1.
        -11    1    3    3    0    0 -0.70458062820E+01 -0.11663346711E+01  0.33470861934E+01  0.78871229847E+01  0.51100000000E-03 0.  1.
         12    1    3    3    0    0 -0.36538631731E+01 -0.16802694836E+02 -0.20676349690E+01  0.17319248950E+02  0.00000000000E+00 0. -1.
</event>
<event>
 7    1  0.5913457E-013  0.5052886E+02  0.7816164E-02  0.1300439E+00
        -11   -1    0    0    0    0  0.00000000000E+00  0.00000000000E+00  0.45593999997E+02  0.45594000000E+02  0.51100000000E-03 0.  1.
         11   -1    0    0    0    0 -0.00000000000E+00 -0.00000000000E+00 -0.45593999997E+02  0.45594000000E+02  0.51100000000E-03 0. -1.
    9900012    2    1    2    0    0  0.17543006489E+02  0.26784487713E+02 -0.25059928410E+02  0.50528857478E+02  0.29999992790E+02 0.  0.
        -12    1    1    2    0    0 -0.17543006489E+02 -0.26784487713E+02  0.25059928410E+02  0.40659142522E+02  0.00000000000E+00 0.  1.
         11    1    3    3    0    0  0.24677656278E+01  0.99411206684E+01 -0.10896023629E+02  0.14954567146E+02  0.51100000000E-03 0. -1.
        -11    1    3    3    0    0 -0.56285904553E+01  0.34270177507E+01  0.92598522460E+00  0.66545420635E+01  0.51100000000E-03 0.  1.
        -12    1    3    3    0    0  0.20703831316E+02  0.13416349294E+02 -0.15089890006E+02  0.28919748269E+02  0.00000000000E+00 0.  1.
</event>
<event>
 7    1  0.5913457E-013  0.5052885E+02  0.7816164E-02  0.1300439E+00
        -11   -1    0    0    0    0  0.00000000000E+00  0.00000000000E+00  0.45593999997E+02  0.45594000000E+02  0.51100000000E-03 0.  1.
         11   -1    0    0    0    0 -0.00000000000E+00 -0.00000000000E+00 -0.45593999997E+02  0.45594000000E+02  0.51100000000E-03 0. -1.
    9900012    2    1    2    0    0  0.54937262321E+01 -0.37599826512E+02 -0.14465084306E+02  0.50528847948E+02  0.29999963822E+02 0.  0.
        -12    1    1    2    0    0 -0.54937262321E+01  0.37599826512E+02  0.14465084306E+02  0.40659152052E+02  0.00000000000E+00 0.  1.
         11    1    3    3    0    0  0.10706442830E+02 -0.25859933772E+02 -0.17875982473E+01  0.28045669907E+02  0.51100000000E-03 0. -1.
        -11    1    3    3    0    0  0.33578643642E+01 -0.44481716904E+00 -0.58185789059E+01  0.67326797153E+01  0.51100000000E-03 0.  1.
        -12    1    3    3    0    0 -0.85705809625E+01 -0.11295075571E+02 -0.68589071526E+01  0.15750498326E+02  0.00000000000E+00 0.  1.
</event>
<event>
 7    1  0.5913457E-013  0.5052886E+02  0.7816164E-02  0.1300439E+00
        -11   -1    0    0    0    0  0.00000000000E+00  0.00000000000E+00  0.45593999997E+02  0.45594000000E+02  0.51100000000E-03 0.  1.
         11   -1    0    0    0    0 -0.00000000000E+00 -0.00000000000E+00 -0.45593999997E+02  0.45594000000E+02  0.51100000000E-03 0. -1.
    9900012    2    1    2    0    0  0.74639996611E+01 -0.93797558194E+01 -0.38851954870E+02  0.50528861945E+02  0.30000006368E+02 0.  0.
        -12    1    1    2    0    0 -0.74639996611E+01  0.93797558194E+01  0.38851954870E+02  0.40659138055E+02  0.00000000000E+00 0.  1.
         11    1    3    3    0    0 -0.53829150288E+01 -0.39840374771E+00 -0.58006379158E+01  0.79235030286E+01  0.51100000000E-03 0. -1.
        -11    1    3    3    0    0 -0.23041044533E+01  0.11240601809E+01  0.19019278849E+01  0.31921369899E+01  0.51100000000E-03 0.  1.
         12    1    3    3    0    0  0.15151019143E+02 -0.10105412253E+02 -0.34953244839E+02  0.39413221927E+02  0.00000000000E+00 0. -1.
</event>
<event>
 7    1  0.5913457E-013  0.5052886E+02  0.7816164E-02  0.1300439E+00
        -11   -1    0    0    0    0  0.00000000000E+00  0.00000000000E+00  0.45593999997E+02  0.45594000000E+02  0.51100000000E-03 0.  1.
         11   -1    0    0    0    0 -0.00000000000E+00 -0.00000000000E+00 -0.45593999997E+02  0.45594000000E+02  0.51100000000E-03 0. -1.
    9900012    2    1    2    0    0  0.11175096490E+02 -0.83255070570E+01 -0.38196454973E+02  0.50528855619E+02  0.29999987140E+02 0.  0.
        -12    1    1    2    0    0 -0.11175096490E+02  0.83255070570E+01  0.38196454973E+02  0.40659144381E+02  0.00000000000E+00 0.  1.
         11    1    3    3    0    0  0.69429884684E+01 -0.13664565527E+02 -0.16185082756E+02  0.22290857857E+02  0.51100000000E-03 0.  1.
        -11    1    3    3    0    0  0.87328416283E+01  0.23562892140E+01 -0.48835741217E+01  0.10279295610E+02  0.51100000000E-03 0. -1.
        -12    1    3    3    0    0 -0.45007336069E+01  0.29827692560E+01 -0.17127798095E+02  0.17958702153E+02  0.00000000000E+00 0.  1.
</event>
<event>
 7    1  0.5913457E-013  0.5052886E+02  0.7816164E-02  0.1300439E+00
        -11   -1    0    0    0    0  0.00000000000E+00  0.00000000000E+00  0.45593999997E+02  0.45594000000E+02  0.51100000000E-03 0.  1.
         11   -1    0    0    0    0 -0.00000000000E+00 -0.00000000000E+00 -0.45593999997E+02  0.45594000000E+02  0.51100000000E-03 0. -1.
    9900012    2    1    2    0    0  0.29676520973E+02  0.84527793985E+01 -0.26476793553E+02  0.50528856214E+02  0.29999988947E+02 0.  0.
        -12    1    1    2    0    0 -0.29676520973E+02 -0.84527793985E+01  0.26476793553E+02  0.40659143786E+02  0.00000000000E+00 0.  1.
         11    1    3    3    0    0 -0.17475288080E+01  0.29144325674E+01 -0.77289674602E+01  0.84430274421E+01  0.51100000000E-03 0. -1.
        -11    1    3    3    0    0  0.49483937025E+01 -0.20359482988E+01 -0.12855569661E+02  0.13924703131E+02  0.51100000000E-03 0.  1.
        -12    1    3    3    0    0  0.26475656078E+02  0.75742951300E+01 -0.58922564312E+01  0.28161125641E+02  0.00000000000E+00 0.  1.
</event>
<event>
 7    1  0.5913457E-013  0.5052886E+02  0.7816164E-02  0.1300439E+00
        -11   -1    0    0    0    0  0.00000000000E+00  0.00000000000E+00  0.45593999997E+02  0.45594000000E+02  0.51100000000E-03 0. -1.
         11   -1    0    0    0    0 -0.00000000000E+00 -0.00000000000E+00 -0.45593999997E+02  0.45594000000E+02  0.51100000000E-03 0.  1.
    9900012    2    1    2    0    0  0.16154826460E+02 -0.31232980382E+02  0.20412938791E+02  0.50528861401E+02  0.30000004715E+02 0.  0.
        -12    1    1    2    0    0 -0.16154826460E+02  0.31232980382E+02 -0.20412938791E+02  0.40659138599E+02  0.00000000000E+00 0.  1.
         11    1    3    3    0    0 -0.49745353351E+01 -0.85459779318E+01  0.84081144693E+01  0.12979835507E+02  0.51100000000E-03 0. -1.
        -11    1    3    3    0    0  0.32325010805E+01 -0.13282121857E+02  0.10571670614E+02  0.17280742001E+02  0.51100000000E-03 0.  1.
        -12    1    3    3    0    0  0.17896860715E+02 -0.94048805934E+01  0.14331537078E+01  0.20268283893E+02  0.00000000000E+00 0.  1.
</event>
<event>
 7    1  0.5913457E-013  0.5052884E+02  0.7816164E-02  0.1300439E+00
        -11   -1    0    0    0    0  0.00000000000E+00  0.00000000000E+00  0.45593999997E+02  0.45594000000E+02  0.51100000000E-03 0. -1.
         11   -1    0    0    0    0 -0.00000000000E+00 -0.00000000000E+00 -0.45593999997E+02  0.45594000000E+02  0.51100000000E-03 0.  1.
    9900012    2    1    2    0    0  0.19377600748E+02 -0.35743252450E+02 -0.30892860590E+00  0.50528844287E+02  0.29999952695E+02 0.  0.
        -12    1    1    2    0    0 -0.19377600748E+02  0.35743252450E+02  0.30892860590E+00  0.40659155713E+02  0.00000000000E+00 0.  1.
         11    1    3    3    0    0  0.59162779146E+00 -0.59241099937E+01  0.46057172799E+01  0.75271332248E+01  0.51100000000E-03 0. -1.
        -11    1    3    3    0    0  0.77390313793E+01 -0.36215966979E-01 -0.79456496331E+01  0.11091765713E+02  0.51100000000E-03 0.  1.
         12    1    3    3    0    0  0.11046941577E+02 -0.29782926489E+02  0.30310037473E+01  0.31909945349E+02  0.00000000000E+00 0. -1.
</event>
<event>
 7    1  0.5913457E-013  0.5052887E+02  0.7816164E-02  0.1300439E+00
        -11   -1    0    0    0    0  0.00000000000E+00  0.00000000000E+00  0.45593999997E+02  0.45594000000E+02  0.51100000000E-03 0.  1.
         11   -1    0    0    0    0 -0.00000000000E+00 -0.00000000000E+00 -0.45593999997E+02  0.45594000000E+02  0.51100000000E-03 0. -1.
    9900012    2    1    2    0    0  0.12983942703E+02 -0.29865600725E+02 -0.24343952610E+02  0.50528869371E+02  0.30000028941E+02 0.  0.
        -12    1    1    2    0    0 -0.12983942703E+02  0.29865600725E+02  0.24343952610E+02  0.40659130629E+02  0.00000000000E+00 0.  1.
         11    1    3    3    0    0  0.16425112887E+02 -0.15317606263E+02 -0.16162676161E+02  0.27670299889E+02  0.51100000000E-03 0. -1.
        -11    1    3    3    0    0  0.22608551031E+00 -0.13818164206E+02  0.47490179710E-01  0.13820095233E+02  0.51100000000E-03 0.  1.
         12    1    3    3    0    0 -0.36672556946E+01 -0.72983025682E+00 -0.82287666284E+01  0.90384742494E+01  0.00000000000E+00 0. -1.
</event>
<event>
 7    1  0.5913457E-013  0.5052886E+02  0.7816164E-02  0.1300439E+00
        -11   -1    0    0    0    0  0.00000000000E+00  0.00000000000E+00  0.45593999997E+02  0.45594000000E+02  0.51100000000E-03 0.  1.
         11   -1    0    0    0    0 -0.00000000000E+00 -0.00000000000E+00 -0.45593999997E+02  0.45594000000E+02  0.51100000000E-03 0. -1.
    9900012    2    1    2    0    0  0.30749971287E+02  0.25487285818E+02  0.76159992229E+01  0.50528856912E+02  0.29999991069E+02 0.  0.
        -12    1    1    2    0    0 -0.30749971287E+02 -0.25487285818E+02 -0.76159992229E+01  0.40659143088E+02  0.00000000000E+00 0.  1.
         11    1    3    3    0    0  0.47197767111E+01  0.64950964150E+01 -0.49664647661E+01  0.94407808034E+01  0.51100000000E-03 0. -1.
        -11    1    3    3    0    0  0.74740740484E+01  0.80765194441E+01 -0.61014039784E+01  0.12582491009E+02  0.51100000000E-03 0.  1.
        -12    1    3    3    0    0  0.18556120527E+02  0.10915669959E+02  0.18683867967E+02  0.28505585100E+02  0.00000000000E+00 0.  1.
</event>
<event>
 7    1  0.5913457E-013  0.5052885E+02  0.7816164E-02  0.1300439E+00
        -11   -1    0    0    0    0  0.00000000000E+00  0.00000000000E+00  0.45593999997E+02  0.45594000000E+02  0.51100000000E-03 0.  1.
         11   -1    0    0    0    0 -0.00000000000E+00 -0.00000000000E+00 -0.45593999997E+02  0.45594000000E+02  0.51100000000E-03 0. -1.
    9900012    2    1    2    0    0 -0.48643875154E+01 -0.40357495830E+02 -0.88112994929E+00  0.50528854343E+02  0.29999983261E+02 0.  0.
        -12    1    1    2    0    0  0.48643875154E+01  0.40357495830E+02  0.88112994929E+00  0.40659145657E+02  0.00000000000E+00 0.  1.
         11    1    3    3    0    0  0.33112626250E+01  0.36134145810E+00 -0.35780309004E+01  0.48884898698E+01  0.51100000000E-03 0.  1.
        -11    1    3    3    0    0 -0.50097949683E+01 -0.12020253687E+02 -0.74906032621E+01  0.15023104932E+02  0.51100000000E-03 0. -1.
         12    1    3    3    0    0 -0.31658551721E+01 -0.28698583601E+02  0.10187504213E+02  0.30617259541E+02  0.00000000000E+00 0. -1.
</event>
<event>
 7    1  0.5913457E-013  0.5052886E+02  0.7816164E-02  0.1300439E+00
        -11   -1    0    0    0    0  0.00000000000E+00  0.00000000000E+00  0.45593999997E+02  0.45594000000E+02  0.51100000000E-03 0. -1.
         11   -1    0    0    0    0 -0.00000000000E+00 -0.00000000000E+00 -0.45593999997E+02  0.45594000000E+02  0.51100000000E-03 0.  1.
    9900012    2    1    2    0    0  0.44024188016E+01  0.33643122882E+02  0.22403671546E+02  0.50528861945E+02  0.30000006369E+02 0.  0.
        -12    1    1    2    0    0 -0.44024188016E+01 -0.33643122882E+02 -0.22403671546E+02  0.40659138055E+02  0.00000000000E+00 0.  1.
         11    1    3    3    0    0  0.56155539229E+01  0.89909041833E+01  0.20591201024E+02  0.23159627885E+02  0.51100000000E-03 0. -1.
        -11    1    3    3    0    0 -0.10622219747E+00  0.18971112208E+01 -0.34941372861E+01  0.39773495917E+01  0.51100000000E-03 0.  1.
        -12    1    3    3    0    0 -0.11069129238E+01  0.22755107478E+02  0.53066078089E+01  0.23391884469E+02  0.00000000000E+00 0.  1.
</event>
<event>
 7    1  0.5913457E-013  0.5052887E+02  0.7816164E-02  0.1300439E+00
        -11   -1    0    0    0    0  0.00000000000E+00  0.00000000000E+00  0.45593999997E+02  0.45594000000E+02  0.51100000000E-03 0.  1.
         11   -1    0    0    0    0 -0.00000000000E+00 -0.00000000000E+00 -0.45593999997E+02  0.45594000000E+02  0.51100000000E-03 0. -1.
    9900012    2    1    2    0    0 -0.29457904707E+02 -0.74037522648E+01 -0.27029272039E+02  0.50528865180E+02  0.30000016202E+02 0.  0.
        -12    1    1    2    0    0  0.29457904707E+02  0.74037522648E+01  0.27029272039E+02  0.40659134820E+02  0.00000000000E+00 0.  1.
         11    1    3    3    0    0 -0.76815689649E+01 -0.79094106613E+01 -0.17993282321E+02  0.21102689111E+02  0.51100000000E-03 0. -1.
        -11    1    3    3    0    0 -0.17110916592E+02  0.53615769832E+01 -0.12495451534E+02  0.21855577861E+02  0.51100000000E-03 0.  1.
        -12    1    3    3    0    0 -0.46654191504E+01 -0.48559185868E+01  0.34594618160E+01  0.75705982080E+01  0.00000000000E+00 0.  1.
</event>
<event>
 7    1  0.5913457E-013  0.5052888E+02  0.7816164E-02  0.1300439E+00
        -11   -1    0    0    0    0  0.00000000000E+00  0.00000000000E+00  0.45593999997E+02  0.45594000000E+02  0.51100000000E-03 0.  1.
         11   -1    0    0    0    0 -0.00000000000E+00 -0.00000000000E+00 -0.45593999997E+02  0.45594000000E+02  0.51100000000E-03 0. -1.
    9900012    2    1    2    0    0 -0.17378735626E+02  0.47195968358E+01 -0.36453654013E+02  0.50528881255E+02  0.30000065063E+02 0.  0.
        -12    1    1    2    0    0  0.17378735626E+02 -0.47195968358E+01  0.36453654013E+02  0.40659118745E+02  0.00000000000E+00 0.  1.
         11    1    3    3    0    0  0.83353730924E+00  0.91803399675E+01 -0.78063650527E+01  0.12079435498E+02  0.51100000000E-03 0. -1.
        -11    1    3    3    0    0 -0.48474207527E+01  0.50921205525E+01 -0.22942630307E+01  0.73953243870E+01  0.51100000000E-03 0.  1.
         12    1    3    3    0    0 -0.13364852182E+02 -0.95528636842E+01 -0.26353025929E+02  0.31054121370E+02  0.00000000000E+00 0. -1.
</event>
<event>
 7    1  0.5913457E-013  0.5052884E+02  0.7816164E-02  0.1300439E+00
        -11   -1    0    0    0    0  0.00000000000E+00  0.00000000000E+00  0.45593999997E+02  0.45594000000E+02  0.51100000000E-03 0.  1.
         11   -1    0    0    0    0 -0.00000000000E+00 -0.00000000000E+00 -0.45593999997E+02  0.45594000000E+02  0.51100000000E-03 0. -1.
    9900012    2    1    2    0    0  0.55866160815E+01 -0.16344938314E+02 -0.36807612506E+02  0.50528835890E+02  0.29999927171E+02 0.  0.
        -12    1    1    2    0    0 -0.55866160815E+01  0.16344938314E+02  0.36807612506E+02  0.40659164110E+02  0.00000000000E+00 0.  1.
         11    1    3    3    0    0 -0.23660944326E+01  0.38078034617E+01 -0.81256162002E+01  0.92802698754E+01  0.51100000000E-03 0. -1.
        -11    1    3    3    0    0 -0.38217741540E+01  0.13932294673E+01 -0.88999036801E+00  0.41640279957E+01  0.51100000000E-03 0.  1.
         12    1    3    3    0    0  0.11774484668E+02 -0.21545971243E+02 -0.27792005938E+02  0.37084538019E+02  0.00000000000E+00 0. -1.
</event>
<event>
 7    1  0.5913457E-013  0.5052886E+02  0.7816164E-02  0.1300439E+00
        -11   -1    0    0    0    0  0.00000000000E+00  0.00000000000E+00  0.45593999997E+02  0.45594000000E+02  0.51100000000E-03 0. -1.
         11   -1    0    0    0    0 -0.00000000000E+00 -0.00000000000E+00 -0.45593999997E+02  0.45594000000E+02  0.51100000000E-03 0.  1.
    9900012    2    1    2    0    0  0.14671030547E+02  0.12155386329E+02  0.35918976593E+02  0.50528862852E+02  0.30000009124E+02 0.  0.
        -12    1    1    2    0    0 -0.14671030547E+02 -0.12155386329E+02 -0.35918976593E+02  0.40659137148E+02  0.00000000000E+00 0.  1.
         11    1    3    3    0    0  0.19393061624E+01  0.22435607089E+01  0.92777096352E+01  0.97401421644E+01  0.51100000000E-03 0. -1.
        -11    1    3    3    0    0  0.49404333237E+01  0.12722507313E+02  0.29106017488E+02  0.32147011183E+02  0.51100000000E-03 0.  1.
        -12    1    3    3    0    0  0.77912910613E+01 -0.28106816928E+01 -0.24647505295E+01  0.86417095041E+01  0.00000000000E+00 0.  1.
</event>
<event>
 7    1  0.5913457E-013  0.5052887E+02  0.7816164E-02  0.1300439E+00
        -11   -1    0    0    0    0  0.00000000000E+00  0.00000000000E+00  0.45593999997E+02  0.45594000000E+02  0.51100000000E-03 0.  1.
         11   -1    0    0    0    0 -0.00000000000E+00 -0.00000000000E+00 -0.45593999997E+02  0.45594000000E+02  0.51100000000E-03 0. -1.
    9900012    2    1    2    0    0  0.78499118002E+01  0.99114703762E+01 -0.38643328151E+02  0.50528866083E+02  0.30000018945E+02 0.  0.
        -12    1    1    2    0    0 -0.78499118002E+01 -0.99114703762E+01  0.38643328151E+02  0.40659133917E+02  0.00000000000E+00 0.  1.
         11    1    3    3    0    0  0.57337676547E+01  0.29945824351E+01 -0.25384887570E+02  0.26196109114E+02  0.51100000000E-03 0. -1.
        -11    1    3    3    0    0  0.85265704890E+01 -0.11781066430E+01 -0.10629379753E+02  0.13677501737E+02  0.51100000000E-03 0.  1.
        -12    1    3    3    0    0 -0.64104263436E+01  0.80949945841E+01 -0.26290608276E+01  0.10655255232E+02  0.00000000000E+00 0.  1.
</event>
<event>
 7    1  0.5913457E-013  0.5052887E+02  0.7816164E-02  0.1300439E+00
        -11   -1    0    0    0    0  0.00000000000E+00  0.00000000000E+00  0.45593999997E+02  0.45594000000E+02  0.51100000000E-03 0. -1.
         11   -1    0    0    0    0 -0.00000000000E+00 -0.00000000000E+00 -0.45593999997E+02  0.45594000000E+02  0.51100000000E-03 0.  1.
    9900012    2    1    2    0    0  0.35650854392E+02 -0.18683973350E+02  0.57524681618E+01  0.50528866106E+02  0.30000019017E+02 0.  0.
        -12    1    1    2    0    0 -0.35650854392E+02  0.18683973350E+02 -0.57524681618E+01  0.40659133894E+02  0.00000000000E+00 0.  1.
         11    1    3    3    0    0  0.90740283081E+01 -0.77498819027E+01  0.59878300379E+01  0.13351133587E+02  0.51100000000E-03 0. -1.
        -11    1    3    3    0    0  0.27867939338E+01 -0.56481115433E+01 -0.92526120190E+01  0.11192775075E+02  0.51100000000E-03 0.  1.
         12    1    3    3    0    0  0.23790032150E+02 -0.52859799039E+01  0.90172501428E+01  0.25984957444E+02  0.00000000000E+00 0. -1.
</event>
<event>
 7    1  0.5913457E-013  0.5052886E+02  0.7816164E-02  0.1300439E+00
        -11   -1    0    0    0    0  0.00000000000E+00  0.00000000000E+00  0.45593999997E+02  0.45594000000E+02  0.51100000000E-03 0.  1.
         11   -1    0    0    0    0 -0.00000000000E+00 -0.00000000000E+00 -0.45593999997E+02  0.45594000000E+02  0.51100000000E-03 0. -1.
    9900012    2    1    2    0    0 -0.27299044468E+02  0.73790989695E+01 -0.29214330786E+02  0.50528855226E+02  0.29999985946E+02 0.  0.
        -12    1    1    2    0    0  0.27299044468E+02 -0.73790989695E+01  0.29214330786E+02  0.40659144774E+02  0.00000000000E+00 0.  1.
         11    1    3    3    0    0 -0.25888946967E+02  0.26077037096E+01 -0.21322609415E+02  0.33640620777E+02  0.51100000000E-03 0. -1.
        -11    1    3    3    0    0 -0.43426720301E+01 -0.11359203823E+01  0.20684797655E+01  0.49424411253E+01  0.51100000000E-03 0.  1.
        -12    1    3    3    0    0  0.29325745300E+01  0.59073156422E+01 -0.99602011363E+01  0.11945793324E+02  0.00000000000E+00 0.  1.
</event>
<event>
 7    1  0.5913457E-013  0.5052887E+02  0.7816164E-02  0.1300439E+00
        -11   -1    0    0    0    0  0.00000000000E+00  0.00000000000E+00  0.45593999997E+02  0.45594000000E+02  0.51100000000E-03 0.  1.
         11   -1    0    0    0    0 -0.00000000000E+00 -0.00000000000E+00 -0.45593999997E+02  0.45594000000E+02  0.51100000000E-03 0. -1.
    9900012    2    1    2    0    0 -0.65479624826E+00  0.18871788162E+02 -0.36008215872E+02  0.50528871175E+02  0.30000034422E+02 0.  0.
        -12    1    1    2    0    0  0.65479624826E+00 -0.18871788162E+02  0.36008215872E+02  0.40659128825E+02  0.00000000000E+00 0.  1.
         11    1    3    3    0    0  0.21682005952E+01  0.92956947211E+01 -0.16969740379E+02  0.19470057087E+02  0.51100000000E-03 0. -1.
        -11    1    3    3    0    0 -0.61091253983E+01  0.11345224195E+02 -0.22525881248E+02  0.25950931610E+02  0.51100000000E-03 0.  1.
        -12    1    3    3    0    0  0.32861285549E+01 -0.17691307540E+01  0.34874057553E+01  0.51078824777E+01  0.00000000000E+00 0.  1.
</event>
<event>
 7    1  0.5913457E-013  0.5052886E+02  0.7816164E-02  0.1300439E+00
        -11   -1    0    0    0    0  0.00000000000E+00  0.00000000000E+00  0.45593999997E+02  0.45594000000E+02  0.51100000000E-03 0.  1.
         11   -1    0    0    0    0 -0.00000000000E+00 -0.00000000000E+00 -0.45593999997E+02  0.45594000000E+02  0.51100000000E-03 0. -1.
    9900012    2    1    2    0    0 -0.26003746292E+02  0.11222714756E+02 -0.29172279861E+02  0.50528855149E+02  0.29999985712E+02 0.  0.
        -12    1    1    2    0    0  0.26003746292E+02 -0.11222714756E+02  0.29172279861E+02  0.40659144851E+02  0.00000000000E+00 0.  1.
         11    1    3    3    0    0 -0.18856040429E+02  0.75095905821E+01 -0.10393700545E+02  0.22802921362E+02  0.51100000000E-03 0. -1.
        -11    1    3    3    0    0 -0.10783308224E+02  0.45040779896E+01 -0.37944034412E+01  0.12286738889E+02  0.51100000000E-03 0.  1.
        -12    1    3    3    0    0  0.36356023608E+01 -0.79095381575E+00 -0.14984175875E+02  0.15439194898E+02  0.00000000000E+00 0.  1.
</event>
<event>
 7    1  0.5913457E-013  0.5052887E+02  0.7816164E-02  0.1300439E+00
        -11   -1    0    0    0    0  0.00000000000E+00  0.00000000000E+00  0.45593999997E+02  0.45594000000E+02  0.51100000000E-03 0.  1.
         11   -1    0    0    0    0 -0.00000000000E+00 -0.00000000000E+00 -0.45593999997E+02  0.45594000000E+02  0.51100000000E-03 0. -1.
    9900012    2    1    2    0    0  0.64025652108E+00 -0.40621094969E+02 -0.16376092077E+01  0.50528867584E+02  0.30000023509E+02 0.  0.
        -12    1    1    2    0    0 -0.64025652108E+00  0.40621094969E+02  0.16376092077E+01  0.40659132416E+02  0.00000000000E+00 0.  1.
         11    1    3    3    0    0  0.24259483068E+01 -0.42661494618E+02 -0.68332489525E+01  0.43273336360E+02  0.51100000000E-03 0. -1.
        -11    1    3    3    0    0 -0.15450331307E+01 -0.81651697568E+00  0.61684415892E+00  0.18531930078E+01  0.51100000000E-03 0.  1.
         12    1    3    3    0    0 -0.24065865503E+00  0.28569166245E+01  0.45787955859E+01  0.54023382165E+01  0.00000000000E+00 0. -1.
</event>
<event>
 7    1  0.5913457E-013  0.5052886E+02  0.7816164E-02  0.1300439E+00
        -11   -1    0    0    0    0  0.00000000000E+00  0.00000000000E+00  0.45593999997E+02  0.45594000000E+02  0.51100000000E-03 0. -1.
         11   -1    0    0    0    0 -0.00000000000E+00 -0.00000000000E+00 -0.45593999997E+02  0.45594000000E+02  0.51100000000E-03 0.  1.
    9900012    2    1    2    0    0 -0.24230978342E+02  0.32649817434E+02 -0.11992596568E+00  0.50528864838E+02  0.30000015161E+02 0.  0.
        -12    1    1    2    0    0  0.24230978342E+02 -0.32649817434E+02  0.11992596568E+00  0.40659135162E+02  0.00000000000E+00 0.  1.
         11    1    3    3    0    0 -0.12313184715E+01  0.16531405271E+00 -0.39081635673E+01  0.41008799841E+01  0.51100000000E-03 0. -1.
        -11    1    3    3    0    0  0.17305194656E+01  0.10780997729E+02 -0.55178489011E+01  0.12234020860E+02  0.51100000000E-03 0.  1.
         12    1    3    3    0    0 -0.24730179336E+02  0.21703505653E+02  0.93060865027E+01  0.34193963994E+02  0.00000000000E+00 0. -1.
</event>
<event>
 7    1  0.5913457E-013  0.5052885E+02  0.7816164E-02  0.1300439E+00
        -11   -1    0    0    0    0  0.00000000000E+00  0.00000000000E+00  0.45593999997E+02  0.45594000000E+02  0.51100000000E-03 0.  1.
         11   -1    0    0    0    0 -0.00000000000E+00 -0.00000000000E+00 -0.45593999997E+02  0.45594000000E+02  0.51100000000E-03 0. -1.
    9900012    2    1    2    0    0  0.10524933314E+02 -0.38236287910E+02 -0.89653903747E+01  0.50528853932E+02  0.29999982013E+02 0.  0.
        -12    1    1    2    0    0 -0.10524933314E+02  0.38236287910E+02  0.89653903747E+01  0.40659146068E+02  0.00000000000E+00 0.  1.
         11    1    3    3    0    0  0.51033299994E+01 -0.16063676803E+01 -0.93538498895E+01  0.10775848098E+02  0.51100000000E-03 0. -1.
        -11    1    3    3    0    0  0.50760239137E+01 -0.18131615393E+02 -0.66344666106E+01  0.19963407600E+02  0.51100000000E-03 0.  1.
        -12    1    3    3    0    0  0.34557940123E+00 -0.18498304836E+02  0.70229261254E+01  0.19789598235E+02  0.00000000000E+00 0.  1.
</event>
<event>
 7    1  0.5913457E-013  0.5052886E+02  0.7816164E-02  0.1300439E+00
        -11   -1    0    0    0    0  0.00000000000E+00  0.00000000000E+00  0.45593999997E+02  0.45594000000E+02  0.51100000000E-03 0.  1.
         11   -1    0    0    0    0 -0.00000000000E+00 -0.00000000000E+00 -0.45593999997E+02  0.45594000000E+02  0.51100000000E-03 0. -1.
    9900012    2    1    2    0    0  0.19828228682E+02  0.64209917192E+00 -0.35490770234E+02  0.50528859382E+02  0.29999998577E+02 0.  0.
        -12    1    1    2    0    0 -0.19828228682E+02 -0.64209917192E+00  0.35490770234E+02  0.40659140618E+02  0.00000000000E+00 0.  1.
         11    1    3    3    0    0  0.87447627163E+00 -0.39539652417E+00 -0.16113826124E+02  0.16142380239E+02  0.51100000000E-03 0. -1.
        -11    1    3    3    0    0  0.12384363473E+02 -0.34344287297E-01 -0.23495132307E+02  0.26559271085E+02  0.51100000000E-03 0.  1.
        -12    1    3    3    0    0  0.65693889367E+01  0.10718399834E+01  0.41181881975E+01  0.78272080579E+01  0.00000000000E+00 0.  1.
</event>
<event>
 7    1  0.5913457E-013  0.5052886E+02  0.7816164E-02  0.1300439E+00
        -11   -1    0    0    0    0  0.00000000000E+00  0.00000000000E+00  0.45593999997E+02  0.45594000000E+02  0.51100000000E-03 0.  1.
         11   -1    0    0    0    0 -0.00000000000E+00 -0.00000000000E+00 -0.45593999997E+02  0.45594000000E+02  0.51100000000E-03 0. -1.
    9900012    2    1    2    0    0  0.22912744445E+02  0.16027219812E+02 -0.29517794438E+02  0.50528858084E+02  0.29999994631E+02 0.  0.
        -12    1    1    2    0    0 -0.22912744445E+02 -0.16027219812E+02  0.29517794438E+02  0.40659141916E+02  0.00000000000E+00 0.  1.
         11    1    3    3    0    0  0.89793409875E+00 -0.68505994106E+00  0.28752350825E+01  0.30891050175E+01  0.51100000000E-03 0. -1.
        -11    1    3    3    0    0 -0.33285897941E+01  0.24595957577E+00 -0.29259921391E+00  0.33504657424E+01  0.51100000000E-03 0.  1.
         12    1    3    3    0    0  0.25343400140E+02  0.16466320177E+02 -0.32100430307E+02  0.44089287324E+02  0.00000000000E+00 0. -1.
</event>
<event>
 7    1  0.5913457E-013  0.5052885E+02  0.7816164E-02  0.1300439E+00
        -11   -1    0    0    0    0  0.00000000000E+00  0.00000000000E+00  0.45593999997E+02  0.45594000000E+02  0.51100000000E-03 0. -1.
         11   -1    0    0    0    0 -0.00000000000E+00 -0.00000000000E+00 -0.45593999997E+02  0.45594000000E+02  0.51100000000E-03 0.  1.
    9900012    2    1    2    0    0 -0.21702229564E+02 -0.13013388008E+02  0.31825008041E+02  0.50528853768E+02  0.29999981513E+02 0.  0.
        -12    1    1    2    0    0  0.21702229564E+02  0.13013388008E+02 -0.31825008041E+02  0.40659146232E+02  0.00000000000E+00 0.  1.
         11    1    3    3    0    0 -0.12821671593E+02 -0.74835196189E+01  0.23970189231E+02  0.28195182219E+02  0.51100000000E-03 0. -1.
        -11    1    3    3    0    0 -0.17283438062E+01 -0.80117714577E+01  0.11346140566E+02  0.13996805357E+02  0.51100000000E-03 0.  1.
        -12    1    3    3    0    0 -0.71522141646E+01  0.24819030688E+01 -0.34913217559E+01  0.83368661919E+01  0.00000000000E+00 0.  1.
</event>
<event>
 7    1  0.5913457E-013  0.5052886E+02  0.7816164E-02  0.1300439E+00
        -11   -1    0    0    0    0  0.00000000000E+00  0.00000000000E+00  0.45593999997E+02  0.45594000000E+02  0.51100000000E-03 0.  1.
         11   -1    0    0    0    0 -0.00000000000E+00 -0.00000000000E+00 -0.45593999997E+02  0.45594000000E+02  0.51100000000E-03 0. -1.
    9900012    2    1    2    0    0 -0.32533640885E+02  0.79420250063E+01 -0.23057583805E+02  0.50528859313E+02  0.29999998369E+02 0.  0.
        -12    1    1    2    0    0  0.32533640885E+02 -0.79420250063E+01  0.23057583805E+02  0.40659140687E+02  0.00000000000E+00 0.  1.
         11    1    3    3    0    0 -0.19508816000E+02 -0.53385327156E+01 -0.17661011604E+02  0.26851539331E+02  0.51100000000E-03 0.  1.
        -11    1    3    3    0    0 -0.11907268075E+02  0.12218995364E+02 -0.93349270199E+01  0.19448078143E+02  0.51100000000E-03 0. -1.
        -12    1    3    3    0    0 -0.11175568095E+01  0.10615623581E+01  0.39383548187E+01  0.42292418400E+01  0.00000000000E+00 0.  1.
</event>
<event>
 7    1  0.5913457E-013  0.5052886E+02  0.7816164E-02  0.1300439E+00
        -11   -1    0    0    0    0  0.00000000000E+00  0.00000000000E+00  0.45593999997E+02  0.45594000000E+02  0.51100000000E-03 0.  1.
         11   -1    0    0    0    0 -0.00000000000E+00 -0.00000000000E+00 -0.45593999997E+02  0.45594000000E+02  0.51100000000E-03 0. -1.
    9900012    2    1    2    0    0  0.22131182332E+02 -0.27026429613E+02  0.20807413274E+02  0.50528861099E+02  0.30000003797E+02 0.  0.
        -12    1    1    2    0    0 -0.22131182332E+02  0.27026429613E+02 -0.20807413274E+02  0.40659138901E+02  0.00000000000E+00 0.  1.
         11    1    3    3    0    0  0.16815845623E+02 -0.11127392491E+02  0.11269677871E+02  0.23099722233E+02  0.51100000000E-03 0. -1.
        -11    1    3    3    0    0  0.12015118435E+02 -0.14572477385E+02  0.70876021696E+01  0.20173107666E+02  0.51100000000E-03 0.  1.
        -12    1    3    3    0    0 -0.66997817261E+01 -0.13265597366E+01  0.24501332331E+01  0.72560311997E+01  0.00000000000E+00 0.  1.
</event>
<event>
 7    1  0.5913457E-013  0.5052887E+02  0.7816164E-02  0.1300439E+00
        -11   -1    0    0    0    0  0.00000000000E+00  0.00000000000E+00  0.45593999997E+02  0.45594000000E+02  0.51100000000E-03 0.  1.
         11   -1    0    0    0    0 -0.00000000000E+00 -0.00000000000E+00 -0.45593999997E+02  0.45594000000E+02  0.51100000000E-03 0. -1.
    9900012    2    1    2    0    0 -0.37154122918E+02  0.35323949805E+00 -0.16510947166E+02  0.50528868132E+02  0.30000025173E+02 0.  0.
        -12    1    1    2    0    0  0.37154122918E+02 -0.35323949805E+00  0.16510947166E+02  0.40659131868E+02  0.00000000000E+00 0.  1.
         11    1    3    3    0    0 -0.63953199880E+01  0.67205157170E+01 -0.33844886477E+01  0.98752322970E+01  0.51100000000E-03 0. -1.
        -11    1    3    3    0    0 -0.12245645709E+02 -0.17438268496E+01  0.59024386917E+01  0.13705311149E+02  0.51100000000E-03 0.  1.
         12    1    3    3    0    0 -0.18513157221E+02 -0.46234493693E+01 -0.19028897210E+02  0.26948324686E+02  0.00000000000E+00 0. -1.
</event>
<event>
 7    1  0.5913457E-013  0.5052886E+02  0.7816164E-02  0.1300439E+00
        -11   -1    0    0    0    0  0.00000000000E+00  0.00000000000E+00  0.45593999997E+02  0.45594000000E+02  0.51100000000E-03 0.  1.
         11   -1    0    0    0    0 -0.00000000000E+00 -0.00000000000E+00 -0.45593999997E+02  0.45594000000E+02  0.51100000000E-03 0. -1.
    9900012    2    1    2    0    0 -0.19422909733E+02  0.78271831515E+01 -0.34851846909E+02  0.50528862631E+02  0.30000008454E+02 0.  0.
        -12    1    1    2    0    0  0.19422909733E+02 -0.78271831515E+01  0.34851846909E+02  0.40659137369E+02  0.00000000000E+00 0.  1.
         11    1    3    3    0    0 -0.78424392550E+01  0.28949968024E+01 -0.34772799068E+01  0.90540784051E+01  0.51100000000E-03 0.  1.
        -11    1    3    3    0    0 -0.18112363012E+02  0.33902240738E+01 -0.14939343353E+02  0.23722042350E+02  0.51100000000E-03 0. -1.
         12    1    3    3    0    0  0.65318925338E+01  0.15419622753E+01 -0.16435223649E+02  0.17752741876E+02  0.00000000000E+00 0. -1.
</event>
<event>
 7    1  0.6974237E-013  0.5052886E+02  0.7816164E-02  0.1300439E+00
        -11   -1    0    0    0    0  0.00000000000E+00  0.00000000000E+00  0.45593999997E+02  0.45594000000E+02  0.51100000000E-03 0. -1.
         11   -1    0    0    0    0 -0.00000000000E+00 -0.00000000000E+00 -0.45593999997E+02  0.45594000000E+02  0.51100000000E-03 0.  1.
    9900012    2    1    2    0    0 -0.11743284666E+01  0.12637066298E+02  0.38627596196E+02  0.50528859824E+02  0.29999999921E+02 0.  0.
        -12    1    1    2    0    0  0.11743284666E+01 -0.12637066298E+02 -0.38627596196E+02  0.40659140176E+02  0.00000000000E+00 0.  1.
         11    1    3    3    0    0  0.60087050066E+01  0.92464847824E+01  0.28961006279E+02  0.30989383692E+02  0.51100000000E-03 0. -1.
        -11    1    3    3    0    0 -0.10352094867E+01 -0.41972926850E+01  0.87138355392E+01  0.97272737512E+01  0.51100000000E-03 0.  1.
        -12    1    3    3    0    0 -0.61478239865E+01  0.75878742008E+01  0.95275437819E+00  0.98122023807E+01  0.00000000000E+00 0.  1.
</event>
<event>
 7    1  0.5913457E-013  0.5052885E+02  0.7816164E-02  0.1300439E+00
        -11   -1    0    0    0    0  0.00000000000E+00  0.00000000000E+00  0.45593999997E+02  0.45594000000E+02  0.51100000000E-03 0. -1.
         11   -1    0    0    0    0 -0.00000000000E+00 -0.00000000000E+00 -0.45593999997E+02  0.45594000000E+02  0.51100000000E-03 0.  1.
    9900012    2    1    2    0    0  0.18947293711E+02  0.35489325692E+02 -0.58884571014E+01  0.50528854607E+02  0.29999984065E+02 0.  0.
        -12    1    1    2    0    0 -0.18947293711E+02 -0.35489325692E+02  0.58884571014E+01  0.40659145393E+02  0.00000000000E+00 0.  1.
         11    1    3    3    0    0  0.19007697822E+02  0.26642595782E+02 -0.34880533116E+01  0.32913325610E+02  0.51100000000E-03 0. -1.
        -11    1    3    3    0    0  0.52867597148E+01  0.15840490080E+01  0.37737339529E+01  0.66858139183E+01  0.51100000000E-03 0.  1.
        -12    1    3    3    0    0 -0.53471638257E+01  0.72626809013E+01 -0.61741377428E+01  0.10929715080E+02  0.00000000000E+00 0.  1.
</event>
<event>
 7    1  0.5913457E-013  0.5052886E+02  0.7816164E-02  0.1300439E+00
        -11   -1    0    0    0    0  0.00000000000E+00  0.00000000000E+00  0.45593999997E+02  0.45594000000E+02  0.51100000000E-03 0.  1.
         11   -1    0    0    0    0 -0.00000000000E+00 -0.00000000000E+00 -0.45593999997E+02  0.45594000000E+02  0.51100000000E-03 0. -1.
    9900012    2    1    2    0    0  0.10557611877E+02  0.61305353000E+01 -0.38782977585E+02  0.50528856109E+02  0.29999988628E+02 0.  0.
        -12    1    1    2    0    0 -0.10557611877E+02 -0.61305353000E+01  0.38782977585E+02  0.40659143891E+02  0.00000000000E+00 0.  1.
         11    1    3    3    0    0 -0.46006390013E+01 -0.87569152305E+00 -0.63933368882E+01  0.79251165097E+01  0.51100000000E-03 0. -1.
        -11    1    3    3    0    0  0.17526643303E+02 -0.26514019902E+01 -0.21196132782E+02  0.27631308387E+02  0.51100000000E-03 0.  1.
         12    1    3    3    0    0 -0.23683924249E+01  0.96576288133E+01 -0.11193507915E+02  0.14972431213E+02  0.00000000000E+00 0. -1.
</event>
<event>
 7    1  0.5913457E-013  0.5052882E+02  0.7816164E-02  0.1300439E+00
        -11   -1    0    0    0    0  0.00000000000E+00  0.00000000000E+00  0.45593999997E+02  0.45594000000E+02  0.51100000000E-03 0.  1.
         11   -1    0    0    0    0 -0.00000000000E+00 -0.00000000000E+00 -0.45593999997E+02  0.45594000000E+02  0.51100000000E-03 0. -1.
    9900012    2    1    2    0    0 -0.12599463214E+02 -0.36962795211E+02  0.11321396278E+02  0.50528822477E+02  0.29999886402E+02 0.  0.
        -12    1    1    2    0    0  0.12599463214E+02  0.36962795211E+02 -0.11321396278E+02  0.40659177523E+02  0.00000000000E+00 0.  1.
         11    1    3    3    0    0  0.43350406740E+01 -0.45162099556E+01  0.27365140315E+01  0.68320743054E+01  0.51100000000E-03 0. -1.
        -11    1    3    3    0    0 -0.20382856203E+01 -0.16618370584E+02 -0.57009192413E+01  0.17686868846E+02  0.51100000000E-03 0.  1.
         12    1    3    3    0    0 -0.14896218268E+02 -0.15828214672E+02  0.14285801488E+02  0.26009879326E+02  0.00000000000E+00 0. -1.
</event>
<event>
 7    1  0.5913457E-013  0.5052886E+02  0.7816164E-02  0.1300439E+00
        -11   -1    0    0    0    0  0.00000000000E+00  0.00000000000E+00  0.45593999997E+02  0.45594000000E+02  0.51100000000E-03 0. -1.
         11   -1    0    0    0    0 -0.00000000000E+00 -0.00000000000E+00 -0.45593999997E+02  0.45594000000E+02  0.51100000000E-03 0.  1.
    9900012    2    1    2    0    0  0.30974899229E+02  0.92989526011E+01  0.24642461794E+02  0.50528858039E+02  0.29999994496E+02 0.  0.
        -12    1    1    2    0    0 -0.30974899229E+02 -0.92989526011E+01 -0.24642461794E+02  0.40659141961E+02  0.00000000000E+00 0.  1.
         11    1    3    3    0    0  0.28605429193E+02  0.26706319748E+01  0.13615097183E+02  0.31792667803E+02  0.51100000000E-03 0. -1.
        -11    1    3    3    0    0  0.63239988132E+01 -0.17622169289E-01  0.15635133615E+01  0.65144336532E+01  0.51100000000E-03 0.  1.
        -12    1    3    3    0    0 -0.39545287777E+01  0.66459427956E+01  0.94638512501E+01  0.12221756583E+02  0.00000000000E+00 0.  1.
</event>
<event>
 7    1  0.5913457E-013  0.5052886E+02  0.7816164E-02  0.1300439E+00
        -11   -1    0    0    0    0  0.00000000000E+00  0.00000000000E+00  0.45593999997E+02  0.45594000000E+02  0.51100000000E-03 0.  1.
         11   -1    0    0    0    0 -0.00000000000E+00 -0.00000000000E+00 -0.45593999997E+02  0.45594000000E+02  0.51100000000E-03 0. -1.
    9900012    2    1    2    0    0 -0.72799862845E+01 -0.12152027663E+02 -0.38111621728E+02  0.50528859732E+02  0.29999999641E+02 0.  0.
        -12    1    1    2    0    0  0.72799862845E+01  0.12152027663E+02  0.38111621728E+02  0.40659140268E+02  0.00000000000E+00 0.  1.
         11    1    3    3    0    0 -0.11634120091E+02 -0.77829333330E+01 -0.15149806212E+02  0.20626280083E+02  0.51100000000E-03 0. -1.
        -11    1    3    3    0    0 -0.35395363870E+01 -0.44569232854E+01 -0.21014785998E+02  0.21771856003E+02  0.51100000000E-03 0.  1.
        -12    1    3    3    0    0  0.78936701938E+01  0.87828955677E-01 -0.19470295180E+01  0.81307236454E+01  0.00000000000E+00 0.  1.
</event>
<event>
 7    1  0.5913457E-013  0.5052886E+02  0.7816164E-02  0.1300439E+00
        -11   -1    0    0    0    0  0.00000000000E+00  0.00000000000E+00  0.45593999997E+02  0.45594000000E+02  0.51100000000E-03 0.  1.
         11   -1    0    0    0    0 -0.00000000000E+00 -0.00000000000E+00 -0.45593999997E+02  0.45594000000E+02  0.51100000000E-03 0. -1.
    9900012    2    1    2    0    0 -0.17994524506E+01  0.59951191371E+01 -0.40174445464E+02  0.50528861410E+02  0.30000004741E+02 0.  0.
        -12    1    1    2    0    0  0.17994524506E+01 -0.59951191371E+01  0.40174445464E+02  0.40659138590E+02  0.00000000000E+00 0.  1.
         11    1    3    3    0    0 -0.11970341281E+02  0.35626332542E+01 -0.23655295023E+02  0.26749848765E+02  0.51100000000E-03 0. -1.
        -11    1    3    3    0    0  0.59197435731E+01  0.77118939329E+01 -0.65455306138E+01  0.11720095703E+02  0.51100000000E-03 0.  1.
        -12    1    3    3    0    0  0.42511452570E+01 -0.52794080500E+01 -0.99736198271E+01  0.12058916942E+02  0.00000000000E+00 0.  1.
</event>
<event>
 7    1  0.5913457E-013  0.5052887E+02  0.7816164E-02  0.1300439E+00
        -11   -1    0    0    0    0  0.00000000000E+00  0.00000000000E+00  0.45593999997E+02  0.45594000000E+02  0.51100000000E-03 0.  1.
         11   -1    0    0    0    0 -0.00000000000E+00 -0.00000000000E+00 -0.45593999997E+02  0.45594000000E+02  0.51100000000E-03 0. -1.
    9900012    2    1    2    0    0  0.27069471403E+02 -0.19516169986E+02 -0.23227743672E+02  0.50528865122E+02  0.30000016024E+02 0.  0.
        -12    1    1    2    0    0 -0.27069471403E+02  0.19516169986E+02  0.23227743672E+02  0.40659134878E+02  0.00000000000E+00 0.  1.
         11    1    3    3    0    0 -0.30345019392E+01 -0.55515821737E+00 -0.13537967978E+01  0.33688527270E+01  0.51100000000E-03 0. -1.
        -11    1    3    3    0    0  0.50527938434E+01  0.24834405349E+01 -0.11138214322E+02  0.12480305327E+02  0.51100000000E-03 0.  1.
        -12    1    3    3    0    0  0.25051179498E+02 -0.21444452303E+02 -0.10735732553E+02  0.34679707068E+02  0.00000000000E+00 0.  1.
</event>
<event>
 7    1  0.5913457E-013  0.5052886E+02  0.7816164E-02  0.1300439E+00
        -11   -1    0    0    0    0  0.00000000000E+00  0.00000000000E+00  0.45593999997E+02  0.45594000000E+02  0.51100000000E-03 0.  1.
         11   -1    0    0    0    0 -0.00000000000E+00 -0.00000000000E+00 -0.45593999997E+02  0.45594000000E+02  0.51100000000E-03 0. -1.
    9900012    2    1    2    0    0  0.12587329415E+02  0.36462552850E+02 -0.12853304422E+02  0.50528855190E+02  0.29999985834E+02 0.  0.
        -12    1    1    2    0    0 -0.12587329415E+02 -0.36462552850E+02  0.12853304422E+02  0.40659144810E+02  0.00000000000E+00 0.  1.
         11    1    3    3    0    0  0.18179290254E+02  0.23870628609E+02 -0.15986093638E+02  0.33997774845E+02  0.51100000000E-03 0. -1.
        -11    1    3    3    0    0 -0.28193972271E+01  0.11424916898E+02 -0.54436543019E+00  0.11780240271E+02  0.51100000000E-03 0.  1.
        -12    1    3    3    0    0 -0.27725636117E+01  0.11670073429E+01  0.36771546461E+01  0.47508400742E+01  0.00000000000E+00 0.  1.
</event>
<event>
 7    1  0.5913457E-013  0.5052885E+02  0.7816164E-02  0.1300439E+00
        -11   -1    0    0    0    0  0.00000000000E+00  0.00000000000E+00  0.45593999997E+02  0.45594000000E+02  0.51100000000E-03 0.  1.
         11   -1    0    0    0    0 -0.00000000000E+00 -0.00000000000E+00 -0.45593999997E+02  0.45594000000E+02  0.51100000000E-03 0. -1.
    9900012    2    1    2    0    0 -0.12057730884E+02 -0.31489588100E+02 -0.22719671302E+02  0.50528849777E+02  0.29999969381E+02 0.  0.
        -12    1    1    2    0    0  0.12057730884E+02  0.31489588100E+02  0.22719671302E+02  0.40659150223E+02  0.00000000000E+00 0.  1.
         11    1    3    3    0    0 -0.81910100753E+01 -0.31911701619E+01  0.35945288013E+01  0.94972022523E+01  0.51100000000E-03 0. -1.
        -11    1    3    3    0    0  0.31364960502E+01 -0.22964299826E+01 -0.65937987632E+01  0.76543700282E+01  0.51100000000E-03 0.  1.
        -12    1    3    3    0    0 -0.70032168590E+01 -0.26001987956E+02 -0.19720401340E+02  0.33377277496E+02  0.00000000000E+00 0.  1.
</event>
<event>
 7    1  0.5913457E-013  0.5052885E+02  0.7816164E-02  0.1300439E+00
        -11   -1    0    0    0    0  0.00000000000E+00  0.00000000000E+00  0.45593999997E+02  0.45594000000E+02  0.51100000000E-03 0.  1.
         11   -1    0    0    0    0 -0.00000000000E+00 -0.00000000000E+00 -0.45593999997E+02  0.45594000000E+02  0.51100000000E-03 0. -1.
    9900012    2    1    2    0    0 -0.48947357227E+01 -0.32768303748E+01 -0.40230217670E+02  0.50528850121E+02  0.29999970427E+02 0.  0.
        -12    1    1    2    0    0  0.48947357227E+01  0.32768303748E+01  0.40230217670E+02  0.40659149879E+02  0.00000000000E+00 0.  1.
         11    1    3    3    0    0 -0.10016634168E+02  0.10676022054E+02 -0.21212506890E+02  0.25773646537E+02  0.51100000000E-03 0. -1.
        -11    1    3    3    0    0  0.41846298593E+00 -0.11903430106E+01 -0.52588763571E+01  0.54081243101E+01  0.51100000000E-03 0.  1.
        -12    1    3    3    0    0  0.47034354597E+01 -0.12762509418E+02 -0.13758834423E+02  0.19347079274E+02  0.00000000000E+00 0.  1.
</event>
<event>
 7    1  0.5913457E-013  0.5052886E+02  0.7816164E-02  0.1300439E+00
        -11   -1    0    0    0    0  0.00000000000E+00  0.00000000000E+00  0.45593999997E+02  0.45594000000E+02  0.51100000000E-03 0.  1.
         11   -1    0    0    0    0 -0.00000000000E+00 -0.00000000000E+00 -0.45593999997E+02  0.45594000000E+02  0.51100000000E-03 0. -1.
    9900012    2    1    2    0    0 -0.37600510941E+02 -0.15471392239E+02 -0.60220858619E-01  0.50528855550E+02  0.29999986931E+02 0.  0.
        -12    1    1    2    0    0  0.37600510941E+02  0.15471392239E+02  0.60220858619E-01  0.40659144450E+02  0.00000000000E+00 0.  1.
         11    1    3    3    0    0 -0.59241107105E+01  0.20349014673E+01  0.65275345281E+01  0.90468015877E+01  0.51100000000E-03 0. -1.
        -11    1    3    3    0    0 -0.47339133219E+01 -0.12630953885E+02 -0.91045732566E+00  0.13519610356E+02  0.51100000000E-03 0.  1.
         12    1    3    3    0    0 -0.26942486908E+02 -0.48753398221E+01 -0.56772980610E+01  0.27962443607E+02  0.00000000000E+00 0. -1.
</event>
<event>
 7    1  0.5913457E-013  0.5052885E+02  0.7816164E-02  0.1300439E+00
        -11   -1    0    0    0    0  0.00000000000E+00  0.00000000000E+00  0.45593999997E+02  0.45594000000E+02  0.51100000000E-03 0.  1.
         11   -1    0    0    0    0 -0.00000000000E+00 -0.00000000000E+00 -0.45593999997E+02  0.45594000000E+02  0.51100000000E-03 0. -1.
    9900012    2    1    2    0    0  0.10038909967E+02  0.19056436576E+02 -0.34485348728E+02  0.50528846477E+02  0.29999959353E+02 0.  0.
        -12    1    1    2    0    0 -0.10038909967E+02 -0.19056436576E+02  0.34485348728E+02  0.40659153523E+02  0.00000000000E+00 0.  1.
         11    1    3    3    0    0 -0.19602015013E+01  0.14991585013E+02 -0.54771100158E+01  0.16080694809E+02  0.51100000000E-03 0. -1.
        -11    1    3    3    0    0 -0.26904212625E+01  0.17995762657E+01 -0.26295885713E+01  0.41703210453E+01  0.51100000000E-03 0.  1.
        -12    1    3    3    0    0  0.14689532731E+02  0.22652752968E+01 -0.26378650141E+02  0.30277830624E+02  0.00000000000E+00 0.  1.
</event>
<event>
 7    1  0.5913457E-013  0.5052882E+02  0.7816164E-02  0.1300439E+00
        -11   -1    0    0    0    0  0.00000000000E+00  0.00000000000E+00  0.45593999997E+02  0.45594000000E+02  0.51100000000E-03 0. -1.
         11   -1    0    0    0    0 -0.00000000000E+00 -0.00000000000E+00 -0.45593999997E+02  0.45594000000E+02  0.51100000000E-03 0.  1.
    9900012    2    1    2    0    0 -0.21675483422E+02  0.34329185754E+02 -0.22020753715E+01  0.50528822536E+02  0.29999886579E+02 0.  0.
        -12    1    1    2    0    0  0.21675483422E+02 -0.34329185754E+02  0.22020753715E+01  0.40659177464E+02  0.00000000000E+00 0.  1.
         11    1    3    3    0    0  0.19475019763E+01  0.88309514949E+01 -0.84015079476E+01  0.12343573401E+02  0.51100000000E-03 0. -1.
        -11    1    3    3    0    0 -0.90092043470E+01  0.12108630557E+02 -0.43839285020E+01  0.15716345832E+02  0.51100000000E-03 0.  1.
         12    1    3    3    0    0 -0.14613781051E+02  0.13389603702E+02  0.10583361078E+02  0.22468903303E+02  0.00000000000E+00 0. -1.
</event>
<event>
 7    1  0.5913457E-013  0.5052886E+02  0.7816164E-02  0.1300439E+00
        -11   -1    0    0    0    0  0.00000000000E+00  0.00000000000E+00  0.45593999997E+02  0.45594000000E+02  0.51100000000E-03 0.  1.
         11   -1    0    0    0    0 -0.00000000000E+00 -0.00000000000E+00 -0.45593999997E+02  0.45594000000E+02  0.51100000000E-03 0. -1.
    9900012    2    1    2    0    0 -0.25270813448E+02  0.31389843486E+02  0.54064437356E+01  0.50528856867E+02  0.29999990934E+02 0.  0.
        -12    1    1    2    0    0  0.25270813448E+02 -0.31389843486E+02 -0.54064437356E+01  0.40659143133E+02  0.00000000000E+00 0.  1.
         11    1    3    3    0    0 -0.16139116411E+02  0.17182544274E+02  0.45782283825E+01  0.24013976798E+02  0.51100000000E-03 0. -1.
        -11    1    3    3    0    0  0.64338668382E+01  0.26637591510E+01  0.15047348312E+01  0.71242180259E+01  0.51100000000E-03 0.  1.
         12    1    3    3    0    0 -0.15565563875E+02  0.11543540061E+02 -0.67651947805E+00  0.19390662044E+02  0.00000000000E+00 0. -1.
</event>
<event>
 7    1  0.5913457E-013  0.5052887E+02  0.7816164E-02  0.1300439E+00
        -11   -1    0    0    0    0  0.00000000000E+00  0.00000000000E+00  0.45593999997E+02  0.45594000000E+02  0.51100000000E-03 0. -1.
         11   -1    0    0    0    0 -0.00000000000E+00 -0.00000000000E+00 -0.45593999997E+02  0.45594000000E+02  0.51100000000E-03 0.  1.
    9900012    2    1    2    0    0 -0.15470626652E+02  0.16165767774E+01  0.37566091601E+02  0.50528870058E+02  0.30000031028E+02 0.  0.
        -12    1    1    2    0    0  0.15470626652E+02 -0.16165767774E+01 -0.37566091601E+02  0.40659129942E+02  0.00000000000E+00 0.  1.
         11    1    3    3    0    0  0.16501693292E+01 -0.42370666871E+01  0.82350023595E+00  0.46210329826E+01  0.51100000000E-03 0.  1.
        -11    1    3    3    0    0 -0.81178734844E+01 -0.56848157267E+01  0.53289720806E+01  0.11252330579E+02  0.51100000000E-03 0. -1.
         12    1    3    3    0    0 -0.90029224963E+01  0.11538459191E+02  0.31413619285E+02  0.34655506497E+02  0.00000000000E+00 0. -1.
</event>
<event>
 7    1  0.5913457E-013  0.5052886E+02  0.7816164E-02  0.1300439E+00
        -11   -1    0    0    0    0  0.00000000000E+00  0.00000000000E+00  0.45593999997E+02  0.45594000000E+02  0.51100000000E-03 0.  1.
         11   -1    0    0    0    0 -0.00000000000E+00 -0.00000000000E+00 -0.45593999997E+02  0.45594000000E+02  0.51100000000E-03 0. -1.
    9900012    2    1    2    0    0 -0.80397076957E+01 -0.20525498883E+02 -0.34164789263E+02  0.50528857982E+02  0.29999994322E+02 0.  0.
        -12    1    1    2    0    0  0.80397076957E+01  0.20525498883E+02  0.34164789263E+02  0.40659142018E+02  0.00000000000E+00 0.  1.
         11    1    3    3    0    0 -0.49425403090E+01 -0.18712493220E+02 -0.25738216897E+02  0.32203135197E+02  0.51100000000E-03 0. -1.
        -11    1    3    3    0    0  0.12625185637E+01 -0.39086453518E+01 -0.11756352732E+02  0.12453244213E+02  0.51100000000E-03 0.  1.
         12    1    3    3    0    0 -0.43596859503E+01  0.20956396888E+01  0.33297803659E+01  0.58724785717E+01  0.00000000000E+00 0. -1.
</event>
<event>
 7    1  0.5913457E-013  0.5052886E+02  0.7816164E-02  0.1300439E+00
        -11   -1    0    0    0    0  0.00000000000E+00  0.00000000000E+00  0.45593999997E+02  0.45594000000E+02  0.51100000000E-03 0.  1.
         11   -1    0    0    0    0 -0.00000000000E+00 -0.00000000000E+00 -0.45593999997E+02  0.45594000000E+02  0.51100000000E-03 0. -1.
    9900012    2    1    2    0    0 -0.15465186638E+02  0.25982144999E+02 -0.27183115527E+02  0.50528860483E+02  0.30000001923E+02 0.  0.
        -12    1    1    2    0    0  0.15465186638E+02 -0.25982144999E+02  0.27183115527E+02  0.40659139517E+02  0.00000000000E+00 0.  1.
         11    1    3    3    0    0  0.11705084122E+01  0.21151749406E+02 -0.17701403026E+02  0.27606272154E+02  0.51100000000E-03 0.  1.
        -11    1    3    3    0    0 -0.95228717609E+01  0.73801257776E+01 -0.95380161557E+01  0.15366362469E+02  0.51100000000E-03 0. -1.
        -12    1    3    3    0    0 -0.71128232892E+01 -0.25497301837E+01  0.56303654707E-01  0.75562258604E+01  0.00000000000E+00 0.  1.
</event>
<event>
 7    1  0.5913457E-013  0.5052886E+02  0.7816164E-02  0.1300439E+00
        -11   -1    0    0    0    0  0.00000000000E+00  0.00000000000E+00  0.45593999997E+02  0.45594000000E+02  0.51100000000E-03 0. -1.
         11   -1    0    0    0    0 -0.00000000000E+00 -0.00000000000E+00 -0.45593999997E+02  0.45594000000E+02  0.51100000000E-03 0.  1.
    9900012    2    1    2    0    0 -0.40381631295E+01  0.20623919506E+01  0.40405514753E+02  0.50528857800E+02  0.29999993768E+02 0.  0.
        -12    1    1    2    0    0  0.40381631295E+01 -0.20623919506E+01 -0.40405514753E+02  0.40659142200E+02  0.00000000000E+00 0.  1.
         11    1    3    3    0    0 -0.30288391166E+01  0.46807510784E+01  0.70767039401E+01  0.90090530007E+01  0.51100000000E-03 0. -1.
        -11    1    3    3    0    0 -0.39842504889E+01  0.10514190293E+02  0.13839782560E+02  0.17831489872E+02  0.51100000000E-03 0.  1.
         12    1    3    3    0    0  0.29749264760E+01 -0.13132549421E+02  0.19489028253E+02  0.23688314927E+02  0.00000000000E+00 0. -1.
</event>
<event>
 7    1  0.5913457E-013  0.5052886E+02  0.7816164E-02  0.1300439E+00
        -11   -1    0    0    0    0  0.00000000000E+00  0.00000000000E+00  0.45593999997E+02  0.45594000000E+02  0.51100000000E-03 0.  1.
         11   -1    0    0    0    0 -0.00000000000E+00 -0.00000000000E+00 -0.45593999997E+02  0.45594000000E+02  0.51100000000E-03 0. -1.
    9900012    2    1    2    0    0  0.10720595754E+02  0.11161306832E+01 -0.39204443904E+02  0.50528863968E+02  0.30000012517E+02 0.  0.
        -12    1    1    2    0    0 -0.10720595754E+02 -0.11161306832E+01  0.39204443904E+02  0.40659136032E+02  0.00000000000E+00 0.  1.
         11    1    3    3    0    0 -0.99435287158E+00 -0.57392111761E+00 -0.15347282587E+02  0.15390165891E+02  0.51100000000E-03 0. -1.
        -11    1    3    3    0    0 -0.16934242155E+01  0.73291050510E+01 -0.17907146015E+02  0.19422907741E+02  0.51100000000E-03 0.  1.
         12    1    3    3    0    0  0.13408372841E+02 -0.56390532502E+01 -0.59500153015E+01  0.15715790336E+02  0.00000000000E+00 0. -1.
</event>
<event>
 7    1  0.5913457E-013  0.5052885E+02  0.7816164E-02  0.1300439E+00
        -11   -1    0    0    0    0  0.00000000000E+00  0.00000000000E+00  0.45593999997E+02  0.45594000000E+02  0.51100000000E-03 0. -1.
         11   -1    0    0    0    0 -0.00000000000E+00 -0.00000000000E+00 -0.45593999997E+02  0.45594000000E+02  0.51100000000E-03 0.  1.
    9900012    2    1    2    0    0  0.25049525794E+02  0.31433269154E+01 -0.31871725168E+02  0.50528854512E+02  0.29999983776E+02 0.  0.
        -12    1    1    2    0    0 -0.25049525794E+02 -0.31433269154E+01  0.31871725168E+02  0.40659145488E+02  0.00000000000E+00 0.  1.
         11    1    3    3    0    0  0.18718908712E+02 -0.41501219533E+01 -0.12489555118E+02  0.22882527022E+02  0.51100000000E-03 0. -1.
        -11    1    3    3    0    0 -0.19862077560E+00 -0.53817547250E+01 -0.63901680525E+01  0.83568524059E+01  0.51100000000E-03 0.  1.
        -12    1    3    3    0    0  0.65292378579E+01  0.12675203594E+02 -0.12992001998E+02  0.19289475085E+02  0.00000000000E+00 0.  1.
</event>
<event>
 7    1  0.5913457E-013  0.5052887E+02  0.7816164E-02  0.1300439E+00
        -11   -1    0    0    0    0  0.00000000000E+00  0.00000000000E+00  0.45593999997E+02  0.45594000000E+02  0.51100000000E-03 0. -1.
         11   -1    0    0    0    0 -0.00000000000E+00 -0.00000000000E+00 -0.45593999997E+02  0.45594000000E+02  0.51100000000E-03 0.  1.
    9900012    2    1    2    0    0 -0.61485823283E+01  0.98063464918E+01  0.38976858617E+02  0.50528868138E+02  0.30000025191E+02 0.  0.
        -12    1    1    2    0    0  0.61485823283E+01 -0.98063464918E+01 -0.38976858617E+02  0.40659131862E+02  0.00000000000E+00 0.  1.
         11    1    3    3    0    0  0.27986764782E+01  0.19698115836E+01  0.15480881790E+00  0.34258887512E+01  0.51100000000E-03 0. -1.
        -11    1    3    3    0    0  0.18884020553E+01 -0.37664253624E+01 -0.91536061619E+00  0.43116015183E+01  0.51100000000E-03 0.  1.
         12    1    3    3    0    0 -0.10835660862E+02  0.11602960271E+02  0.39737410415E+02  0.42791377868E+02  0.00000000000E+00 0. -1.
</event>
<event>
 7    1  0.5913457E-013  0.5052886E+02  0.7816164E-02  0.1300439E+00
        -11   -1    0    0    0    0  0.00000000000E+00  0.00000000000E+00  0.45593999997E+02  0.45594000000E+02  0.51100000000E-03 0. -1.
         11   -1    0    0    0    0 -0.00000000000E+00 -0.00000000000E+00 -0.45593999997E+02  0.45594000000E+02  0.51100000000E-03 0.  1.
    9900012    2    1    2    0    0  0.31688738607E+02  0.19029557816E+02  0.16937103152E+02  0.50528859719E+02  0.29999999603E+02 0.  0.
        -12    1    1    2    0    0 -0.31688738607E+02 -0.19029557816E+02 -0.16937103152E+02  0.40659140281E+02  0.00000000000E+00 0.  1.
         11    1    3    3    0    0 -0.46905302440E+01  0.29793126823E+01  0.64948431864E+01  0.85475356862E+01  0.51100000000E-03 0.  1.
        -11    1    3    3    0    0  0.81280977455E+01  0.17884302499E+01  0.54368178101E+01  0.99409981330E+01  0.51100000000E-03 0. -1.
        -12    1    3    3    0    0  0.28251171106E+02  0.14261814884E+02  0.50054421557E+01  0.32040325900E+02  0.00000000000E+00 0.  1.
</event>
<event>
 7    1  0.5913457E-013  0.5052886E+02  0.7816164E-02  0.1300439E+00
        -11   -1    0    0    0    0  0.00000000000E+00  0.00000000000E+00  0.45593999997E+02  0.45594000000E+02  0.51100000000E-03 0.  1.
         11   -1    0    0    0    0 -0.00000000000E+00 -0.00000000000E+00 -0.45593999997E+02  0.45594000000E+02  0.51100000000E-03 0. -1.
    9900012    2    1    2    0    0  0.48502220602E+01 -0.94855267158E+01 -0.39238573318E+02  0.50528861948E+02  0.30000006378E+02 0.  0.
        -12    1    1    2    0    0 -0.48502220602E+01  0.94855267158E+01  0.39238573318E+02  0.40659138052E+02  0.00000000000E+00 0.  1.
         11    1    3    3    0    0  0.22195342015E+01 -0.15180012693E+01 -0.21259265414E+00  0.26973794362E+01  0.51100000000E-03 0.  1.
        -11    1    3    3    0    0  0.12472485618E+02 -0.10198203809E+02 -0.31003604919E+02  0.34939802184E+02  0.51100000000E-03 0. -1.
        -12    1    3    3    0    0 -0.98417977594E+01  0.22306783628E+01 -0.80223757446E+01  0.12891680328E+02  0.00000000000E+00 0.  1.
</event>
<event>
 7    1  0.5913457E-013  0.5052887E+02  0.7816164E-02  0.1300439E+00
        -11   -1    0    0    0    0  0.00000000000E+00  0.00000000000E+00  0.45593999997E+02  0.45594000000E+02  0.51100000000E-03 0.  1.
         11   -1    0    0    0    0 -0.00000000000E+00 -0.00000000000E+00 -0.45593999997E+02  0.45594000000E+02  0.51100000000E-03 0. -1.
    9900012    2    1    2    0    0 -0.23868875443E+01 -0.40567332827E+02 -0.13263969986E+01  0.50528867523E+02  0.30000023322E+02 0.  0.
        -12    1    1    2    0    0  0.23868875443E+01  0.40567332827E+02  0.13263969986E+01  0.40659132477E+02  0.00000000000E+00 0.  1.
         11    1    3    3    0    0 -0.24350783292E+00 -0.72713090953E+01 -0.89701248860E+01  0.11549648166E+02  0.51100000000E-03 0. -1.
        -11    1    3    3    0    0  0.33509047415E+01 -0.29161521001E+02  0.92864361779E+00  0.29368099171E+02  0.51100000000E-03 0.  1.
         12    1    3    3    0    0 -0.54942844528E+01 -0.41345027303E+01  0.67150842697E+01  0.96111201857E+01  0.00000000000E+00 0. -1.
</event>
<event>
 7    1  0.5913457E-013  0.5052884E+02  0.7816164E-02  0.1300439E+00
        -11   -1    0    0    0    0  0.00000000000E+00  0.00000000000E+00  0.45593999997E+02  0.45594000000E+02  0.51100000000E-03 0.  1.
         11   -1    0    0    0    0 -0.00000000000E+00 -0.00000000000E+00 -0.45593999997E+02  0.45594000000E+02  0.51100000000E-03 0. -1.
    9900012    2    1    2    0    0  0.36366891089E+02  0.17924673913E+02 -0.30532694995E+01  0.50528841659E+02  0.29999944707E+02 0.  0.
        -12    1    1    2    0    0 -0.36366891089E+02 -0.17924673913E+02  0.30532694995E+01  0.40659158341E+02  0.00000000000E+00 0.  1.
         11    1    3    3    0    0  0.10224172096E+02  0.97903325312E+01 -0.62589393595E+01  0.15477681618E+02  0.51100000000E-03 0. -1.
        -11    1    3    3    0    0  0.11777622083E+02  0.31136993463E+01 -0.93227195773E+01  0.15340163171E+02  0.51100000000E-03 0.  1.
        -12    1    3    3    0    0  0.14365096910E+02  0.50206420351E+01  0.12528389437E+02  0.19710996869E+02  0.00000000000E+00 0.  1.
</event>
<event>
 7    1  0.5913457E-013  0.5052887E+02  0.7816164E-02  0.1300439E+00
        -11   -1    0    0    0    0  0.00000000000E+00  0.00000000000E+00  0.45593999997E+02  0.45594000000E+02  0.51100000000E-03 0. -1.
         11   -1    0    0    0    0 -0.00000000000E+00 -0.00000000000E+00 -0.45593999997E+02  0.45594000000E+02  0.51100000000E-03 0.  1.
    9900012    2    1    2    0    0 -0.38282197415E+02 -0.12236246742E+02 -0.61573392018E+01  0.50528865734E+02  0.30000017884E+02 0.  0.
        -12    1    1    2    0    0  0.38282197415E+02  0.12236246742E+02  0.61573392018E+01  0.40659134266E+02  0.00000000000E+00 0.  1.
         11    1    3    3    0    0 -0.76687800724E+01 -0.14078435497E+02  0.32301081345E+01  0.16353780378E+02  0.51100000000E-03 0. -1.
        -11    1    3    3    0    0 -0.73446129734E+01 -0.46591923942E+01 -0.22912056343E+01  0.89945003761E+01  0.51100000000E-03 0.  1.
         12    1    3    3    0    0 -0.23268804369E+02  0.65013811485E+01 -0.70962417020E+01  0.25180584979E+02  0.00000000000E+00 0. -1.
</event>
<event>
 7    1  0.5913457E-013  0.5052884E+02  0.7816164E-02  0.1300439E+00
        -11   -1    0    0    0    0  0.00000000000E+00  0.00000000000E+00  0.45593999997E+02  0.45594000000E+02  0.51100000000E-03 0. -1.
         11   -1    0    0    0    0 -0.00000000000E+00 -0.00000000000E+00 -0.45593999997E+02  0.45594000000E+02  0.51100000000E-03 0.  1.
    9900012    2    1    2    0    0  0.39707361284E+02  0.65685585652E+01  0.57746727870E+01  0.50528839316E+02  0.29999937585E+02 0.  0.
        -12    1    1    2    0    0 -0.39707361284E+02 -0.65685585652E+01 -0.57746727870E+01  0.40659160684E+02  0.00000000000E+00 0.  1.
         11    1    3    3    0    0  0.80537441983E+01 -0.51639680499E+01 -0.11577745184E+01  0.96368980345E+01  0.51100000000E-03 0. -1.
        -11    1    3    3    0    0  0.33308142511E+02  0.79077746608E+01  0.18007503828E+01  0.34281306274E+02  0.51100000000E-03 0.  1.
        -12    1    3    3    0    0 -0.16545254260E+01  0.38247519543E+01  0.51316969225E+01  0.66106350075E+01  0.00000000000E+00 0.  1.
</event>
<event>
 7    1  0.5913457E-013  0.5052887E+02  0.7816164E-02  0.1300439E+00
        -11   -1    0    0    0    0  0.00000000000E+00  0.00000000000E+00  0.45593999997E+02  0.45594000000E+02  0.51100000000E-03 0.  1.
         11   -1    0    0    0    0 -0.00000000000E+00 -0.00000000000E+00 -0.45593999997E+02  0.45594000000E+02  0.51100000000E-03 0. -1.
    9900012    2    1    2    0    0 -0.12539012208E+02  0.30326624893E+01 -0.38558276783E+02  0.50528873381E+02  0.30000041129E+02 0.  0.
        -12    1    1    2    0    0  0.12539012208E+02 -0.30326624893E+01  0.38558276783E+02  0.40659126619E+02  0.00000000000E+00 0.  1.
         11    1    3    3    0    0 -0.62128017033E+00 -0.94148445529E-01  0.15145188927E+01  0.16397014111E+01  0.51100000000E-03 0. -1.
        -11    1    3    3    0    0  0.34907805938E+01 -0.24677828432E+01  0.12331540099E+01  0.44492887508E+01  0.51100000000E-03 0.  1.
         12    1    3    3    0    0 -0.15408512631E+02  0.55945937780E+01 -0.41305949686E+02  0.44439883219E+02  0.00000000000E+00 0. -1.
</event>
<event>
 7    1  0.5913457E-013  0.5052889E+02  0.7816164E-02  0.1300439E+00
        -11   -1    0    0    0    0  0.00000000000E+00  0.00000000000E+00  0.45593999997E+02  0.45594000000E+02  0.51100000000E-03 0.  1.
         11   -1    0    0    0    0 -0.00000000000E+00 -0.00000000000E+00 -0.45593999997E+02  0.45594000000E+02  0.51100000000E-03 0. -1.
    9900012    2    1    2    0    0 -0.13404657938E+02 -0.25769497895E+02 -0.28450157012E+02  0.50528888965E+02  0.30000088497E+02 0.  0.
        -12    1    1    2    0    0  0.13404657938E+02  0.25769497895E+02  0.28450157012E+02  0.40659111035E+02  0.00000000000E+00 0.  1.
         11    1    3    3    0    0  0.32322879788E+01 -0.10808122260E+01 -0.22405207350E+01  0.40786975950E+01  0.51100000000E-03 0. -1.
        -11    1    3    3    0    0 -0.62103415980E+01  0.32292313572E+01 -0.37512473347E+00  0.70097786519E+01  0.51100000000E-03 0.  1.
         12    1    3    3    0    0 -0.10426604318E+02 -0.27917917026E+02 -0.25834511543E+02  0.39440412718E+02  0.00000000000E+00 0. -1.
</event>
<event>
 7    1  0.5913457E-013  0.5052885E+02  0.7816164E-02  0.1300439E+00
        -11   -1    0    0    0    0  0.00000000000E+00  0.00000000000E+00  0.45593999997E+02  0.45594000000E+02  0.51100000000E-03 0.  1.
         11   -1    0    0    0    0 -0.00000000000E+00 -0.00000000000E+00 -0.45593999997E+02  0.45594000000E+02  0.51100000000E-03 0. -1.
    9900012    2    1    2    0    0 -0.10013735885E+02  0.39152414815E+02 -0.44698890668E+01  0.50528850963E+02  0.29999972986E+02 0.  0.
        -12    1    1    2    0    0  0.10013735885E+02 -0.39152414815E+02  0.44698890668E+01  0.40659149037E+02  0.00000000000E+00 0.  1.
         11    1    3    3    0    0 -0.77420880311E+00  0.93331789737E+01 -0.12043318726E+02  0.15256118616E+02  0.51100000000E-03 0. -1.
        -11    1    3    3    0    0 -0.41911057320E+01  0.36403319109E+01 -0.33239521885E+01  0.64703973673E+01  0.51100000000E-03 0.  1.
        -12    1    3    3    0    0 -0.50484213494E+01  0.26178903930E+02  0.10897381848E+02  0.28802334979E+02  0.00000000000E+00 0.  1.
</event>
<event>
 7    1  0.5913457E-013  0.5052885E+02  0.7816164E-02  0.1300439E+00
        -11   -1    0    0    0    0  0.00000000000E+00  0.00000000000E+00  0.45593999997E+02  0.45594000000E+02  0.51100000000E-03 0. -1.
         11   -1    0    0    0    0 -0.00000000000E+00 -0.00000000000E+00 -0.45593999997E+02  0.45594000000E+02  0.51100000000E-03 0.  1.
    9900012    2    1    2    0    0 -0.19206734364E+02 -0.30067365763E+01  0.35710320844E+02  0.50528854355E+02  0.29999983299E+02 0.  0.
        -12    1    1    2    0    0  0.19206734364E+02  0.30067365763E+01 -0.35710320844E+02  0.40659145645E+02  0.00000000000E+00 0.  1.
         11    1    3    3    0    0 -0.78985472590E-01 -0.52818233013E+01  0.19195107727E+01  0.56203574583E+01  0.51100000000E-03 0. -1.
        -11    1    3    3    0    0  0.38646818129E+01 -0.41418851817E+01  0.55507453354E+01  0.79310625022E+01  0.51100000000E-03 0.  1.
        -12    1    3    3    0    0 -0.22992430705E+02  0.64169719068E+01  0.28240064736E+02  0.36977434395E+02  0.00000000000E+00 0.  1.
</event>
<event>
 7    1  0.5913457E-013  0.5052886E+02  0.7816164E-02  0.1300439E+00
        -11   -1    0    0    0    0  0.00000000000E+00  0.00000000000E+00  0.45593999997E+02  0.45594000000E+02  0.51100000000E-03 0. -1.
         11   -1    0    0    0    0 -0.00000000000E+00 -0.00000000000E+00 -0.45593999997E+02  0.45594000000E+02  0.51100000000E-03 0.  1.
    9900012    2    1    2    0    0 -0.31185241026E+02  0.14540585976E+02 -0.21661437305E+02  0.50528858783E+02  0.29999996758E+02 0.  0.
        -12    1    1    2    0    0  0.31185241026E+02 -0.14540585976E+02  0.21661437305E+02  0.40659141217E+02  0.00000000000E+00 0.  1.
         11    1    3    3    0    0 -0.23629625542E+01 -0.33373841859E+01 -0.54019713815E+01  0.67751767729E+01  0.51100000000E-03 0. -1.
        -11    1    3    3    0    0 -0.97938652704E+01 -0.22672234087E+01 -0.12101437028E+02  0.15732287733E+02  0.51100000000E-03 0.  1.
         12    1    3    3    0    0 -0.19028413201E+02  0.20145193571E+02 -0.41580288958E+01  0.28021394278E+02  0.00000000000E+00 0. -1.
</event>
<event>
 7    1  0.5913457E-013  0.5052886E+02  0.7816164E-02  0.1300439E+00
        -11   -1    0    0    0    0  0.00000000000E+00  0.00000000000E+00  0.45593999997E+02  0.45594000000E+02  0.51100000000E-03 0.  1.
         11   -1    0    0    0    0 -0.00000000000E+00 -0.00000000000E+00 -0.45593999997E+02  0.45594000000E+02  0.51100000000E-03 0. -1.
    9900012    2    1    2    0    0 -0.21452021159E+02 -0.32821781972E+02 -0.10756727081E+02  0.50528858825E+02  0.29999996883E+02 0.  0.
        -12    1    1    2    0    0  0.21452021159E+02  0.32821781972E+02  0.10756727081E+02  0.40659141175E+02  0.00000000000E+00 0.  1.
         11    1    3    3    0    0 -0.63029720259E+01 -0.12556191075E+02  0.94071502758E+00  0.14080849963E+02  0.51100000000E-03 0.  1.
        -11    1    3    3    0    0 -0.16694996355E+02 -0.24463370266E+02 -0.12019066373E+02  0.31963062194E+02  0.51100000000E-03 0. -1.
         12    1    3    3    0    0  0.15459472218E+01  0.41977793689E+01  0.32162426436E+00  0.44849466675E+01  0.00000000000E+00 0. -1.
</event>
<event>
 7    1  0.5913457E-013  0.5052890E+02  0.7816164E-02  0.1300439E+00
        -11   -1    0    0    0    0  0.00000000000E+00  0.00000000000E+00  0.45593999997E+02  0.45594000000E+02  0.51100000000E-03 0.  1.
         11   -1    0    0    0    0 -0.00000000000E+00 -0.00000000000E+00 -0.45593999997E+02  0.45594000000E+02  0.51100000000E-03 0. -1.
    9900012    2    1    2    0    0 -0.23898523938E+01 -0.39503612424E+02 -0.93228501778E+01  0.50528901086E+02  0.30000125342E+02 0.  0.
        -12    1    1    2    0    0  0.23898523938E+01  0.39503612424E+02  0.93228501778E+01  0.40659098914E+02  0.00000000000E+00 0.  1.
         11    1    3    3    0    0 -0.19659765905E+00  0.23282394516E+01 -0.40310730670E+01  0.46592810515E+01  0.51100000000E-03 0. -1.
        -11    1    3    3    0    0  0.63246886373E+01 -0.62661457835E+01  0.94089048650E-01  0.89036578073E+01  0.51100000000E-03 0.  1.
         12    1    3    3    0    0 -0.85179433720E+01 -0.35565706092E+02 -0.53858661595E+01  0.36965962228E+02  0.00000000000E+00 0. -1.
</event>
<event>
 7    1  0.5913457E-013  0.5052892E+02  0.7816164E-02  0.1300439E+00
        -11   -1    0    0    0    0  0.00000000000E+00  0.00000000000E+00  0.45593999997E+02  0.45594000000E+02  0.51100000000E-03 0.  1.
         11   -1    0    0    0    0 -0.00000000000E+00 -0.00000000000E+00 -0.45593999997E+02  0.45594000000E+02  0.51100000000E-03 0. -1.
    9900012    2    1    2    0    0  0.59297687905E+01 -0.38735974390E+02 -0.10840816226E+02  0.50528915329E+02  0.30000168634E+02 0.  0.
        -12    1    1    2    0    0 -0.59297687905E+01  0.38735974390E+02  0.10840816226E+02  0.40659084671E+02  0.00000000000E+00 0.  1.
         11    1    3    3    0    0  0.32812044895E+01 -0.65218016219E+01  0.48034760169E+01  0.87391979840E+01  0.51100000000E-03 0. -1.
        -11    1    3    3    0    0 -0.64275595858E+01 -0.11949570993E+02  0.16180107320E+01  0.13664689097E+02  0.51100000000E-03 0.  1.
         12    1    3    3    0    0  0.90761238867E+01 -0.20264601775E+02 -0.17262302975E+02  0.28125028247E+02  0.00000000000E+00 0. -1.
</event>
<event>
 7    1  0.5913457E-013  0.5052886E+02  0.7816164E-02  0.1300439E+00
        -11   -1    0    0    0    0  0.00000000000E+00  0.00000000000E+00  0.45593999997E+02  0.45594000000E+02  0.51100000000E-03 0. -1.
         11   -1    0    0    0    0 -0.00000000000E+00 -0.00000000000E+00 -0.45593999997E+02  0.45594000000E+02  0.51100000000E-03 0.  1.
    9900012    2    1    2    0    0 -0.28971863869E+02 -0.23166231898E+02 -0.16646985753E+02  0.50528864113E+02  0.30000012958E+02 0.  0.
        -12    1    1    2    0    0  0.28971863869E+02  0.23166231898E+02  0.16646985753E+02  0.40659135887E+02  0.00000000000E+00 0.  1.
         11    1    3    3    0    0 -0.21429878428E+02 -0.80356418785E+01  0.91721272467E+00  0.22905294350E+02  0.51100000000E-03 0. -1.
        -11    1    3    3    0    0 -0.76308511348E+01 -0.60446803902E+01 -0.25323221453E+01  0.10058862051E+02  0.51100000000E-03 0.  1.
        -12    1    3    3    0    0  0.88865693784E-01 -0.90859096297E+01 -0.15031876332E+02  0.17564707711E+02  0.00000000000E+00 0.  1.
</event>
<event>
 7    1  0.5913457E-013  0.5052881E+02  0.7816164E-02  0.1300439E+00
        -11   -1    0    0    0    0  0.00000000000E+00  0.00000000000E+00  0.45593999997E+02  0.45594000000E+02  0.51100000000E-03 0.  1.
         11   -1    0    0    0    0 -0.00000000000E+00 -0.00000000000E+00 -0.45593999997E+02  0.45594000000E+02  0.51100000000E-03 0. -1.
    9900012    2    1    2    0    0 -0.32708383329E+02 -0.16404529101E+02 -0.17726334250E+02  0.50528808653E+02  0.29999844382E+02 0.  0.
        -12    1    1    2    0    0  0.32708383329E+02  0.16404529101E+02  0.17726334250E+02  0.40659191347E+02  0.00000000000E+00 0.  1.
         11    1    3    3    0    0 -0.14496062774E+01  0.30222844379E+01  0.31725715614E+01  0.46152759567E+01  0.51100000000E-03 0. -1.
        -11    1    3    3    0    0 -0.61278352380E+00  0.93575512452E+00  0.22011456712E+01  0.24690451246E+01  0.51100000000E-03 0.  1.
         12    1    3    3    0    0 -0.30645993528E+02 -0.20362568663E+02 -0.23100051483E+02  0.43444487572E+02  0.00000000000E+00 0. -1.
</event>
<event>
 7    1  0.5913457E-013  0.5052883E+02  0.7816164E-02  0.1300439E+00
        -11   -1    0    0    0    0  0.00000000000E+00  0.00000000000E+00  0.45593999997E+02  0.45594000000E+02  0.51100000000E-03 0.  1.
         11   -1    0    0    0    0 -0.00000000000E+00 -0.00000000000E+00 -0.45593999997E+02  0.45594000000E+02  0.51100000000E-03 0. -1.
    9900012    2    1    2    0    0 -0.27203603743E+02  0.28831187453E+02  0.90495869401E+01  0.50528825754E+02  0.29999896362E+02 0.  0.
        -12    1    1    2    0    0  0.27203603743E+02 -0.28831187453E+02 -0.90495869401E+01  0.40659174246E+02  0.00000000000E+00 0.  1.
         11    1    3    3    0    0 -0.15173849940E+02  0.67721876063E+01 -0.22256807576E+01  0.16764900897E+02  0.51100000000E-03 0. -1.
        -11    1    3    3    0    0 -0.10096536704E+02  0.10545778138E+02 -0.34207960703E+01  0.14995177090E+02  0.51100000000E-03 0.  1.
        -12    1    3    3    0    0 -0.19332170986E+01  0.11513221709E+02  0.14696063768E+02  0.18768747767E+02  0.00000000000E+00 0.  1.
</event>
<event>
 7    1  0.5913457E-013  0.5052887E+02  0.7816164E-02  0.1300439E+00
        -11   -1    0    0    0    0  0.00000000000E+00  0.00000000000E+00  0.45593999997E+02  0.45594000000E+02  0.51100000000E-03 0.  1.
         11   -1    0    0    0    0 -0.00000000000E+00 -0.00000000000E+00 -0.45593999997E+02  0.45594000000E+02  0.51100000000E-03 0. -1.
    9900012    2    1    2    0    0 -0.29760912462E+02  0.22037879566E+02 -0.16786441305E+02  0.50528872390E+02  0.30000038117E+02 0.  0.
        -12    1    1    2    0    0  0.29760912462E+02 -0.22037879566E+02  0.16786441305E+02  0.40659127610E+02  0.00000000000E+00 0.  1.
         11    1    3    3    0    0  0.27015788717E+01  0.26467506993E+01 -0.66467866045E+01  0.76474564459E+01  0.51100000000E-03 0. -1.
        -11    1    3    3    0    0  0.13890609472E+01  0.29726493881E+01  0.13425752196E+01  0.35452282269E+01  0.51100000000E-03 0.  1.
         12    1    3    3    0    0 -0.33851552280E+02  0.16418479479E+02 -0.11482229920E+02  0.39336187717E+02  0.00000000000E+00 0. -1.
</event>
<event>
 7    1  0.5913457E-013  0.5052886E+02  0.7816164E-02  0.1300439E+00
        -11   -1    0    0    0    0  0.00000000000E+00  0.00000000000E+00  0.45593999997E+02  0.45594000000E+02  0.51100000000E-03 0.  1.
         11   -1    0    0    0    0 -0.00000000000E+00 -0.00000000000E+00 -0.45593999997E+02  0.45594000000E+02  0.51100000000E-03 0. -1.
    9900012    2    1    2    0    0  0.19187961784E+02  0.32933347090E+02 -0.14155655392E+02  0.50528858253E+02  0.29999995147E+02 0.  0.
        -12    1    1    2    0    0 -0.19187961784E+02 -0.32933347090E+02  0.14155655392E+02  0.40659141747E+02  0.00000000000E+00 0.  1.
         11    1    3    3    0    0 -0.89600391061E+00  0.11359672350E+02 -0.74106971409E+01  0.13592770552E+02  0.51100000000E-03 0. -1.
        -11    1    3    3    0    0  0.14632909913E+02  0.25378925096E+02 -0.33933126983E+01  0.29491125154E+02  0.51100000000E-03 0.  1.
        -12    1    3    3    0    0  0.54510557823E+01 -0.38052503557E+01 -0.33516455532E+01  0.74449625470E+01  0.00000000000E+00 0.  1.
</event>
<event>
 7    1  0.5913457E-013  0.5052887E+02  0.7816164E-02  0.1300439E+00
        -11   -1    0    0    0    0  0.00000000000E+00  0.00000000000E+00  0.45593999997E+02  0.45594000000E+02  0.51100000000E-03 0. -1.
         11   -1    0    0    0    0 -0.00000000000E+00 -0.00000000000E+00 -0.45593999997E+02  0.45594000000E+02  0.51100000000E-03 0.  1.
    9900012    2    1    2    0    0  0.66992726365E+01  0.32744618737E+02  0.23153286050E+02  0.50528868615E+02  0.30000026643E+02 0.  0.
        -12    1    1    2    0    0 -0.66992726365E+01 -0.32744618737E+02 -0.23153286050E+02  0.40659131385E+02  0.00000000000E+00 0.  1.
         11    1    3    3    0    0  0.28357045917E+01  0.10351056499E+02 -0.41401864260E+01  0.11503335824E+02  0.51100000000E-03 0.  1.
        -11    1    3    3    0    0  0.88438678773E+01  0.20264570763E+02  0.24234456904E+02  0.32805117420E+02  0.51100000000E-03 0. -1.
         12    1    3    3    0    0 -0.49802998325E+01  0.21289914739E+01  0.30590155716E+01  0.62204153708E+01  0.00000000000E+00 0. -1.
</event>
<event>
 7    1  0.5913457E-013  0.5052886E+02  0.7816164E-02  0.1300439E+00
        -11   -1    0    0    0    0  0.00000000000E+00  0.00000000000E+00  0.45593999997E+02  0.45594000000E+02  0.51100000000E-03 0.  1.
         11   -1    0    0    0    0 -0.00000000000E+00 -0.00000000000E+00 -0.45593999997E+02  0.45594000000E+02  0.51100000000E-03 0. -1.
    9900012    2    1    2    0    0  0.34889051785E+02 -0.25770253251E+01  0.20719042411E+02  0.50528859423E+02  0.29999998704E+02 0.  0.
        -12    1    1    2    0    0 -0.34889051785E+02  0.25770253251E+01 -0.20719042411E+02  0.40659140577E+02  0.00000000000E+00 0.  1.
         11    1    3    3    0    0  0.57903658375E+01 -0.81609042415E+00  0.13533495064E+02  0.14742789051E+02  0.51100000000E-03 0. -1.
        -11    1    3    3    0    0  0.35043817448E+01  0.64627251670E+01  0.48379140234E+01  0.88007340805E+01  0.51100000000E-03 0.  1.
         12    1    3    3    0    0  0.25594304203E+02 -0.82236600680E+01  0.23476333238E+01  0.26985336292E+02  0.00000000000E+00 0. -1.
</event>
<event>
 7    1  0.5913457E-013  0.5052886E+02  0.7816164E-02  0.1300439E+00
        -11   -1    0    0    0    0  0.00000000000E+00  0.00000000000E+00  0.45593999997E+02  0.45594000000E+02  0.51100000000E-03 0.  1.
         11   -1    0    0    0    0 -0.00000000000E+00 -0.00000000000E+00 -0.45593999997E+02  0.45594000000E+02  0.51100000000E-03 0. -1.
    9900012    2    1    2    0    0  0.30425862796E+02  0.18149827754E+02 -0.19950351415E+02  0.50528857166E+02  0.29999991842E+02 0.  0.
        -12    1    1    2    0    0 -0.30425862796E+02 -0.18149827754E+02  0.19950351415E+02  0.40659142834E+02  0.00000000000E+00 0.  1.
         11    1    3    3    0    0  0.13822177245E+02  0.14933083933E+01 -0.10863816831E+02  0.17643839438E+02  0.51100000000E-03 0. -1.
        -11    1    3    3    0    0  0.19393790682E+02  0.11661868712E+02 -0.58485167389E+00  0.22637587120E+02  0.51100000000E-03 0.  1.
        -12    1    3    3    0    0 -0.27901051305E+01  0.49946506487E+01 -0.85016829109E+01  0.10247430608E+02  0.00000000000E+00 0.  1.
</event>
<event>
 7    1  0.5913457E-013  0.5052886E+02  0.7816164E-02  0.1300439E+00
        -11   -1    0    0    0    0  0.00000000000E+00  0.00000000000E+00  0.45593999997E+02  0.45594000000E+02  0.51100000000E-03 0. -1.
         11   -1    0    0    0    0 -0.00000000000E+00 -0.00000000000E+00 -0.45593999997E+02  0.45594000000E+02  0.51100000000E-03 0.  1.
    9900012    2    1    2    0    0 -0.35768285765E+02 -0.92410467670E+01  0.16982287716E+02  0.50528864397E+02  0.30000013822E+02 0.  0.
        -12    1    1    2    0    0  0.35768285765E+02  0.92410467670E+01 -0.16982287716E+02  0.40659135603E+02  0.00000000000E+00 0.  1.
         11    1    3    3    0    0  0.96608517840E+00  0.33040543795E-01  0.37734982552E+01  0.38953435782E+01  0.51100000000E-03 0. -1.
        -11    1    3    3    0    0  0.15430400819E+01 -0.31361662668E+01  0.63737154367E+01  0.72691650330E+01  0.51100000000E-03 0.  1.
        -12    1    3    3    0    0 -0.38277411025E+02 -0.61379210440E+01  0.68350740241E+01  0.39364355786E+02  0.00000000000E+00 0.  1.
</event>
<event>
 7    1  0.5913457E-013  0.5052887E+02  0.7816164E-02  0.1300439E+00
        -11   -1    0    0    0    0  0.00000000000E+00  0.00000000000E+00  0.45593999997E+02  0.45594000000E+02  0.51100000000E-03 0. -1.
         11   -1    0    0    0    0 -0.00000000000E+00 -0.00000000000E+00 -0.45593999997E+02  0.45594000000E+02  0.51100000000E-03 0.  1.
    9900012    2    1    2    0    0 -0.27511779696E+02  0.99119384235E+00  0.29921298737E+02  0.50528873037E+02  0.30000040082E+02 0.  0.
        -12    1    1    2    0    0  0.27511779696E+02 -0.99119384235E+00 -0.29921298737E+02  0.40659126963E+02  0.00000000000E+00 0.  1.
         11    1    3    3    0    0 -0.11207686535E+02 -0.27582997709E+01  0.20808005718E+02  0.23794822069E+02  0.51100000000E-03 0. -1.
        -11    1    3    3    0    0 -0.15984419051E+02  0.82529402723E+01  0.17200276624E+01  0.18071280280E+02  0.51100000000E-03 0.  1.
         12    1    3    3    0    0 -0.31967411055E+00 -0.45034466590E+01  0.73932653574E+01  0.86627706880E+01  0.00000000000E+00 0. -1.
</event>
<event>
 7    1  0.5913457E-013  0.5052886E+02  0.7816164E-02  0.1300439E+00
        -11   -1    0    0    0    0  0.00000000000E+00  0.00000000000E+00  0.45593999997E+02  0.45594000000E+02  0.51100000000E-03 0.  1.
         11   -1    0    0    0    0 -0.00000000000E+00 -0.00000000000E+00 -0.45593999997E+02  0.45594000000E+02  0.51100000000E-03 0. -1.
    9900012    2    1    2    0    0  0.13781338088E+02  0.46022652327E+01 -0.37974459273E+02  0.50528859800E+02  0.29999999848E+02 0.  0.
        -12    1    1    2    0    0 -0.13781338088E+02 -0.46022652327E+01  0.37974459273E+02  0.40659140200E+02  0.00000000000E+00 0.  1.
         11    1    3    3    0    0 -0.92411077880E+00  0.62329091585E+01  0.21983275990E+00  0.63048762092E+01  0.51100000000E-03 0.  1.
        -11    1    3    3    0    0 -0.22490727276E+01  0.36198202310E+01 -0.10480869745E+02  0.11314152974E+02  0.51100000000E-03 0. -1.
         12    1    3    3    0    0  0.16954521595E+02 -0.52504641569E+01 -0.27713422288E+02  0.32909830617E+02  0.00000000000E+00 0. -1.
</event>
<event>
 7    1  0.5913457E-013  0.5052885E+02  0.7816164E-02  0.1300439E+00
        -11   -1    0    0    0    0  0.00000000000E+00  0.00000000000E+00  0.45593999997E+02  0.45594000000E+02  0.51100000000E-03 0.  1.
         11   -1    0    0    0    0 -0.00000000000E+00 -0.00000000000E+00 -0.45593999997E+02  0.45594000000E+02  0.51100000000E-03 0. -1.
    9900012    2    1    2    0    0 -0.12064854782E+02  0.13520303156E+02 -0.36397899499E+02  0.50528850890E+02  0.29999972767E+02 0.  0.
        -12    1    1    2    0    0  0.12064854782E+02 -0.13520303156E+02  0.36397899499E+02  0.40659149110E+02  0.00000000000E+00 0.  1.
         11    1    3    3    0    0 -0.72708166292E+01  0.92422729065E+00 -0.21047756795E+02  0.22287373935E+02  0.51100000000E-03 0. -1.
        -11    1    3    3    0    0 -0.10107464547E+02  0.40382992082E+01 -0.14502696234E+02  0.18132757606E+02  0.51100000000E-03 0.  1.
        -12    1    3    3    0    0  0.53134263950E+01  0.85577766574E+01 -0.84744647023E+00  0.10108719350E+02  0.00000000000E+00 0.  1.
</event>
<event>
 7    1  0.5913457E-013  0.5052888E+02  0.7816164E-02  0.1300439E+00
        -11   -1    0    0    0    0  0.00000000000E+00  0.00000000000E+00  0.45593999997E+02  0.45594000000E+02  0.51100000000E-03 0. -1.
         11   -1    0    0    0    0 -0.00000000000E+00 -0.00000000000E+00 -0.45593999997E+02  0.45594000000E+02  0.51100000000E-03 0.  1.
    9900012    2    1    2    0    0  0.27202570562E+01 -0.86933181001E+01  0.39625627780E+02  0.50528881036E+02  0.30000064396E+02 0.  0.
        -12    1    1    2    0    0 -0.27202570562E+01  0.86933181001E+01 -0.39625627780E+02  0.40659118964E+02  0.00000000000E+00 0.  1.
         11    1    3    3    0    0 -0.35842692541E+01 -0.11994759109E+02  0.12964564846E+02  0.18022241095E+02  0.51100000000E-03 0. -1.
        -11    1    3    3    0    0 -0.55181018697E+01 -0.16211389928E+01  0.73014303062E+01  0.92945373557E+01  0.51100000000E-03 0.  1.
         12    1    3    3    0    0  0.11822628180E+02  0.49225800017E+01  0.19359632627E+02  0.23212102585E+02  0.00000000000E+00 0. -1.
</event>
<event>
 7    1  0.5913457E-013  0.5052886E+02  0.7816164E-02  0.1300439E+00
        -11   -1    0    0    0    0  0.00000000000E+00  0.00000000000E+00  0.45593999997E+02  0.45594000000E+02  0.51100000000E-03 0.  1.
         11   -1    0    0    0    0 -0.00000000000E+00 -0.00000000000E+00 -0.45593999997E+02  0.45594000000E+02  0.51100000000E-03 0. -1.
    9900012    2    1    2    0    0  0.23227984271E+02 -0.79518254860E+01 -0.32409798942E+02  0.50528857740E+02  0.29999993587E+02 0.  0.
        -12    1    1    2    0    0 -0.23227984271E+02  0.79518254860E+01  0.32409798942E+02  0.40659142260E+02  0.00000000000E+00 0.  1.
         11    1    3    3    0    0  0.15034591637E+02  0.94453955878E+00 -0.83800971300E+01  0.17238246107E+02  0.51100000000E-03 0. -1.
        -11    1    3    3    0    0  0.63712501817E+01  0.27720333626E+00 -0.23015860935E+02  0.23883038445E+02  0.51100000000E-03 0.  1.
        -12    1    3    3    0    0  0.18221424518E+01 -0.91735683810E+01 -0.10138408778E+01  0.94075731877E+01  0.00000000000E+00 0.  1.
</event>
<event>
 7    1  0.5913457E-013  0.5052886E+02  0.7816164E-02  0.1300439E+00
        -11   -1    0    0    0    0  0.00000000000E+00  0.00000000000E+00  0.45593999997E+02  0.45594000000E+02  0.51100000000E-03 0.  1.
         11   -1    0    0    0    0 -0.00000000000E+00 -0.00000000000E+00 -0.45593999997E+02  0.45594000000E+02  0.51100000000E-03 0. -1.
    9900012    2    1    2    0    0  0.94405814134E+01  0.38972502446E+02  0.67219747916E+01  0.50528862411E+02  0.30000007786E+02 0.  0.
        -12    1    1    2    0    0 -0.94405814134E+01 -0.38972502446E+02 -0.67219747916E+01  0.40659137589E+02  0.00000000000E+00 0.  1.
         11    1    3    3    0    0  0.11640488358E+02  0.11934100153E+02  0.18524958891E+00  0.16672073457E+02  0.51100000000E-03 0. -1.
        -11    1    3    3    0    0  0.63933397420E+01  0.21776251734E+02  0.19300933987E+01  0.22777295569E+02  0.51100000000E-03 0.  1.
        -12    1    3    3    0    0 -0.85932466861E+01  0.52621505590E+01  0.46066318040E+01  0.11079493386E+02  0.00000000000E+00 0.  1.
</event>
<event>
 7    1  0.5913457E-013  0.5052886E+02  0.7816164E-02  0.1300439E+00
        -11   -1    0    0    0    0  0.00000000000E+00  0.00000000000E+00  0.45593999997E+02  0.45594000000E+02  0.51100000000E-03 0.  1.
         11   -1    0    0    0    0 -0.00000000000E+00 -0.00000000000E+00 -0.45593999997E+02  0.45594000000E+02  0.51100000000E-03 0. -1.
    9900012    2    1    2    0    0  0.30957182624E+02  0.26306196077E+02 -0.16741974258E+01  0.50528855333E+02  0.29999986270E+02 0.  0.
        -12    1    1    2    0    0 -0.30957182624E+02 -0.26306196077E+02  0.16741974258E+01  0.40659144667E+02  0.00000000000E+00 0.  1.
         11    1    3    3    0    0  0.12484956197E+02  0.88258748176E+01  0.41371803339E+00  0.15295141726E+02  0.51100000000E-03 0. -1.
        -11    1    3    3    0    0  0.12596894973E+02  0.23297040153E+02 -0.38989488101E+01  0.26770051269E+02  0.51100000000E-03 0.  1.
        -12    1    3    3    0    0  0.58753314529E+01 -0.58167188940E+01  0.18110333509E+01  0.84636623379E+01  0.00000000000E+00 0.  1.
</event>
<event>
 7    1  0.5913457E-013  0.5052888E+02  0.7816164E-02  0.1300439E+00
        -11   -1    0    0    0    0  0.00000000000E+00  0.00000000000E+00  0.45593999997E+02  0.45594000000E+02  0.51100000000E-03 0.  1.
         11   -1    0    0    0    0 -0.00000000000E+00 -0.00000000000E+00 -0.45593999997E+02  0.45594000000E+02  0.51100000000E-03 0. -1.
    9900012    2    1    2    0    0 -0.24961905439E+02 -0.31850291762E+02 -0.39530509933E+01  0.50528875309E+02  0.30000046990E+02 0.  0.
        -12    1    1    2    0    0  0.24961905439E+02  0.31850291762E+02  0.39530509933E+01  0.40659124691E+02  0.00000000000E+00 0.  1.
         11    1    3    3    0    0  0.33355183286E+00 -0.17851504515E+01  0.56640228480E+01  0.59480395126E+01  0.51100000000E-03 0. -1.
        -11    1    3    3    0    0 -0.17793573300E+02 -0.68348967198E+01 -0.53648374957E+01  0.19801730873E+02  0.51100000000E-03 0.  1.
         12    1    3    3    0    0 -0.75018839721E+01 -0.23230244590E+02 -0.42522363457E+01  0.24779104923E+02  0.00000000000E+00 0. -1.
</event>
<event>
 7    1  0.5913457E-013  0.5052886E+02  0.7816164E-02  0.1300439E+00
        -11   -1    0    0    0    0  0.00000000000E+00  0.00000000000E+00  0.45593999997E+02  0.45594000000E+02  0.51100000000E-03 0.  1.
         11   -1    0    0    0    0 -0.00000000000E+00 -0.00000000000E+00 -0.45593999997E+02  0.45594000000E+02  0.51100000000E-03 0. -1.
    9900012    2    1    2    0    0 -0.17208931484E+02 -0.18970349636E+02 -0.31577587608E+02  0.50528861700E+02  0.30000005624E+02 0.  0.
        -12    1    1    2    0    0  0.17208931484E+02  0.18970349636E+02  0.31577587608E+02  0.40659138300E+02  0.00000000000E+00 0.  1.
         11    1    3    3    0    0  0.15218680773E+01 -0.75884920875E+01 -0.43428083200E+01  0.88747551500E+01  0.51100000000E-03 0. -1.
        -11    1    3    3    0    0 -0.30681109054E+01  0.60608235169E+01 -0.11706767680E+02  0.13534965681E+02  0.51100000000E-03 0.  1.
         12    1    3    3    0    0 -0.15662688656E+02 -0.17442681066E+02 -0.15528011608E+02  0.28119140869E+02  0.00000000000E+00 0. -1.
</event>
<event>
 7    1  0.5913457E-013  0.5052886E+02  0.7816164E-02  0.1300439E+00
        -11   -1    0    0    0    0  0.00000000000E+00  0.00000000000E+00  0.45593999997E+02  0.45594000000E+02  0.51100000000E-03 0. -1.
         11   -1    0    0    0    0 -0.00000000000E+00 -0.00000000000E+00 -0.45593999997E+02  0.45594000000E+02  0.51100000000E-03 0.  1.
    9900012    2    1    2    0    0  0.52034890490E+01 -0.16992890608E+02  0.36569537275E+02  0.50528859748E+02  0.29999999690E+02 0.  0.
        -12    1    1    2    0    0 -0.52034890490E+01  0.16992890608E+02 -0.36569537275E+02  0.40659140252E+02  0.00000000000E+00 0.  1.
         11    1    3    3    0    0  0.37747480164E+01  0.15278543623E+01  0.42192630682E+01  0.58638931299E+01  0.51100000000E-03 0. -1.
        -11    1    3    3    0    0  0.12921703626E+01  0.43700017688E+01  0.15729147854E+02  0.16375979732E+02  0.51100000000E-03 0.  1.
        -12    1    3    3    0    0  0.13657067003E+00 -0.22890746739E+02  0.16621126353E+02  0.28288986886E+02  0.00000000000E+00 0.  1.
</event>
<event>
 7    1  0.5913457E-013  0.5052886E+02  0.7816164E-02  0.1300439E+00
        -11   -1    0    0    0    0  0.00000000000E+00  0.00000000000E+00  0.45593999997E+02  0.45594000000E+02  0.51100000000E-03 0.  1.
         11   -1    0    0    0    0 -0.00000000000E+00 -0.00000000000E+00 -0.45593999997E+02  0.45594000000E+02  0.51100000000E-03 0. -1.
    9900012    2    1    2    0    0  0.31481475265E+01  0.21194872076E+02 -0.34554768542E+02  0.50528862477E+02  0.30000007985E+02 0.  0.
        -12    1    1    2    0    0 -0.31481475265E+01 -0.21194872076E+02  0.34554768542E+02  0.40659137523E+02  0.00000000000E+00 0.  1.
         11    1    3    3    0    0  0.27557368024E+01  0.64307187574E+01 -0.72746035637E+01  0.10092972126E+02  0.51100000000E-03 0. -1.
        -11    1    3    3    0    0  0.10865832068E+02  0.34967036227E+01 -0.20835028759E+02  0.23756928808E+02  0.51100000000E-03 0.  1.
         12    1    3    3    0    0 -0.10473421344E+02  0.11267449695E+02 -0.64451362193E+01  0.16678961543E+02  0.00000000000E+00 0. -1.
</event>
<event>
 7    1  0.5913457E-013  0.5052886E+02  0.7816164E-02  0.1300439E+00
        -11   -1    0    0    0    0  0.00000000000E+00  0.00000000000E+00  0.45593999997E+02  0.45594000000E+02  0.51100000000E-03 0. -1.
         11   -1    0    0    0    0 -0.00000000000E+00 -0.00000000000E+00 -0.45593999997E+02  0.45594000000E+02  0.51100000000E-03 0.  1.
    9900012    2    1    2    0    0 -0.25356204036E+02 -0.10787678648E+02  0.29897397571E+02  0.50528862340E+02  0.30000007569E+02 0.  0.
        -12    1    1    2    0    0  0.25356204036E+02  0.10787678648E+02 -0.29897397571E+02  0.40659137660E+02  0.00000000000E+00 0.  1.
         11    1    3    3    0    0 -0.12922804760E+02  0.18925837507E+01  0.14754541938E+01  0.13143733163E+02  0.51100000000E-03 0. -1.
        -11    1    3    3    0    0  0.38649791122E+01 -0.38691549938E+01  0.42321667890E+01  0.69151760567E+01  0.51100000000E-03 0.  1.
         12    1    3    3    0    0 -0.16298378388E+02 -0.88111074051E+01  0.24189776588E+02  0.30469953120E+02  0.00000000000E+00 0. -1.
</event>
<event>
 7    1  0.5913457E-013  0.5052886E+02  0.7816164E-02  0.1300439E+00
        -11   -1    0    0    0    0  0.00000000000E+00  0.00000000000E+00  0.45593999997E+02  0.45594000000E+02  0.51100000000E-03 0. -1.
         11   -1    0    0    0    0 -0.00000000000E+00 -0.00000000000E+00 -0.45593999997E+02  0.45594000000E+02  0.51100000000E-03 0.  1.
    9900012    2    1    2    0    0 -0.36313403717E+01  0.35483754855E+02 -0.19516201053E+02  0.50528860867E+02  0.30000003091E+02 0.  0.
        -12    1    1    2    0    0  0.36313403717E+01 -0.35483754855E+02  0.19516201053E+02  0.40659139133E+02  0.00000000000E+00 0.  1.
         11    1    3    3    0    0 -0.47696182561E+01  0.21879180541E+02 -0.17939696441E+02  0.28692865108E+02  0.51100000000E-03 0. -1.
        -11    1    3    3    0    0  0.80042969825E+00 -0.27857343500E+01 -0.43320252362E+01  0.52122400634E+01  0.51100000000E-03 0.  1.
         12    1    3    3    0    0  0.33784818622E+00  0.16390308664E+02  0.27555206242E+01  0.16623755695E+02  0.00000000000E+00 0. -1.
</event>
<event>
 7    1  0.5913457E-013  0.5052885E+02  0.7816164E-02  0.1300439E+00
        -11   -1    0    0    0    0  0.00000000000E+00  0.00000000000E+00  0.45593999997E+02  0.45594000000E+02  0.51100000000E-03 0. -1.
         11   -1    0    0    0    0 -0.00000000000E+00 -0.00000000000E+00 -0.45593999997E+02  0.45594000000E+02  0.51100000000E-03 0.  1.
    9900012    2    1    2    0    0  0.38822525910E+02 -0.63346562480E+01  0.10288334462E+02  0.50528853257E+02  0.29999979961E+02 0.  0.
        -12    1    1    2    0    0 -0.38822525910E+02  0.63346562480E+01 -0.10288334462E+02  0.40659146743E+02  0.00000000000E+00 0.  1.
         11    1    3    3    0    0  0.43923347496E+01  0.39063829484E+01 -0.30572202248E+01  0.66256341626E+01  0.51100000000E-03 0. -1.
        -11    1    3    3    0    0  0.14514282229E+02 -0.14675098564E+02  0.24853823041E+01  0.20789421155E+02  0.51100000000E-03 0.  1.
         12    1    3    3    0    0  0.19915908931E+02  0.44340593675E+01  0.10860172383E+02  0.23113797940E+02  0.00000000000E+00 0. -1.
</event>
<event>
 7    1  0.5913457E-013  0.5052886E+02  0.7816164E-02  0.1300439E+00
        -11   -1    0    0    0    0  0.00000000000E+00  0.00000000000E+00  0.45593999997E+02  0.45594000000E+02  0.51100000000E-03 0.  1.
         11   -1    0    0    0    0 -0.00000000000E+00 -0.00000000000E+00 -0.45593999997E+02  0.45594000000E+02  0.51100000000E-03 0. -1.
    9900012    2    1    2    0    0  0.37552166568E+02 -0.15351737780E+02  0.27063796431E+01  0.50528861328E+02  0.30000004492E+02 0.  0.
        -12    1    1    2    0    0 -0.37552166568E+02  0.15351737780E+02 -0.27063796431E+01  0.40659138672E+02  0.00000000000E+00 0.  1.
         11    1    3    3    0    0  0.20205534087E+02 -0.70392341686E+01 -0.33912182557E+01  0.21663674364E+02  0.51100000000E-03 0. -1.
        -11    1    3    3    0    0  0.16603555156E+02 -0.66703263578E+01 -0.42258472403E+01  0.18385567239E+02  0.51100000000E-03 0.  1.
        -12    1    3    3    0    0  0.74307732446E+00 -0.16421772536E+01  0.10323445139E+02  0.10479619725E+02  0.00000000000E+00 0.  1.
</event>
<event>
 7    1  0.5913457E-013  0.5052884E+02  0.7816164E-02  0.1300439E+00
        -11   -1    0    0    0    0  0.00000000000E+00  0.00000000000E+00  0.45593999997E+02  0.45594000000E+02  0.51100000000E-03 0.  1.
         11   -1    0    0    0    0 -0.00000000000E+00 -0.00000000000E+00 -0.45593999997E+02  0.45594000000E+02  0.51100000000E-03 0. -1.
    9900012    2    1    2    0    0  0.36583413361E+01 -0.21786293942E+02 -0.34134163907E+02  0.50528840999E+02  0.29999942701E+02 0.  0.
        -12    1    1    2    0    0 -0.36583413361E+01  0.21786293942E+02  0.34134163907E+02  0.40659159001E+02  0.00000000000E+00 0.  1.
         11    1    3    3    0    0 -0.41333089554E+01 -0.48000541748E+01 -0.22719810276E+02  0.23586321084E+02  0.51100000000E-03 0. -1.
        -11    1    3    3    0    0  0.32807995416E+00 -0.16910894958E+02 -0.85001640809E+01  0.18929838732E+02  0.51100000000E-03 0.  1.
        -12    1    3    3    0    0  0.74635703373E+01 -0.75344808365E-01 -0.29141895493E+01  0.80126811836E+01  0.00000000000E+00 0.  1.
</event>
<event>
 7    1  0.5913457E-013  0.5052886E+02  0.7816164E-02  0.1300439E+00
        -11   -1    0    0    0    0  0.00000000000E+00  0.00000000000E+00  0.45593999997E+02  0.45594000000E+02  0.51100000000E-03 0. -1.
         11   -1    0    0    0    0 -0.00000000000E+00 -0.00000000000E+00 -0.45593999997E+02  0.45594000000E+02  0.51100000000E-03 0.  1.
    9900012    2    1    2    0    0 -0.18464557019E+02  0.32821558641E+02  0.15328761245E+02  0.50528862051E+02  0.30000006689E+02 0.  0.
        -12    1    1    2    0    0  0.18464557019E+02 -0.32821558641E+02 -0.15328761245E+02  0.40659137949E+02  0.00000000000E+00 0.  1.
         11    1    3    3    0    0 -0.70171806681E+01  0.18433125922E+02  0.18619637466E+02  0.27124008838E+02  0.51100000000E-03 0. -1.
        -11    1    3    3    0    0 -0.37017374313E+01  0.15574702787E+01  0.48916725242E+01  0.63290626498E+01  0.51100000000E-03 0.  1.
         12    1    3    3    0    0 -0.77456389191E+01  0.12830962440E+02 -0.81825487454E+01  0.17075790563E+02  0.00000000000E+00 0. -1.
</event>
<event>
 7    1  0.5913457E-013  0.5052886E+02  0.7816164E-02  0.1300439E+00
        -11   -1    0    0    0    0  0.00000000000E+00  0.00000000000E+00  0.45593999997E+02  0.45594000000E+02  0.51100000000E-03 0. -1.
         11   -1    0    0    0    0 -0.00000000000E+00 -0.00000000000E+00 -0.45593999997E+02  0.45594000000E+02  0.51100000000E-03 0.  1.
    9900012    2    1    2    0    0 -0.22360434746E+01  0.30838728301E+02  0.26403386617E+02  0.50528857381E+02  0.29999992496E+02 0.  0.
        -12    1    1    2    0    0  0.22360434746E+01 -0.30838728301E+02 -0.26403386617E+02  0.40659142619E+02  0.00000000000E+00 0.  1.
         11    1    3    3    0    0  0.28159602052E+01  0.13997242289E+01  0.10961790243E+02  0.11403933768E+02  0.51100000000E-03 0.  1.
        -11    1    3    3    0    0  0.58199587751E+01  0.12030235432E+02  0.12667270104E+02  0.18413533524E+02  0.51100000000E-03 0. -1.
         12    1    3    3    0    0 -0.10871962455E+02  0.17408768640E+02  0.27743262705E+01  0.20711390089E+02  0.00000000000E+00 0. -1.
</event>
<event>
 7    1  0.5913457E-013  0.5052886E+02  0.7816164E-02  0.1300439E+00
        -11   -1    0    0    0    0  0.00000000000E+00  0.00000000000E+00  0.45593999997E+02  0.45594000000E+02  0.51100000000E-03 0.  1.
         11   -1    0    0    0    0 -0.00000000000E+00 -0.00000000000E+00 -0.45593999997E+02  0.45594000000E+02  0.51100000000E-03 0. -1.
    9900012    2    1    2    0    0  0.16190743100E+01 -0.17675291108E+02 -0.36580441177E+02  0.50528855960E+02  0.29999988175E+02 0.  0.
        -12    1    1    2    0    0 -0.16190743100E+01  0.17675291108E+02  0.36580441177E+02  0.40659144040E+02  0.00000000000E+00 0.  1.
         11    1    3    3    0    0  0.45363635999E+00 -0.34043234872E+01 -0.29628548767E+02  0.29826935925E+02  0.51100000000E-03 0. -1.
        -11    1    3    3    0    0 -0.41426868454E+01 -0.23365913419E+01 -0.59280965938E+01  0.76002528171E+01  0.51100000000E-03 0.  1.
        -12    1    3    3    0    0  0.53081247954E+01 -0.11934376279E+02 -0.10237958164E+01  0.13101667218E+02  0.00000000000E+00 0.  1.
</event>
<event>
 7    1  0.5913457E-013  0.5052886E+02  0.7816164E-02  0.1300439E+00
        -11   -1    0    0    0    0  0.00000000000E+00  0.00000000000E+00  0.45593999997E+02  0.45594000000E+02  0.51100000000E-03 0. -1.
         11   -1    0    0    0    0 -0.00000000000E+00 -0.00000000000E+00 -0.45593999997E+02  0.45594000000E+02  0.51100000000E-03 0.  1.
    9900012    2    1    2    0    0  0.43963237260E+01  0.40398617556E+02 -0.13376849286E+01  0.50528863712E+02  0.30000011739E+02 0.  0.
        -12    1    1    2    0    0 -0.43963237260E+01 -0.40398617556E+02  0.13376849286E+01  0.40659136288E+02  0.00000000000E+00 0.  1.
         11    1    3    3    0    0  0.95942018693E+01  0.15417892007E+02 -0.28708568332E+01  0.18384828600E+02  0.51100000000E-03 0. -1.
        -11    1    3    3    0    0 -0.92869745728E+01  0.22750892958E+02  0.64148885263E+01  0.25396886072E+02  0.51100000000E-03 0.  1.
         12    1    3    3    0    0  0.40890964294E+01  0.22298325914E+01 -0.48817166217E+01  0.67471490401E+01  0.00000000000E+00 0. -1.
</event>
<event>
 7    1  0.5913457E-013  0.5052886E+02  0.7816164E-02  0.1300439E+00
        -11   -1    0    0    0    0  0.00000000000E+00  0.00000000000E+00  0.45593999997E+02  0.45594000000E+02  0.51100000000E-03 0.  1.
         11   -1    0    0    0    0 -0.00000000000E+00 -0.00000000000E+00 -0.45593999997E+02  0.45594000000E+02  0.51100000000E-03 0. -1.
    9900012    2    1    2    0    0  0.20118287260E+01 -0.14283160196E+02 -0.38014597068E+02  0.50528859450E+02  0.29999998785E+02 0.  0.
        -12    1    1    2    0    0 -0.20118287260E+01  0.14283160196E+02  0.38014597068E+02  0.40659140550E+02  0.00000000000E+00 0.  1.
         11    1    3    3    0    0  0.27167816645E+00 -0.34288331551E+01 -0.28704596040E+00  0.34515361038E+01  0.51100000000E-03 0. -1.
        -11    1    3    3    0    0 -0.93573726921E+01 -0.48046682898E+01 -0.31048157008E+02  0.32781600249E+02  0.51100000000E-03 0.  1.
         12    1    3    3    0    0  0.11097523252E+02 -0.60496587516E+01 -0.66793940998E+01  0.14295723097E+02  0.00000000000E+00 0. -1.
</event>
<event>
 7    1  0.5913457E-013  0.5052886E+02  0.7816164E-02  0.1300439E+00
        -11   -1    0    0    0    0  0.00000000000E+00  0.00000000000E+00  0.45593999997E+02  0.45594000000E+02  0.51100000000E-03 0.  1.
         11   -1    0    0    0    0 -0.00000000000E+00 -0.00000000000E+00 -0.45593999997E+02  0.45594000000E+02  0.51100000000E-03 0. -1.
    9900012    2    1    2    0    0 -0.15476945120E+02  0.27798489441E+02 -0.25315490366E+02  0.50528857142E+02  0.29999991770E+02 0.  0.
        -12    1    1    2    0    0  0.15476945120E+02 -0.27798489441E+02  0.25315490366E+02  0.40659142858E+02  0.00000000000E+00 0.  1.
         11    1    3    3    0    0 -0.10110670770E+01  0.51524837234E+01  0.32054227681E+01  0.61518355421E+01  0.51100000000E-03 0. -1.
        -11    1    3    3    0    0  0.37704978771E+01 -0.46670269988E+00 -0.68535493967E+00  0.38605928698E+01  0.51100000000E-03 0.  1.
         12    1    3    3    0    0 -0.18236375920E+02  0.23112708417E+02 -0.27835558194E+02  0.40516428731E+02  0.00000000000E+00 0. -1.
</event>
<event>
 7    1  0.5913457E-013  0.5052886E+02  0.7816164E-02  0.1300439E+00
        -11   -1    0    0    0    0  0.00000000000E+00  0.00000000000E+00  0.45593999997E+02  0.45594000000E+02  0.51100000000E-03 0.  1.
         11   -1    0    0    0    0 -0.00000000000E+00 -0.00000000000E+00 -0.45593999997E+02  0.45594000000E+02  0.51100000000E-03 0. -1.
    9900012    2    1    2    0    0  0.86133755324E+01  0.54547971786E+01 -0.39360136383E+02  0.50528863432E+02  0.30000010888E+02 0.  0.
        -12    1    1    2    0    0 -0.86133755324E+01 -0.54547971786E+01  0.39360136383E+02  0.40659136568E+02  0.00000000000E+00 0.  1.
         11    1    3    3    0    0  0.62782516835E+01  0.64682504852E+01 -0.41581456397E+01  0.99269775845E+01  0.51100000000E-03 0.  1.
        -11    1    3    3    0    0  0.21808189803E-02 -0.16916059404E+01  0.23918697314E+01  0.29296034692E+01  0.51100000000E-03 0. -1.
         12    1    3    3    0    0  0.23329430299E+01  0.67815263383E+00 -0.37593860475E+02  0.37672282378E+02  0.00000000000E+00 0. -1.
</event>
<event>
 7    1  0.5913457E-013  0.5052886E+02  0.7816164E-02  0.1300439E+00
        -11   -1    0    0    0    0  0.00000000000E+00  0.00000000000E+00  0.45593999997E+02  0.45594000000E+02  0.51100000000E-03 0.  1.
         11   -1    0    0    0    0 -0.00000000000E+00 -0.00000000000E+00 -0.45593999997E+02  0.45594000000E+02  0.51100000000E-03 0. -1.
    9900012    2    1    2    0    0  0.16686271647E+02 -0.29265538713E+02 -0.22765378239E+02  0.50528857559E+02  0.29999993038E+02 0.  0.
        -12    1    1    2    0    0 -0.16686271647E+02  0.29265538713E+02  0.22765378239E+02  0.40659142441E+02  0.00000000000E+00 0.  1.
         11    1    3    3    0    0  0.63690297891E+01 -0.12963686901E+02 -0.18188678400E+02  0.23226057365E+02  0.51100000000E-03 0. -1.
        -11    1    3    3    0    0  0.13107714043E+02 -0.16832914422E+02 -0.80617017757E+01  0.22806801862E+02  0.51100000000E-03 0.  1.
        -12    1    3    3    0    0 -0.27904721857E+01  0.53106261000E+00  0.34850019362E+01  0.44959983330E+01  0.00000000000E+00 0.  1.
</event>
<event>
 7    1  0.5913457E-013  0.5052886E+02  0.7816164E-02  0.1300439E+00
        -11   -1    0    0    0    0  0.00000000000E+00  0.00000000000E+00  0.45593999997E+02  0.45594000000E+02  0.51100000000E-03 0.  1.
         11   -1    0    0    0    0 -0.00000000000E+00 -0.00000000000E+00 -0.45593999997E+02  0.45594000000E+02  0.51100000000E-03 0. -1.
    9900012    2    1    2    0    0  0.40659104620E+01 -0.13575944547E+02 -0.38109419189E+02  0.50528859217E+02  0.29999998077E+02 0.  0.
        -12    1    1    2    0    0 -0.40659104620E+01  0.13575944547E+02  0.38109419189E+02  0.40659140783E+02  0.00000000000E+00 0.  1.
         11    1    3    3    0    0  0.62328317434E+01 -0.82404990679E+01 -0.74625382149E+01  0.12745332216E+02  0.51100000000E-03 0. -1.
        -11    1    3    3    0    0  0.44726696165E+01  0.10684030113E+01  0.10961198104E+01  0.47273393566E+01  0.51100000000E-03 0.  1.
        -12    1    3    3    0    0 -0.66395908979E+01 -0.64038484903E+01 -0.31743000785E+02  0.33056187645E+02  0.00000000000E+00 0.  1.
</event>
<event>
 7    1  0.5913457E-013  0.5052886E+02  0.7816164E-02  0.1300439E+00
        -11   -1    0    0    0    0  0.00000000000E+00  0.00000000000E+00  0.45593999997E+02  0.45594000000E+02  0.51100000000E-03 0.  1.
         11   -1    0    0    0    0 -0.00000000000E+00 -0.00000000000E+00 -0.45593999997E+02  0.45594000000E+02  0.51100000000E-03 0. -1.
    9900012    2    1    2    0    0 -0.38082686584E+01  0.22635439937E+02 -0.33560389741E+02  0.50528858212E+02  0.29999995021E+02 0.  0.
        -12    1    1    2    0    0  0.38082686584E+01 -0.22635439937E+02  0.33560389741E+02  0.40659141788E+02  0.00000000000E+00 0.  1.
         11    1    3    3    0    0 -0.23656151845E+01  0.18102517252E+02 -0.22117982586E+02  0.28679302990E+02  0.51100000000E-03 0. -1.
        -11    1    3    3    0    0 -0.15128041206E+01  0.11265831745E+02 -0.46377394213E+01  0.12276651352E+02  0.51100000000E-03 0.  1.
         12    1    3    3    0    0  0.70150646749E-01 -0.67329090602E+01 -0.68046677346E+01  0.95729038700E+01  0.00000000000E+00 0. -1.
</event>
<event>
 7    1  0.5913457E-013  0.5052886E+02  0.7816164E-02  0.1300439E+00
        -11   -1    0    0    0    0  0.00000000000E+00  0.00000000000E+00  0.45593999997E+02  0.45594000000E+02  0.51100000000E-03 0.  1.
         11   -1    0    0    0    0 -0.00000000000E+00 -0.00000000000E+00 -0.45593999997E+02  0.45594000000E+02  0.51100000000E-03 0. -1.
    9900012    2    1    2    0    0 -0.22070978614E+02  0.30986937251E+02 -0.14347387040E+02  0.50528857214E+02  0.29999991989E+02 0.  0.
        -12    1    1    2    0    0  0.22070978614E+02 -0.30986937251E+02  0.14347387040E+02  0.40659142786E+02  0.00000000000E+00 0.  1.
         11    1    3    3    0    0 -0.86670261453E+01  0.18701507836E+02 -0.10066640827E+02  0.22939071371E+02  0.51100000000E-03 0. -1.
        -11    1    3    3    0    0 -0.78166310585E+00  0.11118987484E+02 -0.87271628702E+01  0.14156491511E+02  0.51100000000E-03 0.  1.
        -12    1    3    3    0    0 -0.12622289363E+02  0.11664419303E+01  0.44464166566E+01  0.13433294332E+02  0.00000000000E+00 0.  1.
</event>
<event>
 7    1  0.5913457E-013  0.5052886E+02  0.7816164E-02  0.1300439E+00
        -11   -1    0    0    0    0  0.00000000000E+00  0.00000000000E+00  0.45593999997E+02  0.45594000000E+02  0.51100000000E-03 0.  1.
         11   -1    0    0    0    0 -0.00000000000E+00 -0.00000000000E+00 -0.45593999997E+02  0.45594000000E+02  0.51100000000E-03 0. -1.
    9900012    2    1    2    0    0  0.17297967456E+02  0.26245388220E+02 -0.25790033533E+02  0.50528856987E+02  0.29999991297E+02 0.  0.
        -12    1    1    2    0    0 -0.17297967456E+02 -0.26245388220E+02  0.25790033533E+02  0.40659143013E+02  0.00000000000E+00 0.  1.
         11    1    3    3    0    0  0.12595377616E+00 -0.63423472049E-01 -0.12038916624E+02  0.12039742548E+02  0.51100000000E-03 0.  1.
        -11    1    3    3    0    0  0.14078019895E+02  0.98647055356E+01 -0.13326927133E+02  0.21751092996E+02  0.51100000000E-03 0. -1.
         12    1    3    3    0    0  0.30939937852E+01  0.16444106157E+02 -0.42418977591E+00  0.16738021442E+02  0.00000000000E+00 0. -1.
</event>
<event>
 7    1  0.5913457E-013  0.5052886E+02  0.7816164E-02  0.1300439E+00
        -11   -1    0    0    0    0  0.00000000000E+00  0.00000000000E+00  0.45593999997E+02  0.45594000000E+02  0.51100000000E-03 0. -1.
         11   -1    0    0    0    0 -0.00000000000E+00 -0.00000000000E+00 -0.45593999997E+02  0.45594000000E+02  0.51100000000E-03 0.  1.
    9900012    2    1    2    0    0  0.38876914326E+02 -0.37037185546E+00  0.11900154284E+02  0.50528864313E+02  0.30000013565E+02 0.  0.
        -12    1    1    2    0    0 -0.38876914326E+02  0.37037185546E+00 -0.11900154284E+02  0.40659135687E+02  0.00000000000E+00 0.  1.
         11    1    3    3    0    0  0.22128325900E+02 -0.25577181483E+01 -0.19398655462E+01  0.22359959925E+02  0.51100000000E-03 0.  1.
        -11    1    3    3    0    0  0.84173071788E+01 -0.26619559676E+01 -0.25193299123E+01  0.91806368616E+01  0.51100000000E-03 0. -1.
        -12    1    3    3    0    0  0.83312812474E+01  0.48493022604E+01  0.16359349742E+02  0.18988267526E+02  0.00000000000E+00 0.  1.
</event>
<event>
 7    1  0.5913457E-013  0.5052886E+02  0.7816164E-02  0.1300439E+00
        -11   -1    0    0    0    0  0.00000000000E+00  0.00000000000E+00  0.45593999997E+02  0.45594000000E+02  0.51100000000E-03 0.  1.
         11   -1    0    0    0    0 -0.00000000000E+00 -0.00000000000E+00 -0.45593999997E+02  0.45594000000E+02  0.51100000000E-03 0. -1.
    9900012    2    1    2    0    0 -0.36772157950E+02  0.11331748412E+02 -0.13136409854E+02  0.50528863435E+02  0.30000010896E+02 0.  0.
        -12    1    1    2    0    0  0.36772157950E+02 -0.11331748412E+02  0.13136409854E+02  0.40659136565E+02  0.00000000000E+00 0.  1.
         11    1    3    3    0    0 -0.14396458148E+02  0.11832532194E+02 -0.13677755654E+01  0.18685225061E+02  0.51100000000E-03 0. -1.
        -11    1    3    3    0    0 -0.29523180582E+01 -0.56750695433E-01  0.52447304251E+01  0.60188537158E+01  0.51100000000E-03 0.  1.
        -12    1    3    3    0    0 -0.19423381744E+02 -0.44403308584E+00 -0.17013364713E+02  0.25824784658E+02  0.00000000000E+00 0.  1.
</event>
<event>
 7    1  0.5913457E-013  0.5052886E+02  0.7816164E-02  0.1300439E+00
        -11   -1    0    0    0    0  0.00000000000E+00  0.00000000000E+00  0.45593999997E+02  0.45594000000E+02  0.51100000000E-03 0.  1.
         11   -1    0    0    0    0 -0.00000000000E+00 -0.00000000000E+00 -0.45593999997E+02  0.45594000000E+02  0.51100000000E-03 0. -1.
    9900012    2    1    2    0    0 -0.41299277082E+01 -0.36673651325E+02 -0.17063207567E+02  0.50528855188E+02  0.29999985830E+02 0.  0.
        -12    1    1    2    0    0  0.41299277082E+01  0.36673651325E+02  0.17063207567E+02  0.40659144812E+02  0.00000000000E+00 0.  1.
         11    1    3    3    0    0 -0.23432060674E+01 -0.60772704094E+01 -0.65003278017E+01  0.92020699896E+01  0.51100000000E-03 0. -1.
        -11    1    3    3    0    0 -0.52168397247E+01 -0.13330455309E+01  0.55602882502E+01  0.77401054765E+01  0.51100000000E-03 0.  1.
         12    1    3    3    0    0  0.34301180838E+01 -0.29263335385E+02 -0.16123168015E+02  0.33586679722E+02  0.00000000000E+00 0. -1.
</event>
<event>
 7    1  0.5913457E-013  0.5052885E+02  0.7816164E-02  0.1300439E+00
        -11   -1    0    0    0    0  0.00000000000E+00  0.00000000000E+00  0.45593999997E+02  0.45594000000E+02  0.51100000000E-03 0. -1.
         11   -1    0    0    0    0 -0.00000000000E+00 -0.00000000000E+00 -0.45593999997E+02  0.45594000000E+02  0.51100000000E-03 0.  1.
    9900012    2    1    2    0    0 -0.68517829694E+01  0.23146024861E+02  0.32718209975E+02  0.50528847762E+02  0.29999963258E+02 0.  0.
        -12    1    1    2    0    0  0.68517829694E+01 -0.23146024861E+02 -0.32718209975E+02  0.40659152238E+02  0.00000000000E+00 0.  1.
         11    1    3    3    0    0 -0.60792155925E+01  0.11174974358E+02  0.51093408133E+01  0.13709204132E+02  0.51100000000E-03 0. -1.
        -11    1    3    3    0    0  0.10012218875E+01 -0.60806530008E+01  0.59157946725E+01  0.85424477202E+01  0.51100000000E-03 0.  1.
         12    1    3    3    0    0 -0.17737892643E+01  0.18051703504E+02  0.21693074489E+02  0.28277195910E+02  0.00000000000E+00 0. -1.
</event>
<event>
 7    1  0.5913457E-013  0.5052886E+02  0.7816164E-02  0.1300439E+00
        -11   -1    0    0    0    0  0.00000000000E+00  0.00000000000E+00  0.45593999997E+02  0.45594000000E+02  0.51100000000E-03 0.  1.
         11   -1    0    0    0    0 -0.00000000000E+00 -0.00000000000E+00 -0.45593999997E+02  0.45594000000E+02  0.51100000000E-03 0. -1.
    9900012    2    1    2    0    0  0.19897777394E+02  0.35337027007E+02 -0.29220421033E+01  0.50528863844E+02  0.30000012140E+02 0.  0.
        -12    1    1    2    0    0 -0.19897777394E+02 -0.35337027007E+02  0.29220421033E+01  0.40659136156E+02  0.00000000000E+00 0.  1.
         11    1    3    3    0    0  0.28984719653E+01  0.61852143370E+01  0.15821883866E+00  0.68324995126E+01  0.51100000000E-03 0. -1.
        -11    1    3    3    0    0  0.12344120483E+02  0.14195387305E+02 -0.14961454396E+02  0.24036044790E+02  0.51100000000E-03 0.  1.
        -12    1    3    3    0    0  0.46551849461E+01  0.14956425365E+02  0.11881193454E+02  0.19660319542E+02  0.00000000000E+00 0.  1.
</event>
<event>
 7    1  0.5913457E-013  0.5052886E+02  0.7816164E-02  0.1300439E+00
        -11   -1    0    0    0    0  0.00000000000E+00  0.00000000000E+00  0.45593999997E+02  0.45594000000E+02  0.51100000000E-03 0.  1.
         11   -1    0    0    0    0 -0.00000000000E+00 -0.00000000000E+00 -0.45593999997E+02  0.45594000000E+02  0.51100000000E-03 0. -1.
    9900012    2    1    2    0    0  0.31330964684E+02  0.21757770150E+02  0.14076073592E+02  0.50528858866E+02  0.29999997010E+02 0.  0.
        -12    1    1    2    0    0 -0.31330964684E+02 -0.21757770150E+02 -0.14076073592E+02  0.40659141134E+02  0.00000000000E+00 0.  1.
         11    1    3    3    0    0 -0.13055672436E+01 -0.16501894018E+01 -0.50037411980E+00  0.21628697164E+01  0.51100000000E-03 0. -1.
        -11    1    3    3    0    0  0.18236945764E+01  0.85399796398E+01  0.10885124671E+02  0.13955036851E+02  0.51100000000E-03 0.  1.
         12    1    3    3    0    0  0.30812837351E+02  0.14867979912E+02  0.36913230416E+01  0.34410952299E+02  0.00000000000E+00 0. -1.
</event>
<event>
 7    1  0.5913457E-013  0.5052886E+02  0.7816164E-02  0.1300439E+00
        -11   -1    0    0    0    0  0.00000000000E+00  0.00000000000E+00  0.45593999997E+02  0.45594000000E+02  0.51100000000E-03 0.  1.
         11   -1    0    0    0    0 -0.00000000000E+00 -0.00000000000E+00 -0.45593999997E+02  0.45594000000E+02  0.51100000000E-03 0. -1.
    9900012    2    1    2    0    0 -0.44054238637E+01 -0.40226935937E+02 -0.39435040052E+01  0.50528863781E+02  0.30000011947E+02 0.  0.
        -12    1    1    2    0    0  0.44054238637E+01  0.40226935937E+02  0.39435040052E+01  0.40659136219E+02  0.00000000000E+00 0.  1.
         11    1    3    3    0    0 -0.75538152347E+01 -0.17020284545E+02 -0.49874618051E+01  0.19277577289E+02  0.51100000000E-03 0. -1.
        -11    1    3    3    0    0  0.16555013512E+01 -0.25156741978E+02 -0.41082372353E+01  0.25543687383E+02  0.51100000000E-03 0.  1.
         12    1    3    3    0    0  0.14928900199E+01  0.19500905867E+01  0.51521950352E+01  0.57075991090E+01  0.00000000000E+00 0. -1.
</event>
<event>
 7    1  0.5913457E-013  0.5052885E+02  0.7816164E-02  0.1300439E+00
        -11   -1    0    0    0    0  0.00000000000E+00  0.00000000000E+00  0.45593999997E+02  0.45594000000E+02  0.51100000000E-03 0.  1.
         11   -1    0    0    0    0 -0.00000000000E+00 -0.00000000000E+00 -0.45593999997E+02  0.45594000000E+02  0.51100000000E-03 0. -1.
    9900012    2    1    2    0    0 -0.83863859628E+01 -0.87092622367E+01 -0.38819885808E+02  0.50528852783E+02  0.29999978520E+02 0.  0.
        -12    1    1    2    0    0  0.83863859628E+01  0.87092622367E+01  0.38819885808E+02  0.40659147217E+02  0.00000000000E+00 0.  1.
         11    1    3    3    0    0 -0.58948330339E+01  0.62276399530E+01 -0.17965847961E+02  0.19907391821E+02  0.51100000000E-03 0. -1.
        -11    1    3    3    0    0 -0.87684189026E+01 -0.38807484991E+01 -0.74131030417E+01  0.12120209401E+02  0.51100000000E-03 0.  1.
         12    1    3    3    0    0  0.62768659737E+01 -0.11056153691E+02 -0.13440934805E+02  0.18501251561E+02  0.00000000000E+00 0. -1.
</event>
<event>
 7    1  0.5913457E-013  0.5052889E+02  0.7816164E-02  0.1300439E+00
        -11   -1    0    0    0    0  0.00000000000E+00  0.00000000000E+00  0.45593999997E+02  0.45594000000E+02  0.51100000000E-03 0.  1.
         11   -1    0    0    0    0 -0.00000000000E+00 -0.00000000000E+00 -0.45593999997E+02  0.45594000000E+02  0.51100000000E-03 0. -1.
    9900012    2    1    2    0    0 -0.27894594997E+02 -0.14250774768E+01 -0.29546978859E+02  0.50528889882E+02  0.30000091287E+02 0.  0.
        -12    1    1    2    0    0  0.27894594997E+02  0.14250774768E+01  0.29546978859E+02  0.40659110118E+02  0.00000000000E+00 0.  1.
         11    1    3    3    0    0 -0.17429880229E+02 -0.81188252963E+01 -0.32346657822E+02  0.37630072037E+02  0.51100000000E-03 0. -1.
        -11    1    3    3    0    0 -0.86706390370E+00  0.11456625306E+01 -0.99228883960E-01  0.14402045270E+01  0.51100000000E-03 0.  1.
         12    1    3    3    0    0 -0.95976508641E+01  0.55480852889E+01  0.28989078467E+01  0.11458613319E+02  0.00000000000E+00 0. -1.
</event>
<event>
 7    1  0.5913457E-013  0.5052887E+02  0.7816164E-02  0.1300439E+00
        -11   -1    0    0    0    0  0.00000000000E+00  0.00000000000E+00  0.45593999997E+02  0.45594000000E+02  0.51100000000E-03 0. -1.
         11   -1    0    0    0    0 -0.00000000000E+00 -0.00000000000E+00 -0.45593999997E+02  0.45594000000E+02  0.51100000000E-03 0.  1.
    9900012    2    1    2    0    0 -0.19880981839E+02  0.33237031928E+02  0.12377835831E+02  0.50528873716E+02  0.30000042148E+02 0.  0.
        -12    1    1    2    0    0  0.19880981839E+02 -0.33237031928E+02 -0.12377835831E+02  0.40659126284E+02  0.00000000000E+00 0.  1.
         11    1    3    3    0    0 -0.22690925542E+02  0.15431000153E+02  0.14361249132E+02  0.30971589313E+02  0.51100000000E-03 0. -1.
        -11    1    3    3    0    0  0.30426471235E+00 -0.70315507805E+00  0.56269359501E-01  0.76822560547E+00  0.51100000000E-03 0.  1.
         12    1    3    3    0    0  0.25056789903E+01  0.18509186853E+02 -0.20396826600E+01  0.18789058798E+02  0.00000000000E+00 0. -1.
</event>
<event>
 7    1  0.5913457E-013  0.5052885E+02  0.7816164E-02  0.1300439E+00
        -11   -1    0    0    0    0  0.00000000000E+00  0.00000000000E+00  0.45593999997E+02  0.45594000000E+02  0.51100000000E-03 0. -1.
         11   -1    0    0    0    0 -0.00000000000E+00 -0.00000000000E+00 -0.45593999997E+02  0.45594000000E+02  0.51100000000E-03 0.  1.
    9900012    2    1    2    0    0 -0.30644125133E+02 -0.26544225220E+02 -0.30835258250E+01  0.50528850609E+02  0.29999971912E+02 0.  0.
        -12    1    1    2    0    0  0.30644125133E+02  0.26544225220E+02  0.30835258250E+01  0.40659149391E+02  0.00000000000E+00 0.  1.
         11    1    3    3    0    0  0.81600547589E-01  0.94522418079E+00 -0.41289203017E+01  0.42365186793E+01  0.51100000000E-03 0. -1.
        -11    1    3    3    0    0 -0.88938455492E+01  0.17776122660E+00 -0.54824418948E+01  0.10449366349E+02  0.51100000000E-03 0.  1.
         12    1    3    3    0    0 -0.21831880131E+02 -0.27667210627E+02  0.65278363715E+01  0.35842965581E+02  0.00000000000E+00 0. -1.
</event>
<event>
 7    1  0.5913457E-013  0.5052886E+02  0.7816164E-02  0.1300439E+00
        -11   -1    0    0    0    0  0.00000000000E+00  0.00000000000E+00  0.45593999997E+02  0.45594000000E+02  0.51100000000E-03 0.  1.
         11   -1    0    0    0    0 -0.00000000000E+00 -0.00000000000E+00 -0.45593999997E+02  0.45594000000E+02  0.51100000000E-03 0. -1.
    9900012    2    1    2    0    0  0.22553211219E+02 -0.29811523710E+02  0.15993486256E+02  0.50528857303E+02  0.29999992260E+02 0.  0.
        -12    1    1    2    0    0 -0.22553211219E+02  0.29811523710E+02 -0.15993486256E+02  0.40659142697E+02  0.00000000000E+00 0.  1.
         11    1    3    3    0    0  0.16552228382E+02 -0.77836136731E+01  0.20926503852E+01  0.18410325692E+02  0.51100000000E-03 0. -1.
        -11    1    3    3    0    0  0.15748958397E+01  0.12935556709E+01 -0.25301280300E+01  0.32488661544E+01  0.51100000000E-03 0.  1.
         12    1    3    3    0    0  0.44260869976E+01 -0.23321465708E+02  0.16430963901E+02  0.28869665457E+02  0.00000000000E+00 0. -1.
</event>
<event>
 7    1  0.5913457E-013  0.5052877E+02  0.7816164E-02  0.1300439E+00
        -11   -1    0    0    0    0  0.00000000000E+00  0.00000000000E+00  0.45593999997E+02  0.45594000000E+02  0.51100000000E-03 0. -1.
         11   -1    0    0    0    0 -0.00000000000E+00 -0.00000000000E+00 -0.45593999997E+02  0.45594000000E+02  0.51100000000E-03 0.  1.
    9900012    2    1    2    0    0 -0.18524484365E+02  0.23188249200E+02  0.27790669667E+02  0.50528772973E+02  0.29999735927E+02 0.  0.
        -12    1    1    2    0    0  0.18524484365E+02 -0.23188249200E+02 -0.27790669667E+02  0.40659227027E+02  0.00000000000E+00 0.  1.
         11    1    3    3    0    0 -0.73914425463E+01  0.17218413982E+02  0.13533900578E+02  0.23114360646E+02  0.51100000000E-03 0. -1.
        -11    1    3    3    0    0  0.55315516814E+01  0.32977670172E+01  0.50871167932E+01  0.82068318389E+01  0.51100000000E-03 0.  1.
        -12    1    3    3    0    0 -0.16664593500E+02  0.26720682011E+01  0.91696522953E+01  0.19207580488E+02  0.00000000000E+00 0.  1.
</event>
<event>
 7    1  0.5913457E-013  0.5052886E+02  0.7816164E-02  0.1300439E+00
        -11   -1    0    0    0    0  0.00000000000E+00  0.00000000000E+00  0.45593999997E+02  0.45594000000E+02  0.51100000000E-03 0.  1.
         11   -1    0    0    0    0 -0.00000000000E+00 -0.00000000000E+00 -0.45593999997E+02  0.45594000000E+02  0.51100000000E-03 0. -1.
    9900012    2    1    2    0    0  0.20472794502E+02 -0.33946073035E+02 -0.90385014229E+01  0.50528859611E+02  0.29999999273E+02 0.  0.
        -12    1    1    2    0    0 -0.20472794502E+02  0.33946073035E+02  0.90385014229E+01  0.40659140389E+02  0.00000000000E+00 0.  1.
         11    1    3    3    0    0  0.10078105418E+01 -0.11072718759E+02 -0.10691003414E+02  0.15424601683E+02  0.51100000000E-03 0.  1.
        -11    1    3    3    0    0  0.21156904762E+02 -0.15941748916E+02 -0.28870081679E+01  0.26647491327E+02  0.51100000000E-03 0. -1.
         12    1    3    3    0    0 -0.16919208010E+01 -0.69316053599E+01  0.45395101595E+01  0.84567666014E+01  0.00000000000E+00 0. -1.
</event>
<event>
 7    1  0.5913457E-013  0.5052886E+02  0.7816164E-02  0.1300439E+00
        -11   -1    0    0    0    0  0.00000000000E+00  0.00000000000E+00  0.45593999997E+02  0.45594000000E+02  0.51100000000E-03 0. -1.
         11   -1    0    0    0    0 -0.00000000000E+00 -0.00000000000E+00 -0.45593999997E+02  0.45594000000E+02  0.51100000000E-03 0.  1.
    9900012    2    1    2    0    0 -0.27416762156E+02 -0.11636583079E+02  0.27678095698E+02  0.50528857186E+02  0.29999991903E+02 0.  0.
        -12    1    1    2    0    0  0.27416762156E+02  0.11636583079E+02 -0.27678095698E+02  0.40659142814E+02  0.00000000000E+00 0.  1.
         11    1    3    3    0    0  0.46932150272E+00 -0.61196003837E+00 -0.56818631081E+00  0.95791111612E+00  0.51100000000E-03 0. -1.
        -11    1    3    3    0    0  0.16802864744E+01 -0.39714170404E+01 -0.35482956392E+01  0.55844353474E+01  0.51100000000E-03 0.  1.
         12    1    3    3    0    0 -0.29566370133E+02 -0.70532059998E+01  0.31794577649E+02  0.43986510723E+02  0.00000000000E+00 0. -1.
</event>
<event>
 7    1  0.5913457E-013  0.5052886E+02  0.7816164E-02  0.1300439E+00
        -11   -1    0    0    0    0  0.00000000000E+00  0.00000000000E+00  0.45593999997E+02  0.45594000000E+02  0.51100000000E-03 0.  1.
         11   -1    0    0    0    0 -0.00000000000E+00 -0.00000000000E+00 -0.45593999997E+02  0.45594000000E+02  0.51100000000E-03 0. -1.
    9900012    2    1    2    0    0 -0.20959971507E+02 -0.18894103747E+02 -0.29272137071E+02  0.50528861167E+02  0.30000004003E+02 0.  0.
        -12    1    1    2    0    0  0.20959971507E+02  0.18894103747E+02  0.29272137071E+02  0.40659138833E+02  0.00000000000E+00 0.  1.
         11    1    3    3    0    0  0.33643050414E+01 -0.64819803209E+01 -0.68760201792E+01  0.10030666531E+02  0.51100000000E-03 0. -1.
        -11    1    3    3    0    0 -0.98204414622E+00 -0.56457109186E+00 -0.12440786476E+02  0.12492250382E+02  0.51100000000E-03 0.  1.
        -12    1    3    3    0    0 -0.23342232402E+02 -0.11847552334E+02 -0.99553304158E+01  0.28005944253E+02  0.00000000000E+00 0.  1.
</event>
<event>
 7    1  0.5913457E-013  0.5052886E+02  0.7816164E-02  0.1300439E+00
        -11   -1    0    0    0    0  0.00000000000E+00  0.00000000000E+00  0.45593999997E+02  0.45594000000E+02  0.51100000000E-03 0.  1.
         11   -1    0    0    0    0 -0.00000000000E+00 -0.00000000000E+00 -0.45593999997E+02  0.45594000000E+02  0.51100000000E-03 0. -1.
    9900012    2    1    2    0    0  0.24845888726E+02 -0.12040915024E+02 -0.29847343727E+02  0.50528858976E+02  0.29999997344E+02 0.  0.
        -12    1    1    2    0    0 -0.24845888726E+02  0.12040915024E+02  0.29847343727E+02  0.40659141024E+02  0.00000000000E+00 0.  1.
         11    1    3    3    0    0  0.13806179226E+02  0.60294900083E+01 -0.65452319887E+01  0.16425754066E+02  0.51100000000E-03 0. -1.
        -11    1    3    3    0    0 -0.69346686569E+00  0.15840900832E+01 -0.51520758768E+00  0.18043494132E+01  0.51100000000E-03 0.  1.
         12    1    3    3    0    0  0.11733176366E+02 -0.19654495116E+02 -0.22786904151E+02  0.32298755497E+02  0.00000000000E+00 0. -1.
</event>
<event>
 7    1  0.5913457E-013  0.5052886E+02  0.7816164E-02  0.1300439E+00
        -11   -1    0    0    0    0  0.00000000000E+00  0.00000000000E+00  0.45593999997E+02  0.45594000000E+02  0.51100000000E-03 0.  1.
         11   -1    0    0    0    0 -0.00000000000E+00 -0.00000000000E+00 -0.45593999997E+02  0.45594000000E+02  0.51100000000E-03 0. -1.
    9900012    2    1    2    0    0  0.36343753075E+02 -0.10318817167E+02 -0.15027279626E+02  0.50528861934E+02  0.30000006334E+02 0.  0.
        -12    1    1    2    0    0 -0.36343753075E+02  0.10318817167E+02  0.15027279626E+02  0.40659138066E+02  0.00000000000E+00 0.  1.
         11    1    3    3    0    0  0.76670726326E+01 -0.43196195104E+01 -0.12371306026E+02  0.15181973801E+02  0.51100000000E-03 0. -1.
        -11    1    3    3    0    0  0.33078133007E+01  0.19931427757E+01 -0.73830029190E+01  0.83320453263E+01  0.51100000000E-03 0.  1.
         12    1    3    3    0    0  0.25368867142E+02 -0.79923404325E+01  0.47270293182E+01  0.27014842806E+02  0.00000000000E+00 0. -1.
</event>
<event>
 7    1  0.5913457E-013  0.5052884E+02  0.7816164E-02  0.1300439E+00
        -11   -1    0    0    0    0  0.00000000000E+00  0.00000000000E+00  0.45593999997E+02  0.45594000000E+02  0.51100000000E-03 0.  1.
         11   -1    0    0    0    0 -0.00000000000E+00 -0.00000000000E+00 -0.45593999997E+02  0.45594000000E+02  0.51100000000E-03 0. -1.
    9900012    2    1    2    0    0  0.36948492621E+02  0.15490013068E+02 -0.69307812746E+01  0.50528839398E+02  0.29999937833E+02 0.  0.
        -12    1    1    2    0    0 -0.36948492621E+02 -0.15490013068E+02  0.69307812746E+01  0.40659160602E+02  0.00000000000E+00 0.  1.
         11    1    3    3    0    0  0.26433343460E+01  0.19111049560E+01  0.18463347239E+01  0.37481316401E+01  0.51100000000E-03 0. -1.
        -11    1    3    3    0    0  0.29979164591E+02  0.41836698200E+01  0.37882245850E+01  0.30505803521E+02  0.51100000000E-03 0.  1.
        -12    1    3    3    0    0  0.43259936847E+01  0.93952382915E+01 -0.12565340583E+02  0.16274904236E+02  0.00000000000E+00 0.  1.
</event>
<event>
 7    1  0.5913457E-013  0.5052886E+02  0.7816164E-02  0.1300439E+00
        -11   -1    0    0    0    0  0.00000000000E+00  0.00000000000E+00  0.45593999997E+02  0.45594000000E+02  0.51100000000E-03 0.  1.
         11   -1    0    0    0    0 -0.00000000000E+00 -0.00000000000E+00 -0.45593999997E+02  0.45594000000E+02  0.51100000000E-03 0. -1.
    9900012    2    1    2    0    0 -0.12983460157E+02  0.21379194988E+02 -0.32055041778E+02  0.50528856878E+02  0.29999990967E+02 0.  0.
        -12    1    1    2    0    0  0.12983460157E+02 -0.21379194988E+02  0.32055041778E+02  0.40659143122E+02  0.00000000000E+00 0.  1.
         11    1    3    3    0    0  0.61353163004E+00  0.11881224445E+02 -0.28366877859E+02  0.30760683918E+02  0.51100000000E-03 0. -1.
        -11    1    3    3    0    0 -0.41739322505E+01  0.17807666507E+01 -0.58439817381E+01  0.73989839243E+01  0.51100000000E-03 0.  1.
        -12    1    3    3    0    0 -0.94230595371E+01  0.77172038921E+01  0.21558178183E+01  0.12369189036E+02  0.00000000000E+00 0.  1.
</event>
<event>
 7    1  0.5913457E-013  0.5052886E+02  0.7816164E-02  0.1300439E+00
        -11   -1    0    0    0    0  0.00000000000E+00  0.00000000000E+00  0.45593999997E+02  0.45594000000E+02  0.51100000000E-03 0. -1.
         11   -1    0    0    0    0 -0.00000000000E+00 -0.00000000000E+00 -0.45593999997E+02  0.45594000000E+02  0.51100000000E-03 0.  1.
    9900012    2    1    2    0    0  0.23671611130E+00 -0.55814130154E+01  0.40273536134E+02  0.50528856889E+02  0.29999991001E+02 0.  0.
        -12    1    1    2    0    0 -0.23671611130E+00  0.55814130154E+01 -0.40273536134E+02  0.40659143111E+02  0.00000000000E+00 0.  1.
         11    1    3    3    0    0 -0.64704867029E+01 -0.27748358546E+01  0.78182274162E+01  0.10521007194E+02  0.51100000000E-03 0.  1.
        -11    1    3    3    0    0  0.13647637992E+01  0.92654541203E+01  0.18862142783E+02  0.21059241461E+02  0.51100000000E-03 0. -1.
         12    1    3    3    0    0  0.53424390150E+01 -0.12072031281E+02  0.13593165934E+02  0.18948608234E+02  0.00000000000E+00 0. -1.
</event>
<event>
 7    1  0.5913457E-013  0.5052895E+02  0.7816164E-02  0.1300438E+00
        -11   -1    0    0    0    0  0.00000000000E+00  0.00000000000E+00  0.45593999997E+02  0.45594000000E+02  0.51100000000E-03 0. -1.
         11   -1    0    0    0    0 -0.00000000000E+00 -0.00000000000E+00 -0.45593999997E+02  0.45594000000E+02  0.51100000000E-03 0.  1.
    9900012    2    1    2    0    0  0.21913832525E+02 -0.23478499059E+02 -0.24933964288E+02  0.50528947512E+02  0.30000266458E+02 0.  0.
        -12    1    1    2    0    0 -0.21913832525E+02  0.23478499059E+02  0.24933964288E+02  0.40659052488E+02  0.00000000000E+00 0.  1.
         11    1    3    3    0    0  0.51050156012E+01 -0.15439368673E+02 -0.15565152475E+02  0.22510203489E+02  0.51100000000E-03 0. -1.
        -11    1    3    3    0    0 -0.21978181003E+01 -0.49263603416E+01 -0.66580439795E+01  0.85690711580E+01  0.51100000000E-03 0.  1.
         12    1    3    3    0    0  0.19006635025E+02 -0.31127700454E+01 -0.27107678339E+01  0.19449672865E+02  0.00000000000E+00 0. -1.
</event>
<event>
 7    1  0.5913457E-013  0.5052886E+02  0.7816164E-02  0.1300439E+00
        -11   -1    0    0    0    0  0.00000000000E+00  0.00000000000E+00  0.45593999997E+02  0.45594000000E+02  0.51100000000E-03 0.  1.
         11   -1    0    0    0    0 -0.00000000000E+00 -0.00000000000E+00 -0.45593999997E+02  0.45594000000E+02  0.51100000000E-03 0. -1.
    9900012    2    1    2    0    0  0.27622407274E+02  0.29832702855E+02  0.42204442879E+00  0.50528860010E+02  0.30000000485E+02 0.  0.
        -12    1    1    2    0    0 -0.27622407274E+02 -0.29832702855E+02 -0.42204442879E+00  0.40659139990E+02  0.00000000000E+00 0.  1.
         11    1    3    3    0    0 -0.50334258215E+01  0.47529612295E+01  0.27931166507E+01  0.74650865256E+01  0.51100000000E-03 0. -1.
        -11    1    3    3    0    0  0.49530382928E+01  0.82332470923E+01  0.32786127530E+01  0.10152253339E+02  0.51100000000E-03 0.  1.
         12    1    3    3    0    0  0.27702794803E+02  0.16846494533E+02 -0.56496849749E+01  0.32911520145E+02  0.00000000000E+00 0. -1.
</event>
<event>
 7    1  0.5913457E-013  0.5052886E+02  0.7816164E-02  0.1300439E+00
        -11   -1    0    0    0    0  0.00000000000E+00  0.00000000000E+00  0.45593999997E+02  0.45594000000E+02  0.51100000000E-03 0.  1.
         11   -1    0    0    0    0 -0.00000000000E+00 -0.00000000000E+00 -0.45593999997E+02  0.45594000000E+02  0.51100000000E-03 0. -1.
    9900012    2    1    2    0    0  0.13408804258E+02 -0.37960924520E+01 -0.38196327994E+02  0.50528858079E+02  0.29999994618E+02 0.  0.
        -12    1    1    2    0    0 -0.13408804258E+02  0.37960924520E+01  0.38196327994E+02  0.40659141921E+02  0.00000000000E+00 0.  1.
         11    1    3    3    0    0  0.10153641379E+01  0.90044451861E+01 -0.62195863646E+01  0.10990643851E+02  0.51100000000E-03 0. -1.
        -11    1    3    3    0    0  0.47803233368E+00 -0.29504563775E+01 -0.19344029942E+02  0.19573584302E+02  0.51100000000E-03 0.  1.
        -12    1    3    3    0    0  0.11915407787E+02 -0.98500812606E+01 -0.12632711687E+02  0.19964629927E+02  0.00000000000E+00 0.  1.
</event>
<event>
 7    1  0.5913457E-013  0.5052887E+02  0.7816164E-02  0.1300439E+00
        -11   -1    0    0    0    0  0.00000000000E+00  0.00000000000E+00  0.45593999997E+02  0.45594000000E+02  0.51100000000E-03 0.  1.
         11   -1    0    0    0    0 -0.00000000000E+00 -0.00000000000E+00 -0.45593999997E+02  0.45594000000E+02  0.51100000000E-03 0. -1.
    9900012    2    1    2    0    0 -0.29406307383E+01  0.94287324873E+01 -0.39441303083E+02  0.50528871943E+02  0.30000036758E+02 0.  0.
        -12    1    1    2    0    0  0.29406307383E+01 -0.94287324873E+01  0.39441303083E+02  0.40659128057E+02  0.00000000000E+00 0.  1.
         11    1    3    3    0    0  0.48106632996E+01 -0.13662643990E+01 -0.32369745757E+01  0.59571104115E+01  0.51100000000E-03 0. -1.
        -11    1    3    3    0    0  0.88572333125E+00 -0.48020759285E+01 -0.19632294653E+02  0.20230458043E+02  0.51100000000E-03 0.  1.
         12    1    3    3    0    0 -0.86370173692E+01  0.15597072815E+02 -0.16572033855E+02  0.24341303488E+02  0.00000000000E+00 0. -1.
</event>
<event>
 7    1  0.5913457E-013  0.5052886E+02  0.7816164E-02  0.1300439E+00
        -11   -1    0    0    0    0  0.00000000000E+00  0.00000000000E+00  0.45593999997E+02  0.45594000000E+02  0.51100000000E-03 0.  1.
         11   -1    0    0    0    0 -0.00000000000E+00 -0.00000000000E+00 -0.45593999997E+02  0.45594000000E+02  0.51100000000E-03 0. -1.
    9900012    2    1    2    0    0 -0.75440467476E+01  0.52609671384E+01 -0.39605246778E+02  0.50528856023E+02  0.29999988368E+02 0.  0.
        -12    1    1    2    0    0  0.75440467476E+01 -0.52609671384E+01  0.39605246778E+02  0.40659143977E+02  0.00000000000E+00 0.  1.
         11    1    3    3    0    0 -0.32465892541E+00 -0.34039705837E+01  0.23024128177E+01  0.41223202443E+01  0.51100000000E-03 0. -1.
        -11    1    3    3    0    0  0.57116718970E-01 -0.46763686064E+01 -0.84076732811E+01  0.96208448654E+01  0.51100000000E-03 0.  1.
         12    1    3    3    0    0 -0.72765045412E+01  0.13341306328E+02 -0.33499986315E+02  0.36785690913E+02  0.00000000000E+00 0. -1.
</event>
<event>
 7    1  0.5913457E-013  0.5052886E+02  0.7816164E-02  0.1300439E+00
        -11   -1    0    0    0    0  0.00000000000E+00  0.00000000000E+00  0.45593999997E+02  0.45594000000E+02  0.51100000000E-03 0. -1.
         11   -1    0    0    0    0 -0.00000000000E+00 -0.00000000000E+00 -0.45593999997E+02  0.45594000000E+02  0.51100000000E-03 0.  1.
    9900012    2    1    2    0    0  0.12733235430E+02  0.24684236300E+01  0.38534887178E+02  0.50528856754E+02  0.29999990588E+02 0.  0.
        -12    1    1    2    0    0 -0.12733235430E+02 -0.24684236300E+01 -0.38534887178E+02  0.40659143246E+02  0.00000000000E+00 0.  1.
         11    1    3    3    0    0 -0.20901972506E+00  0.18446203785E+01  0.90654032894E+00  0.20659451143E+01  0.51100000000E-03 0. -1.
        -11    1    3    3    0    0 -0.59630817689E+01 -0.62200604037E+01  0.45264326384E+01  0.97332465447E+01  0.51100000000E-03 0.  1.
         12    1    3    3    0    0  0.18905336924E+02  0.68438636552E+01  0.33101914211E+02  0.38729665094E+02  0.00000000000E+00 0. -1.
</event>
<event>
 7    1  0.5913457E-013  0.5052886E+02  0.7816164E-02  0.1300439E+00
        -11   -1    0    0    0    0  0.00000000000E+00  0.00000000000E+00  0.45593999997E+02  0.45594000000E+02  0.51100000000E-03 0. -1.
         11   -1    0    0    0    0 -0.00000000000E+00 -0.00000000000E+00 -0.45593999997E+02  0.45594000000E+02  0.51100000000E-03 0.  1.
    9900012    2    1    2    0    0 -0.16889065227E+02  0.31756139383E+02 -0.18959766105E+02  0.50528860271E+02  0.30000001279E+02 0.  0.
        -12    1    1    2    0    0  0.16889065227E+02 -0.31756139383E+02  0.18959766105E+02  0.40659139729E+02  0.00000000000E+00 0.  1.
         11    1    3    3    0    0  0.46154820787E+01  0.40223771213E+01 -0.43493362173E+01  0.75099213256E+01  0.51100000000E-03 0. -1.
        -11    1    3    3    0    0 -0.11283609173E+01 -0.29304624972E+01  0.57661087386E+00  0.31926930902E+01  0.51100000000E-03 0.  1.
         12    1    3    3    0    0 -0.20376186389E+02  0.30664224759E+02 -0.15187040762E+02  0.39826245855E+02  0.00000000000E+00 0. -1.
</event>
<event>
 7    1  0.5913457E-013  0.5052888E+02  0.7816164E-02  0.1300439E+00
        -11   -1    0    0    0    0  0.00000000000E+00  0.00000000000E+00  0.45593999997E+02  0.45594000000E+02  0.51100000000E-03 0.  1.
         11   -1    0    0    0    0 -0.00000000000E+00 -0.00000000000E+00 -0.45593999997E+02  0.45594000000E+02  0.51100000000E-03 0. -1.
    9900012    2    1    2    0    0  0.38456634605E+02  0.54104450267E+01  0.12040709818E+02  0.50528876135E+02  0.30000049500E+02 0.  0.
        -12    1    1    2    0    0 -0.38456634605E+02 -0.54104450267E+01 -0.12040709818E+02  0.40659123865E+02  0.00000000000E+00 0.  1.
         11    1    3    3    0    0  0.26211510727E+02 -0.53105234449E+01  0.14770109651E+02  0.30551613595E+02  0.51100000000E-03 0. -1.
        -11    1    3    3    0    0  0.56707019903E+01 -0.95534457349E+00  0.14684464320E+01  0.59351393835E+01  0.51100000000E-03 0.  1.
         12    1    3    3    0    0  0.65744218878E+01  0.11676313045E+02 -0.41978462652E+01  0.14042123157E+02  0.00000000000E+00 0. -1.
</event>
<event>
 7    1  0.5913457E-013  0.5052886E+02  0.7816164E-02  0.1300439E+00
        -11   -1    0    0    0    0  0.00000000000E+00  0.00000000000E+00  0.45593999997E+02  0.45594000000E+02  0.51100000000E-03 0.  1.
         11   -1    0    0    0    0 -0.00000000000E+00 -0.00000000000E+00 -0.45593999997E+02  0.45594000000E+02  0.51100000000E-03 0. -1.
    9900012    2    1    2    0    0 -0.30863943665E+02 -0.16836341351E+02 -0.20423529009E+02  0.50528856554E+02  0.29999989980E+02 0.  0.
        -12    1    1    2    0    0  0.30863943665E+02  0.16836341351E+02  0.20423529009E+02  0.40659143446E+02  0.00000000000E+00 0.  1.
         11    1    3    3    0    0 -0.25409825540E+01  0.13651019829E+00  0.44699704348E+00  0.25836087150E+01  0.51100000000E-03 0. -1.
        -11    1    3    3    0    0 -0.11872756165E+02  0.47981082091E+01  0.11834265423E+01  0.12860197509E+02  0.51100000000E-03 0.  1.
        -12    1    3    3    0    0 -0.16450204946E+02 -0.21770959758E+02 -0.22053952595E+02  0.35085050329E+02  0.00000000000E+00 0.  1.
</event>
<event>
 7    1  0.5913457E-013  0.5052886E+02  0.7816164E-02  0.1300439E+00
        -11   -1    0    0    0    0  0.00000000000E+00  0.00000000000E+00  0.45593999997E+02  0.45594000000E+02  0.51100000000E-03 0.  1.
         11   -1    0    0    0    0 -0.00000000000E+00 -0.00000000000E+00 -0.45593999997E+02  0.45594000000E+02  0.51100000000E-03 0. -1.
    9900012    2    1    2    0    0  0.27651986123E+02  0.27067373573E+02 -0.12485629164E+02  0.50528856080E+02  0.29999988540E+02 0.  0.
        -12    1    1    2    0    0 -0.27651986123E+02 -0.27067373573E+02  0.12485629164E+02  0.40659143920E+02  0.00000000000E+00 0.  1.
         11    1    3    3    0    0  0.19373152391E+02  0.17231304528E+02  0.85335940753E+00  0.25941571113E+02  0.51100000000E-03 0. -1.
        -11    1    3    3    0    0  0.42681524954E+01  0.32725652483E+01  0.32624391563E+01  0.62904943000E+01  0.51100000000E-03 0.  1.
        -12    1    3    3    0    0  0.40106812372E+01  0.65635037965E+01 -0.16601427728E+02  0.18296790666E+02  0.00000000000E+00 0.  1.
</event>
<event>
 7    1  0.5913457E-013  0.5052885E+02  0.7816164E-02  0.1300439E+00
        -11   -1    0    0    0    0  0.00000000000E+00  0.00000000000E+00  0.45593999997E+02  0.45594000000E+02  0.51100000000E-03 0. -1.
         11   -1    0    0    0    0 -0.00000000000E+00 -0.00000000000E+00 -0.45593999997E+02  0.45594000000E+02  0.51100000000E-03 0.  1.
    9900012    2    1    2    0    0 -0.35562995048E+02 -0.15897505353E+02 -0.11649417771E+02  0.50528853088E+02  0.29999979446E+02 0.  0.
        -12    1    1    2    0    0  0.35562995048E+02  0.15897505353E+02  0.11649417771E+02  0.40659146912E+02  0.00000000000E+00 0.  1.
         11    1    3    3    0    0 -0.10884114078E-01  0.50629826006E+01 -0.35203740515E+01  0.61665991439E+01  0.51100000000E-03 0. -1.
        -11    1    3    3    0    0 -0.30316713200E+01 -0.36374215548E+01 -0.57361465517E+01  0.74380941164E+01  0.51100000000E-03 0.  1.
         12    1    3    3    0    0 -0.32520439614E+02 -0.17323066399E+02 -0.23928971679E+01  0.36924159828E+02  0.00000000000E+00 0. -1.
</event>
<event>
 7    1  0.5913457E-013  0.5052886E+02  0.7816164E-02  0.1300439E+00
        -11   -1    0    0    0    0  0.00000000000E+00  0.00000000000E+00  0.45593999997E+02  0.45594000000E+02  0.51100000000E-03 0. -1.
         11   -1    0    0    0    0 -0.00000000000E+00 -0.00000000000E+00 -0.45593999997E+02  0.45594000000E+02  0.51100000000E-03 0.  1.
    9900012    2    1    2    0    0 -0.23295720295E+00 -0.30514018975E+02  0.26870166139E+02  0.50528862633E+02  0.30000008458E+02 0.  0.
        -12    1    1    2    0    0  0.23295720295E+00  0.30514018975E+02 -0.26870166139E+02  0.40659137367E+02  0.00000000000E+00 0.  1.
         11    1    3    3    0    0 -0.37516069550E+01  0.59377547493E+00 -0.41949864280E-01  0.37985371015E+01  0.51100000000E-03 0. -1.
        -11    1    3    3    0    0 -0.80779897955E+01 -0.85618820197E+01  0.13958892670E+02  0.18259529777E+02  0.51100000000E-03 0.  1.
         12    1    3    3    0    0  0.11596639548E+02 -0.22545912431E+02  0.12953223334E+02  0.28470795754E+02  0.00000000000E+00 0. -1.
</event>
<event>
 7    1  0.5913457E-013  0.5052884E+02  0.7816164E-02  0.1300439E+00
        -11   -1    0    0    0    0  0.00000000000E+00  0.00000000000E+00  0.45593999997E+02  0.45594000000E+02  0.51100000000E-03 0.  1.
         11   -1    0    0    0    0 -0.00000000000E+00 -0.00000000000E+00 -0.45593999997E+02  0.45594000000E+02  0.51100000000E-03 0. -1.
    9900012    2    1    2    0    0  0.24621598568E+02  0.28470744704E+02  0.15374019488E+02  0.50528844878E+02  0.29999954490E+02 0.  0.
        -12    1    1    2    0    0 -0.24621598568E+02 -0.28470744704E+02 -0.15374019488E+02  0.40659155122E+02  0.00000000000E+00 0.  1.
         11    1    3    3    0    0  0.11794366490E+02  0.20609348004E+02 -0.17580467412E+01  0.23810565610E+02  0.51100000000E-03 0. -1.
        -11    1    3    3    0    0  0.56648529423E+01  0.12923030666E+01 -0.12333974322E+01  0.59398548434E+01  0.51100000000E-03 0.  1.
        -12    1    3    3    0    0  0.71623791357E+01  0.65690936334E+01  0.18365463662E+02  0.20778424424E+02  0.00000000000E+00 0.  1.
</event>
<event>
 7    1  0.5913457E-013  0.5052881E+02  0.7816164E-02  0.1300439E+00
        -11   -1    0    0    0    0  0.00000000000E+00  0.00000000000E+00  0.45593999997E+02  0.45594000000E+02  0.51100000000E-03 0.  1.
         11   -1    0    0    0    0 -0.00000000000E+00 -0.00000000000E+00 -0.45593999997E+02  0.45594000000E+02  0.51100000000E-03 0. -1.
    9900012    2    1    2    0    0  0.45557620678E+00 -0.34520449853E+02 -0.21477903784E+02  0.50528814584E+02  0.29999862408E+02 0.  0.
        -12    1    1    2    0    0 -0.45557620678E+00  0.34520449853E+02  0.21477903784E+02  0.40659185416E+02  0.00000000000E+00 0.  1.
         11    1    3    3    0    0  0.31183105596E+01 -0.39399948475E+02 -0.18000109279E+02  0.43429065554E+02  0.51100000000E-03 0. -1.
        -11    1    3    3    0    0 -0.70970715987E+00  0.88775597320E-01 -0.13056666532E+01  0.14887347077E+01  0.51100000000E-03 0.  1.
        -12    1    3    3    0    0 -0.19530271930E+01  0.47907230245E+01 -0.21721278520E+01  0.56110143218E+01  0.00000000000E+00 0.  1.
</event>
<event>
 7    1  0.5913457E-013  0.5052887E+02  0.7816164E-02  0.1300439E+00
        -11   -1    0    0    0    0  0.00000000000E+00  0.00000000000E+00  0.45593999997E+02  0.45594000000E+02  0.51100000000E-03 0.  1.
         11   -1    0    0    0    0 -0.00000000000E+00 -0.00000000000E+00 -0.45593999997E+02  0.45594000000E+02  0.51100000000E-03 0. -1.
    9900012    2    1    2    0    0  0.95526729634E+01  0.12300820740E+02 -0.37557975142E+02  0.50528865130E+02  0.30000016048E+02 0.  0.
        -12    1    1    2    0    0 -0.95526729634E+01 -0.12300820740E+02  0.37557975142E+02  0.40659134870E+02  0.00000000000E+00 0.  1.
         11    1    3    3    0    0 -0.35123329348E+01  0.11363347298E+02 -0.17347144356E+02  0.21032963701E+02  0.51100000000E-03 0. -1.
        -11    1    3    3    0    0  0.47966049450E+01 -0.65811414039E+01 -0.15208832933E+02  0.17251882234E+02  0.51100000000E-03 0.  1.
         12    1    3    3    0    0  0.82684009533E+01  0.75186148459E+01 -0.50019978535E+01  0.12244019195E+02  0.00000000000E+00 0. -1.
</event>
<event>
 7    1  0.5913457E-013  0.5052887E+02  0.7816164E-02  0.1300439E+00
        -11   -1    0    0    0    0  0.00000000000E+00  0.00000000000E+00  0.45593999997E+02  0.45594000000E+02  0.51100000000E-03 0. -1.
         11   -1    0    0    0    0 -0.00000000000E+00 -0.00000000000E+00 -0.45593999997E+02  0.45594000000E+02  0.51100000000E-03 0.  1.
    9900012    2    1    2    0    0  0.23921544158E+01  0.35582290065E+02  0.19528014308E+02  0.50528866809E+02  0.30000021152E+02 0.  0.
        -12    1    1    2    0    0 -0.23921544158E+01 -0.35582290065E+02 -0.19528014308E+02  0.40659133191E+02  0.00000000000E+00 0.  1.
         11    1    3    3    0    0  0.49965065715E+01  0.18223601634E+02  0.20527131450E+00  0.18897271523E+02  0.51100000000E-03 0. -1.
        -11    1    3    3    0    0  0.82152665881E+00  0.30096005479E+01 -0.33526885933E+01  0.45796421884E+01  0.51100000000E-03 0.  1.
         12    1    3    3    0    0 -0.34258788145E+01  0.14349087884E+02  0.22675431587E+02  0.27051953098E+02  0.00000000000E+00 0. -1.
</event>
<event>
 7    1  0.5913457E-013  0.5052885E+02  0.7816164E-02  0.1300439E+00
        -11   -1    0    0    0    0  0.00000000000E+00  0.00000000000E+00  0.45593999997E+02  0.45594000000E+02  0.51100000000E-03 0. -1.
         11   -1    0    0    0    0 -0.00000000000E+00 -0.00000000000E+00 -0.45593999997E+02  0.45594000000E+02  0.51100000000E-03 0.  1.
    9900012    2    1    2    0    0 -0.27840093366E+02 -0.20161907373E+02  0.21716188999E+02  0.50528853770E+02  0.29999981519E+02 0.  0.
        -12    1    1    2    0    0  0.27840093366E+02  0.20161907373E+02 -0.21716188999E+02  0.40659146230E+02  0.00000000000E+00 0.  1.
         11    1    3    3    0    0 -0.12469680618E+02 -0.14071922680E+01  0.12194165535E+02  0.17497736943E+02  0.51100000000E-03 0. -1.
        -11    1    3    3    0    0  0.46933723671E+01 -0.28159379640E+01  0.41022577754E+01  0.68400124204E+01  0.51100000000E-03 0.  1.
         12    1    3    3    0    0 -0.20063785115E+02 -0.15938777141E+02  0.54197656888E+01  0.26191104406E+02  0.00000000000E+00 0. -1.
</event>
<event>
 7    1  0.5913457E-013  0.5052885E+02  0.7816164E-02  0.1300439E+00
        -11   -1    0    0    0    0  0.00000000000E+00  0.00000000000E+00  0.45593999997E+02  0.45594000000E+02  0.51100000000E-03 0.  1.
         11   -1    0    0    0    0 -0.00000000000E+00 -0.00000000000E+00 -0.45593999997E+02  0.45594000000E+02  0.51100000000E-03 0. -1.
    9900012    2    1    2    0    0  0.11023702340E+02 -0.15644745657E+02 -0.35873193413E+02  0.50528854835E+02  0.29999984755E+02 0.  0.
        -12    1    1    2    0    0 -0.11023702340E+02  0.15644745657E+02  0.35873193413E+02  0.40659145165E+02  0.00000000000E+00 0.  1.
         11    1    3    3    0    0  0.88515285161E+01 -0.17334211230E+01 -0.32484419399E+02  0.33713377313E+02  0.51100000000E-03 0. -1.
        -11    1    3    3    0    0  0.23116230053E+01  0.12622990273E+00 -0.12001038446E+01  0.26076396234E+01  0.51100000000E-03 0.  1.
         12    1    3    3    0    0 -0.13944918134E+00 -0.14037554437E+02 -0.21886701688E+01  0.14207837898E+02  0.00000000000E+00 0. -1.
</event>
<event>
 7    1  0.5913457E-013  0.5052887E+02  0.7816164E-02  0.1300439E+00
        -11   -1    0    0    0    0  0.00000000000E+00  0.00000000000E+00  0.45593999997E+02  0.45594000000E+02  0.51100000000E-03 0.  1.
         11   -1    0    0    0    0 -0.00000000000E+00 -0.00000000000E+00 -0.45593999997E+02  0.45594000000E+02  0.51100000000E-03 0. -1.
    9900012    2    1    2    0    0 -0.21489867215E+02  0.34449769740E+02  0.21363569229E+01  0.50528867582E+02  0.30000023502E+02 0.  0.
        -12    1    1    2    0    0  0.21489867215E+02 -0.34449769740E+02 -0.21363569229E+01  0.40659132418E+02  0.00000000000E+00 0.  1.
         11    1    3    3    0    0 -0.77813733547E+01  0.20810202736E+01  0.38463214682E-01  0.80549299403E+01  0.51100000000E-03 0. -1.
        -11    1    3    3    0    0 -0.13085454388E+02  0.78901115171E+01 -0.63837343737E+01  0.16560043512E+02  0.51100000000E-03 0.  1.
        -12    1    3    3    0    0 -0.62303947235E+00  0.24478637949E+02  0.84816280819E+01  0.25913894130E+02  0.00000000000E+00 0.  1.
</event>
<event>
 7    1  0.5913457E-013  0.5052886E+02  0.7816164E-02  0.1300439E+00
        -11   -1    0    0    0    0  0.00000000000E+00  0.00000000000E+00  0.45593999997E+02  0.45594000000E+02  0.51100000000E-03 0.  1.
         11   -1    0    0    0    0 -0.00000000000E+00 -0.00000000000E+00 -0.45593999997E+02  0.45594000000E+02  0.51100000000E-03 0. -1.
    9900012    2    1    2    0    0 -0.13451145424E+02 -0.23174754478E+02 -0.30580438145E+02  0.50528858894E+02  0.29999997095E+02 0.  0.
        -12    1    1    2    0    0  0.13451145424E+02  0.23174754478E+02  0.30580438145E+02  0.40659141106E+02  0.00000000000E+00 0.  1.
         11    1    3    3    0    0  0.21479683942E+01  0.25638484891E+01 -0.94263783306E+01  0.10002184561E+02  0.51100000000E-03 0. -1.
        -11    1    3    3    0    0 -0.54422779775E+01 -0.19786267958E+02 -0.20070613011E+02  0.28704429905E+02  0.51100000000E-03 0.  1.
         12    1    3    3    0    0 -0.10156835840E+02 -0.59523350094E+01 -0.10834468039E+01  0.11822244429E+02  0.00000000000E+00 0. -1.
</event>
<event>
 7    1  0.5913457E-013  0.5052886E+02  0.7816164E-02  0.1300439E+00
        -11   -1    0    0    0    0  0.00000000000E+00  0.00000000000E+00  0.45593999997E+02  0.45594000000E+02  0.51100000000E-03 0. -1.
         11   -1    0    0    0    0 -0.00000000000E+00 -0.00000000000E+00 -0.45593999997E+02  0.45594000000E+02  0.51100000000E-03 0.  1.
    9900012    2    1    2    0    0  0.31761372025E+00 -0.28963401126E+02  0.28533942938E+02  0.50528863476E+02  0.30000011023E+02 0.  0.
        -12    1    1    2    0    0 -0.31761372025E+00  0.28963401126E+02 -0.28533942938E+02  0.40659136524E+02  0.00000000000E+00 0.  1.
         11    1    3    3    0    0 -0.43646827847E+01 -0.18683451284E+02  0.22734732258E+02  0.29748779114E+02  0.51100000000E-03 0. -1.
        -11    1    3    3    0    0  0.79018705308E+01  0.10090078669E+01  0.39660689676E+01  0.88987278910E+01  0.51100000000E-03 0.  1.
         12    1    3    3    0    0 -0.32195740258E+01 -0.11288957709E+02  0.18331417127E+01  0.11881356471E+02  0.00000000000E+00 0. -1.
</event>
<event>
 7    1  0.5913457E-013  0.5052886E+02  0.7816164E-02  0.1300439E+00
        -11   -1    0    0    0    0  0.00000000000E+00  0.00000000000E+00  0.45593999997E+02  0.45594000000E+02  0.51100000000E-03 0.  1.
         11   -1    0    0    0    0 -0.00000000000E+00 -0.00000000000E+00 -0.45593999997E+02  0.45594000000E+02  0.51100000000E-03 0. -1.
    9900012    2    1    2    0    0  0.29028289112E+02 -0.69756094397E+01 -0.27601897415E+02  0.50528862814E+02  0.30000009010E+02 0.  0.
        -12    1    1    2    0    0 -0.29028289112E+02  0.69756094397E+01  0.27601897415E+02  0.40659137186E+02  0.00000000000E+00 0.  1.
         11    1    3    3    0    0  0.25039113243E+01 -0.79191563406E+00 -0.81054759138E+01  0.85202959070E+01  0.51100000000E-03 0. -1.
        -11    1    3    3    0    0  0.30704522317E+02 -0.55571742537E+01 -0.20898503569E+02  0.37555256996E+02  0.51100000000E-03 0.  1.
        -12    1    3    3    0    0 -0.41801445292E+01 -0.62651955197E+00  0.14020820681E+01  0.44533099106E+01  0.00000000000E+00 0.  1.
</event>
<event>
 7    1  0.5913457E-013  0.5052886E+02  0.7816164E-02  0.1300439E+00
        -11   -1    0    0    0    0  0.00000000000E+00  0.00000000000E+00  0.45593999997E+02  0.45594000000E+02  0.51100000000E-03 0.  1.
         11   -1    0    0    0    0 -0.00000000000E+00 -0.00000000000E+00 -0.45593999997E+02  0.45594000000E+02  0.51100000000E-03 0. -1.
    9900012    2    1    2    0    0  0.55406425564E+01 -0.13982425173E+02 -0.37775102449E+02  0.50528864511E+02  0.30000014169E+02 0.  0.
        -12    1    1    2    0    0 -0.55406425564E+01  0.13982425173E+02  0.37775102449E+02  0.40659135489E+02  0.00000000000E+00 0.  1.
         11    1    3    3    0    0  0.10572439805E+02 -0.11095142480E+02 -0.85364440701E+01  0.17542791902E+02  0.51100000000E-03 0. -1.
        -11    1    3    3    0    0 -0.30106604653E+01 -0.74324546853E+01 -0.25590154212E+02  0.26817185758E+02  0.51100000000E-03 0.  1.
        -12    1    3    3    0    0 -0.20211367834E+01  0.45451719925E+01 -0.36485041664E+01  0.61688868519E+01  0.00000000000E+00 0.  1.
</event>
<event>
 7    1  0.7687340E-013  0.5052885E+02  0.7816164E-02  0.1300439E+00
        -11   -1    0    0    0    0  0.00000000000E+00  0.00000000000E+00  0.45593999997E+02  0.45594000000E+02  0.51100000000E-03 0. -1.
         11   -1    0    0    0    0 -0.00000000000E+00 -0.00000000000E+00 -0.45593999997E+02  0.45594000000E+02  0.51100000000E-03 0.  1.
    9900012    2    1    2    0    0 -0.26915368939E+02 -0.22940388214E+02  0.20061600004E+02  0.50528852305E+02  0.29999977068E+02 0.  0.
        -12    1    1    2    0    0  0.26915368939E+02  0.22940388214E+02 -0.20061600004E+02  0.40659147695E+02  0.00000000000E+00 0.  1.
         11    1    3    3    0    0 -0.18963607952E+02 -0.12813361760E+02  0.16877410561E+02  0.28436730713E+02  0.51100000000E-03 0. -1.
        -11    1    3    3    0    0 -0.12879640610E+02 -0.46126908630E+01  0.48435968700E+01  0.14512838803E+02  0.51100000000E-03 0.  1.
        -12    1    3    3    0    0  0.49278796231E+01 -0.55143355908E+01 -0.16594074264E+01  0.75792827889E+01  0.00000000000E+00 0.  1.
</event>
<event>
 7    1  0.5913457E-013  0.5052886E+02  0.7816164E-02  0.1300439E+00
        -11   -1    0    0    0    0  0.00000000000E+00  0.00000000000E+00  0.45593999997E+02  0.45594000000E+02  0.51100000000E-03 0. -1.
         11   -1    0    0    0    0 -0.00000000000E+00 -0.00000000000E+00 -0.45593999997E+02  0.45594000000E+02  0.51100000000E-03 0.  1.
    9900012    2    1    2    0    0  0.32324861610E+02  0.21387318913E+02  0.12282167477E+02  0.50528859253E+02  0.29999998185E+02 0.  0.
        -12    1    1    2    0    0 -0.32324861610E+02 -0.21387318913E+02 -0.12282167477E+02  0.40659140747E+02  0.00000000000E+00 0.  1.
         11    1    3    3    0    0  0.15646955383E+02  0.68740165452E+01  0.15438045659E+02  0.23030687576E+02  0.51100000000E-03 0. -1.
        -11    1    3    3    0    0  0.16328450987E+02  0.40952261776E+01 -0.10741572173E+01  0.16868402505E+02  0.51100000000E-03 0.  1.
        -12    1    3    3    0    0  0.34945523984E+00  0.10418076190E+02 -0.20817209644E+01  0.10629769172E+02  0.00000000000E+00 0.  1.
</event>
<event>
 7    1  0.5913457E-013  0.5052886E+02  0.7816164E-02  0.1300439E+00
        -11   -1    0    0    0    0  0.00000000000E+00  0.00000000000E+00  0.45593999997E+02  0.45594000000E+02  0.51100000000E-03 0.  1.
         11   -1    0    0    0    0 -0.00000000000E+00 -0.00000000000E+00 -0.45593999997E+02  0.45594000000E+02  0.51100000000E-03 0. -1.
    9900012    2    1    2    0    0 -0.25528354081E+02  0.16694187462E+02 -0.26884441145E+02  0.50528856714E+02  0.29999990467E+02 0.  0.
        -12    1    1    2    0    0  0.25528354081E+02 -0.16694187462E+02  0.26884441145E+02  0.40659143286E+02  0.00000000000E+00 0.  1.
         11    1    3    3    0    0 -0.12644617240E+02  0.56313530627E+01 -0.47788324464E+01  0.14643623946E+02  0.51100000000E-03 0. -1.
        -11    1    3    3    0    0 -0.15700402273E+02  0.48787668888E+01 -0.45478647384E+01  0.17058372485E+02  0.51100000000E-03 0.  1.
        -12    1    3    3    0    0  0.28166654323E+01  0.61840675101E+01 -0.17557743960E+02  0.18826860283E+02  0.00000000000E+00 0.  1.
</event>
<event>
 7    1  0.5913457E-013  0.5052888E+02  0.7816164E-02  0.1300439E+00
        -11   -1    0    0    0    0  0.00000000000E+00  0.00000000000E+00  0.45593999997E+02  0.45594000000E+02  0.51100000000E-03 0.  1.
         11   -1    0    0    0    0 -0.00000000000E+00 -0.00000000000E+00 -0.45593999997E+02  0.45594000000E+02  0.51100000000E-03 0. -1.
    9900012    2    1    2    0    0 -0.76760445087E+01 -0.37894707475E+02 -0.12579101457E+02  0.50528876701E+02  0.30000051221E+02 0.  0.
        -12    1    1    2    0    0  0.76760445087E+01  0.37894707475E+02  0.12579101457E+02  0.40659123299E+02  0.00000000000E+00 0.  1.
         11    1    3    3    0    0  0.38635830253E+01 -0.20576064843E+02 -0.40853465220E+01  0.21330536202E+02  0.51100000000E-03 0. -1.
        -11    1    3    3    0    0  0.23278770100E+01 -0.11439528371E+02  0.44672258493E+00  0.11682524644E+02  0.51100000000E-03 0.  1.
         12    1    3    3    0    0 -0.13867504544E+02 -0.58791142612E+01 -0.89404775203E+01  0.17515815855E+02  0.00000000000E+00 0. -1.
</event>
<event>
 7    1  0.5913457E-013  0.5052886E+02  0.7816164E-02  0.1300439E+00
        -11   -1    0    0    0    0  0.00000000000E+00  0.00000000000E+00  0.45593999997E+02  0.45594000000E+02  0.51100000000E-03 0.  1.
         11   -1    0    0    0    0 -0.00000000000E+00 -0.00000000000E+00 -0.45593999997E+02  0.45594000000E+02  0.51100000000E-03 0. -1.
    9900012    2    1    2    0    0  0.77308025414E+01 -0.49130103153E+01 -0.39613923166E+02  0.50528857278E+02  0.29999992182E+02 0.  0.
        -12    1    1    2    0    0 -0.77308025414E+01  0.49130103153E+01  0.39613923166E+02  0.40659142722E+02  0.00000000000E+00 0.  1.
         11    1    3    3    0    0 -0.67437158663E+01  0.26302527482E+01 -0.36086921869E+01  0.80881761087E+01  0.51100000000E-03 0. -1.
        -11    1    3    3    0    0  0.58018586332E+01 -0.29532722760E+01 -0.16562326011E+01  0.67176251329E+01  0.51100000000E-03 0.  1.
         12    1    3    3    0    0  0.86726597745E+01 -0.45899907874E+01 -0.34348998378E+02  0.35723056036E+02  0.00000000000E+00 0. -1.
</event>
<event>
 7    1  0.5913457E-013  0.5052886E+02  0.7816164E-02  0.1300439E+00
        -11   -1    0    0    0    0  0.00000000000E+00  0.00000000000E+00  0.45593999997E+02  0.45594000000E+02  0.51100000000E-03 0.  1.
         11   -1    0    0    0    0 -0.00000000000E+00 -0.00000000000E+00 -0.45593999997E+02  0.45594000000E+02  0.51100000000E-03 0. -1.
    9900012    2    1    2    0    0 -0.69940377931E+01 -0.10224692972E+02 -0.38726022655E+02  0.50528859064E+02  0.29999997611E+02 0.  0.
        -12    1    1    2    0    0  0.69940377931E+01  0.10224692972E+02  0.38726022655E+02  0.40659140936E+02  0.00000000000E+00 0.  1.
         11    1    3    3    0    0  0.48892347227E+00 -0.89447858395E+01 -0.19358394710E+02  0.21330627883E+02  0.51100000000E-03 0. -1.
        -11    1    3    3    0    0 -0.64329059709E+00 -0.10307383275E+02 -0.11198507118E+02  0.15233598875E+02  0.51100000000E-03 0.  1.
        -12    1    3    3    0    0 -0.68396706683E+01  0.90274761424E+01 -0.81691208269E+01  0.13964632306E+02  0.00000000000E+00 0.  1.
</event>
<event>
 7    1  0.5913457E-013  0.5052884E+02  0.7816164E-02  0.1300439E+00
        -11   -1    0    0    0    0  0.00000000000E+00  0.00000000000E+00  0.45593999997E+02  0.45594000000E+02  0.51100000000E-03 0.  1.
         11   -1    0    0    0    0 -0.00000000000E+00 -0.00000000000E+00 -0.45593999997E+02  0.45594000000E+02  0.51100000000E-03 0. -1.
    9900012    2    1    2    0    0  0.24142721227E+02  0.32573958199E+02 -0.30386418505E+01  0.50528842541E+02  0.29999947388E+02 0.  0.
        -12    1    1    2    0    0 -0.24142721227E+02 -0.32573958199E+02  0.30386418505E+01  0.40659157459E+02  0.00000000000E+00 0.  1.
         11    1    3    3    0    0  0.63832602429E+01  0.11473647273E+02 -0.10951176485E+02  0.17097334873E+02  0.51100000000E-03 0. -1.
        -11    1    3    3    0    0 -0.27941021370E+01  0.42153589464E+01  0.41998966359E+01  0.65738413285E+01  0.51100000000E-03 0.  1.
        -12    1    3    3    0    0  0.20553563121E+02  0.16884951979E+02  0.37126379988E+01  0.26857666340E+02  0.00000000000E+00 0.  1.
</event>
<event>
 7    1  0.5913457E-013  0.5052886E+02  0.7816164E-02  0.1300439E+00
        -11   -1    0    0    0    0  0.00000000000E+00  0.00000000000E+00  0.45593999997E+02  0.45594000000E+02  0.51100000000E-03 0. -1.
         11   -1    0    0    0    0 -0.00000000000E+00 -0.00000000000E+00 -0.45593999997E+02  0.45594000000E+02  0.51100000000E-03 0.  1.
    9900012    2    1    2    0    0 -0.29631217969E+01 -0.25800518980E+02  0.31284475805E+02  0.50528864534E+02  0.30000014237E+02 0.  0.
        -12    1    1    2    0    0  0.29631217969E+01  0.25800518980E+02 -0.31284475805E+02  0.40659135466E+02  0.00000000000E+00 0.  1.
         11    1    3    3    0    0  0.39812093475E+01  0.79014077773E+00  0.97326544241E+01  0.10545089507E+02  0.51100000000E-03 0. -1.
        -11    1    3    3    0    0  0.66237542705E+01 -0.76718500584E+01  0.43138157875E+01  0.11015462354E+02  0.51100000000E-03 0.  1.
        -12    1    3    3    0    0 -0.13568085415E+02 -0.18918809699E+02  0.17238005594E+02  0.28968312673E+02  0.00000000000E+00 0.  1.
</event>
<event>
 7    1  0.5913457E-013  0.5052886E+02  0.7816164E-02  0.1300439E+00
        -11   -1    0    0    0    0  0.00000000000E+00  0.00000000000E+00  0.45593999997E+02  0.45594000000E+02  0.51100000000E-03 0. -1.
         11   -1    0    0    0    0 -0.00000000000E+00 -0.00000000000E+00 -0.45593999997E+02  0.45594000000E+02  0.51100000000E-03 0.  1.
    9900012    2    1    2    0    0  0.36553392682E+02  0.17738748138E+02  0.15337036745E+01  0.50528856514E+02  0.29999989861E+02 0.  0.
        -12    1    1    2    0    0 -0.36553392682E+02 -0.17738748138E+02 -0.15337036745E+01  0.40659143486E+02  0.00000000000E+00 0.  1.
         11    1    3    3    0    0  0.15424960224E+02  0.33872518061E+01  0.17027533937E+01  0.15884024745E+02  0.51100000000E-03 0. -1.
        -11    1    3    3    0    0  0.13450464012E+02  0.80604230089E+01  0.11410655193E+02  0.19393000114E+02  0.51100000000E-03 0.  1.
        -12    1    3    3    0    0  0.76779684461E+01  0.62910733225E+01 -0.11579704912E+02  0.15251831656E+02  0.00000000000E+00 0.  1.
</event>
<event>
 7    1  0.5913457E-013  0.5052888E+02  0.7816164E-02  0.1300439E+00
        -11   -1    0    0    0    0  0.00000000000E+00  0.00000000000E+00  0.45593999997E+02  0.45594000000E+02  0.51100000000E-03 0. -1.
         11   -1    0    0    0    0 -0.00000000000E+00 -0.00000000000E+00 -0.45593999997E+02  0.45594000000E+02  0.51100000000E-03 0.  1.
    9900012    2    1    2    0    0  0.22739987116E+02 -0.67361504953E+01  0.33025460857E+02  0.50528882913E+02  0.30000070101E+02 0.  0.
        -12    1    1    2    0    0 -0.22739987116E+02  0.67361504953E+01 -0.33025460857E+02  0.40659117087E+02  0.00000000000E+00 0.  1.
         11    1    3    3    0    0  0.19910066520E+02 -0.16537983288E+00  0.21674848742E+02  0.29431907305E+02  0.51100000000E-03 0. -1.
        -11    1    3    3    0    0  0.24315086892E+01  0.51213944139E+01  0.16644324536E+01  0.59085743544E+01  0.51100000000E-03 0.  1.
         12    1    3    3    0    0  0.39841190652E+00 -0.11692165076E+02  0.96861796608E+01  0.15188401254E+02  0.00000000000E+00 0. -1.
</event>
<event>
 7    1  0.5913457E-013  0.5052886E+02  0.7816164E-02  0.1300439E+00
        -11   -1    0    0    0    0  0.00000000000E+00  0.00000000000E+00  0.45593999997E+02  0.45594000000E+02  0.51100000000E-03 0.  1.
         11   -1    0    0    0    0 -0.00000000000E+00 -0.00000000000E+00 -0.45593999997E+02  0.45594000000E+02  0.51100000000E-03 0. -1.
    9900012    2    1    2    0    0  0.41744971080E+01 -0.12381881746E+02 -0.38502313412E+02  0.50528861301E+02  0.30000004411E+02 0.  0.
        -12    1    1    2    0    0 -0.41744971080E+01  0.12381881746E+02  0.38502313412E+02  0.40659138699E+02  0.00000000000E+00 0.  1.
         11    1    3    3    0    0  0.95995430365E+00 -0.60465444873E+01 -0.31503249383E+02  0.32092630532E+02  0.51100000000E-03 0. -1.
        -11    1    3    3    0    0 -0.34328714233E+01  0.31243522314E+01 -0.47810130408E+01  0.66636528295E+01  0.51100000000E-03 0.  1.
        -12    1    3    3    0    0  0.66474142276E+01 -0.94596894901E+01 -0.22180509877E+01  0.11772577940E+02  0.00000000000E+00 0.  1.
</event>
<event>
 7    1  0.5913457E-013  0.5052886E+02  0.7816164E-02  0.1300439E+00
        -11   -1    0    0    0    0  0.00000000000E+00  0.00000000000E+00  0.45593999997E+02  0.45594000000E+02  0.51100000000E-03 0.  1.
         11   -1    0    0    0    0 -0.00000000000E+00 -0.00000000000E+00 -0.45593999997E+02  0.45594000000E+02  0.51100000000E-03 0. -1.
    9900012    2    1    2    0    0 -0.22755898783E+02 -0.18277951308E+02 -0.28306375517E+02  0.50528864146E+02  0.30000013059E+02 0.  0.
        -12    1    1    2    0    0  0.22755898783E+02  0.18277951308E+02  0.28306375517E+02  0.40659135854E+02  0.00000000000E+00 0.  1.
         11    1    3    3    0    0 -0.31013029916E+01  0.10423898218E+01 -0.50660456921E+00  0.33107861963E+01  0.51100000000E-03 0. -1.
        -11    1    3    3    0    0 -0.14466039304E+02  0.14224574812E+01 -0.36980060922E+01  0.14998830879E+02  0.51100000000E-03 0.  1.
         12    1    3    3    0    0 -0.51885564882E+01 -0.20742798611E+02 -0.24101764856E+02  0.32219247071E+02  0.00000000000E+00 0. -1.
</event>
<event>
 7    1  0.5913457E-013  0.5052886E+02  0.7816164E-02  0.1300439E+00
        -11   -1    0    0    0    0  0.00000000000E+00  0.00000000000E+00  0.45593999997E+02  0.45594000000E+02  0.51100000000E-03 0.  1.
         11   -1    0    0    0    0 -0.00000000000E+00 -0.00000000000E+00 -0.45593999997E+02  0.45594000000E+02  0.51100000000E-03 0. -1.
    9900012    2    1    2    0    0  0.21876599139E+02 -0.28314227135E+02 -0.19310223629E+02  0.50528858534E+02  0.29999996001E+02 0.  0.
        -12    1    1    2    0    0 -0.21876599139E+02  0.28314227135E+02  0.19310223629E+02  0.40659141466E+02  0.00000000000E+00 0.  1.
         11    1    3    3    0    0  0.30891918378E+01 -0.48961111852E+01 -0.39085818283E+01  0.69851287116E+01  0.51100000000E-03 0.  1.
        -11    1    3    3    0    0 -0.63320869786E+01 -0.10241781840E+02 -0.71427788153E+01  0.14000311076E+02  0.51100000000E-03 0. -1.
        -12    1    3    3    0    0  0.25119494280E+02 -0.13176334109E+02 -0.82588629857E+01  0.29543418747E+02  0.00000000000E+00 0.  1.
</event>
<event>
 7    1  0.5913457E-013  0.5052886E+02  0.7816164E-02  0.1300439E+00
        -11   -1    0    0    0    0  0.00000000000E+00  0.00000000000E+00  0.45593999997E+02  0.45594000000E+02  0.51100000000E-03 0.  1.
         11   -1    0    0    0    0 -0.00000000000E+00 -0.00000000000E+00 -0.45593999997E+02  0.45594000000E+02  0.51100000000E-03 0. -1.
    9900012    2    1    2    0    0 -0.18580960890E+02 -0.36982162214E+01 -0.35975501100E+02  0.50528860926E+02  0.30000003270E+02 0.  0.
        -12    1    1    2    0    0  0.18580960890E+02  0.36982162214E+01  0.35975501100E+02  0.40659139074E+02  0.00000000000E+00 0.  1.
         11    1    3    3    0    0 -0.28617494643E+01  0.14208239197E+01 -0.51677463563E+01  0.60756854157E+01  0.51100000000E-03 0. -1.
        -11    1    3    3    0    0 -0.14979725406E+02  0.87103273429E+01 -0.22141730371E+02  0.28116155494E+02  0.51100000000E-03 0.  1.
        -12    1    3    3    0    0 -0.73948602068E+00 -0.13829367484E+02 -0.86660243730E+01  0.16337020016E+02  0.00000000000E+00 0.  1.
</event>
<event>
 7    1  0.5913457E-013  0.5052887E+02  0.7816164E-02  0.1300439E+00
        -11   -1    0    0    0    0  0.00000000000E+00  0.00000000000E+00  0.45593999997E+02  0.45594000000E+02  0.51100000000E-03 0. -1.
         11   -1    0    0    0    0 -0.00000000000E+00 -0.00000000000E+00 -0.45593999997E+02  0.45594000000E+02  0.51100000000E-03 0.  1.
    9900012    2    1    2    0    0  0.32654487568E+02 -0.24156008049E+02 -0.18265825730E+01  0.50528872032E+02  0.30000037029E+02 0.  0.
        -12    1    1    2    0    0 -0.32654487568E+02  0.24156008049E+02  0.18265825730E+01  0.40659127968E+02  0.00000000000E+00 0.  1.
         11    1    3    3    0    0  0.12156707414E+02 -0.15656588550E+02 -0.65005769775E+01  0.20860771834E+02  0.51100000000E-03 0. -1.
        -11    1    3    3    0    0  0.93334790352E-01 -0.79191280612E+01 -0.20424879956E+01  0.81788176472E+01  0.51100000000E-03 0.  1.
         12    1    3    3    0    0  0.20404445363E+02 -0.58029143737E+00  0.67164824002E+01  0.21489282551E+02  0.00000000000E+00 0. -1.
</event>
<event>
 7    1  0.5913457E-013  0.5052872E+02  0.7816164E-02  0.1300439E+00
        -11   -1    0    0    0    0  0.00000000000E+00  0.00000000000E+00  0.45593999997E+02  0.45594000000E+02  0.51100000000E-03 0. -1.
         11   -1    0    0    0    0 -0.00000000000E+00 -0.00000000000E+00 -0.45593999997E+02  0.45594000000E+02  0.51100000000E-03 0.  1.
    9900012    2    1    2    0    0  0.19327510969E+02  0.33009627137E+02  0.13783643849E+02  0.50528720595E+02  0.29999576717E+02 0.  0.
        -12    1    1    2    0    0 -0.19327510969E+02 -0.33009627137E+02 -0.13783643849E+02  0.40659279405E+02  0.00000000000E+00 0.  1.
         11    1    3    3    0    0  0.37660712744E+01  0.27341062275E+02  0.92501653540E+01  0.29108118086E+02  0.51100000000E-03 0. -1.
        -11    1    3    3    0    0  0.57793404813E+00  0.45498032871E+01 -0.20409595850E+01  0.50199834665E+01  0.51100000000E-03 0.  1.
        -12    1    3    3    0    0  0.14983505646E+02  0.11187615755E+01  0.65744380796E+01  0.16400619043E+02  0.00000000000E+00 0.  1.
</event>
<event>
 7    1  0.5913457E-013  0.5052897E+02  0.7816164E-02  0.1300438E+00
        -11   -1    0    0    0    0  0.00000000000E+00  0.00000000000E+00  0.45593999997E+02  0.45594000000E+02  0.51100000000E-03 0.  1.
         11   -1    0    0    0    0 -0.00000000000E+00 -0.00000000000E+00 -0.45593999997E+02  0.45594000000E+02  0.51100000000E-03 0. -1.
    9900012    2    1    2    0    0  0.42694941667E+01  0.37379955206E+02  0.15416459891E+02  0.50528968196E+02  0.30000329328E+02 0.  0.
        -12    1    1    2    0    0 -0.42694941667E+01 -0.37379955206E+02 -0.15416459891E+02  0.40659031804E+02  0.00000000000E+00 0.  1.
         11    1    3    3    0    0 -0.16683939693E+01  0.19435552287E+00  0.45389094078E+00  0.17399223412E+01  0.51100000000E-03 0. -1.
        -11    1    3    3    0    0 -0.10929523557E+02  0.15337135218E+02  0.57900954738E+01  0.19702979666E+02  0.51100000000E-03 0.  1.
         12    1    3    3    0    0  0.16867411693E+02  0.21848464465E+02  0.91724734762E+01  0.29086066189E+02  0.00000000000E+00 0. -1.
</event>
<event>
 7    1  0.5913457E-013  0.5052886E+02  0.7816164E-02  0.1300439E+00
        -11   -1    0    0    0    0  0.00000000000E+00  0.00000000000E+00  0.45593999997E+02  0.45594000000E+02  0.51100000000E-03 0. -1.
         11   -1    0    0    0    0 -0.00000000000E+00 -0.00000000000E+00 -0.45593999997E+02  0.45594000000E+02  0.51100000000E-03 0.  1.
    9900012    2    1    2    0    0  0.21740576630E+02 -0.34035244571E+02  0.47026730665E+01  0.50528859832E+02  0.29999999945E+02 0.  0.
        -12    1    1    2    0    0 -0.21740576630E+02  0.34035244571E+02 -0.47026730665E+01  0.40659140168E+02  0.00000000000E+00 0.  1.
         11    1    3    3    0    0  0.11389715763E+02 -0.73697171729E+01 -0.34456813344E+01  0.13996823800E+02  0.51100000000E-03 0. -1.
        -11    1    3    3    0    0  0.41558836448E+01 -0.75652070358E+01 -0.72142784919E+01  0.11249424020E+02  0.51100000000E-03 0.  1.
         12    1    3    3    0    0  0.61949772228E+01 -0.19100320362E+02  0.15362632893E+02  0.25282612012E+02  0.00000000000E+00 0. -1.
</event>
<event>
 7    1  0.5913457E-013  0.5052886E+02  0.7816164E-02  0.1300439E+00
        -11   -1    0    0    0    0  0.00000000000E+00  0.00000000000E+00  0.45593999997E+02  0.45594000000E+02  0.51100000000E-03 0.  1.
         11   -1    0    0    0    0 -0.00000000000E+00 -0.00000000000E+00 -0.45593999997E+02  0.45594000000E+02  0.51100000000E-03 0. -1.
    9900012    2    1    2    0    0 -0.34108241598E+02 -0.10127681258E+02 -0.19677995403E+02  0.50528861105E+02  0.30000003815E+02 0.  0.
        -12    1    1    2    0    0  0.34108241598E+02  0.10127681258E+02  0.19677995403E+02  0.40659138895E+02  0.00000000000E+00 0.  1.
         11    1    3    3    0    0 -0.23191732707E+02 -0.17055436422E+01 -0.73122011404E+01  0.24376907738E+02  0.51100000000E-03 0. -1.
        -11    1    3    3    0    0 -0.42736056130E+01  0.47738701235E+01 -0.89182888487E+01  0.10981321284E+02  0.51100000000E-03 0.  1.
        -12    1    3    3    0    0 -0.66429032780E+01 -0.13196007740E+02 -0.34475054136E+01  0.15170632083E+02  0.00000000000E+00 0.  1.
</event>
<event>
 7    1  0.5913457E-013  0.5052885E+02  0.7816164E-02  0.1300439E+00
        -11   -1    0    0    0    0  0.00000000000E+00  0.00000000000E+00  0.45593999997E+02  0.45594000000E+02  0.51100000000E-03 0. -1.
         11   -1    0    0    0    0 -0.00000000000E+00 -0.00000000000E+00 -0.45593999997E+02  0.45594000000E+02  0.51100000000E-03 0.  1.
    9900012    2    1    2    0    0 -0.24449548655E+02 -0.24727335854E+02  0.21069996620E+02  0.50528851885E+02  0.29999975789E+02 0.  0.
        -12    1    1    2    0    0  0.24449548655E+02  0.24727335854E+02 -0.21069996620E+02  0.40659148115E+02  0.00000000000E+00 0.  1.
         11    1    3    3    0    0 -0.34233348299E+01 -0.53504628305E+01 -0.12194525836E+01  0.64679006426E+01  0.51100000000E-03 0. -1.
        -11    1    3    3    0    0 -0.17775972433E+02 -0.25147119385E+02  0.15141546876E+02  0.34316603144E+02  0.51100000000E-03 0.  1.
        -12    1    3    3    0    0 -0.32502413922E+01  0.57702463607E+01  0.71479023275E+01  0.97443480980E+01  0.00000000000E+00 0.  1.
</event>
<event>
 7    1  0.5913457E-013  0.5052876E+02  0.7816164E-02  0.1300439E+00
        -11   -1    0    0    0    0  0.00000000000E+00  0.00000000000E+00  0.45593999997E+02  0.45594000000E+02  0.51100000000E-03 0.  1.
         11   -1    0    0    0    0 -0.00000000000E+00 -0.00000000000E+00 -0.45593999997E+02  0.45594000000E+02  0.51100000000E-03 0. -1.
    9900012    2    1    2    0    0 -0.38066366120E+02  0.93401998759E+01  0.10811405733E+02  0.50528756804E+02  0.29999686781E+02 0.  0.
        -12    1    1    2    0    0  0.38066366120E+02 -0.93401998759E+01 -0.10811405733E+02  0.40659243196E+02  0.00000000000E+00 0.  1.
         11    1    3    3    0    0 -0.11845026880E+02 -0.46796399641E+01  0.52090216699E+01  0.13759999964E+02  0.51100000000E-03 0. -1.
        -11    1    3    3    0    0 -0.23101708492E+01  0.39790381914E+01 -0.66498180352E+01  0.80863906932E+01  0.51100000000E-03 0.  1.
        -12    1    3    3    0    0 -0.23911168391E+02  0.10040801649E+02  0.12252202099E+02  0.28682366147E+02  0.00000000000E+00 0.  1.
</event>
<event>
 7    1  0.9702546E-013  0.5052886E+02  0.7816164E-02  0.1300439E+00
        -11   -1    0    0    0    0  0.00000000000E+00  0.00000000000E+00  0.45593999997E+02  0.45594000000E+02  0.51100000000E-03 0. -1.
         11   -1    0    0    0    0 -0.00000000000E+00 -0.00000000000E+00 -0.45593999997E+02  0.45594000000E+02  0.51100000000E-03 0.  1.
    9900012    2    1    2    0    0  0.19885341337E+02  0.20006992519E+02  0.29282402675E+02  0.50528860115E+02  0.30000000806E+02 0.  0.
        -12    1    1    2    0    0 -0.19885341337E+02 -0.20006992519E+02 -0.29282402675E+02  0.40659139885E+02  0.00000000000E+00 0.  1.
         11    1    3    3    0    0  0.18824161670E+02  0.13470112536E+02  0.25995058575E+02  0.34807126640E+02  0.51100000000E-03 0. -1.
        -11    1    3    3    0    0  0.71791598186E+01  0.55913946686E+01  0.27584243121E+01  0.95085716587E+01  0.51100000000E-03 0.  1.
        -12    1    3    3    0    0 -0.61179801521E+01  0.94548531383E+00  0.52891978862E+00  0.62131618169E+01  0.00000000000E+00 0.  1.
</event>
<event>
 7    1  0.5913457E-013  0.5052886E+02  0.7816164E-02  0.1300439E+00
        -11   -1    0    0    0    0  0.00000000000E+00  0.00000000000E+00  0.45593999997E+02  0.45594000000E+02  0.51100000000E-03 0.  1.
         11   -1    0    0    0    0 -0.00000000000E+00 -0.00000000000E+00 -0.45593999997E+02  0.45594000000E+02  0.51100000000E-03 0. -1.
    9900012    2    1    2    0    0  0.23182129011E+02 -0.27852140862E+02 -0.18439437135E+02  0.50528859601E+02  0.29999999245E+02 0.  0.
        -12    1    1    2    0    0 -0.23182129011E+02  0.27852140862E+02  0.18439437135E+02  0.40659140399E+02  0.00000000000E+00 0.  1.
         11    1    3    3    0    0  0.23364980301E+01  0.20487126503E+01 -0.18568441414E+01  0.36199885352E+01  0.51100000000E-03 0. -1.
        -11    1    3    3    0    0  0.78916622399E+01 -0.37532028538E+01 -0.15397258264E+02  0.17704248837E+02  0.51100000000E-03 0.  1.
         12    1    3    3    0    0  0.12953968741E+02 -0.26147650659E+02 -0.11853347289E+01  0.29204622229E+02  0.00000000000E+00 0. -1.
</event>
<event>
 7    1  0.5913457E-013  0.5052886E+02  0.7816164E-02  0.1300439E+00
        -11   -1    0    0    0    0  0.00000000000E+00  0.00000000000E+00  0.45593999997E+02  0.45594000000E+02  0.51100000000E-03 0. -1.
         11   -1    0    0    0    0 -0.00000000000E+00 -0.00000000000E+00 -0.45593999997E+02  0.45594000000E+02  0.51100000000E-03 0.  1.
    9900012    2    1    2    0    0  0.32350830408E+02 -0.21502291051E+02  0.12010022154E+02  0.50528863503E+02  0.30000011105E+02 0.  0.
        -12    1    1    2    0    0 -0.32350830408E+02  0.21502291051E+02 -0.12010022154E+02  0.40659136497E+02  0.00000000000E+00 0.  1.
         11    1    3    3    0    0  0.23933232763E+02 -0.62903953470E+01  0.16837248905E+01  0.24803298851E+02  0.51100000000E-03 0. -1.
        -11    1    3    3    0    0  0.49004077951E+01  0.24782621310E+01  0.30050214044E+01  0.62598669036E+01  0.51100000000E-03 0.  1.
         12    1    3    3    0    0  0.35171898500E+01 -0.17690157835E+02  0.73212758592E+01  0.19465697749E+02  0.00000000000E+00 0. -1.
</event>
<event>
 7    1  0.5913457E-013  0.5052886E+02  0.7816164E-02  0.1300439E+00
        -11   -1    0    0    0    0  0.00000000000E+00  0.00000000000E+00  0.45593999997E+02  0.45594000000E+02  0.51100000000E-03 0. -1.
         11   -1    0    0    0    0 -0.00000000000E+00 -0.00000000000E+00 -0.45593999997E+02  0.45594000000E+02  0.51100000000E-03 0.  1.
    9900012    2    1    2    0    0 -0.16161416393E+02  0.31372756975E+02 -0.20192190657E+02  0.50528858057E+02  0.29999994549E+02 0.  0.
        -12    1    1    2    0    0  0.16161416393E+02 -0.31372756975E+02  0.20192190657E+02  0.40659141943E+02  0.00000000000E+00 0.  1.
         11    1    3    3    0    0 -0.13026276262E+02  0.95418523851E+01 -0.67937159210E+01  0.17518144778E+02  0.51100000000E-03 0. -1.
        -11    1    3    3    0    0 -0.33274949196E+01  0.25428248061E+02 -0.86798723669E+01  0.27074124297E+02  0.51100000000E-03 0.  1.
        -12    1    3    3    0    0  0.19235478920E+00 -0.35973434709E+01 -0.47186023688E+01  0.59365889808E+01  0.00000000000E+00 0.  1.
</event>
<event>
 7    1  0.5913457E-013  0.5052884E+02  0.7816164E-02  0.1300439E+00
        -11   -1    0    0    0    0  0.00000000000E+00  0.00000000000E+00  0.45593999997E+02  0.45594000000E+02  0.51100000000E-03 0.  1.
         11   -1    0    0    0    0 -0.00000000000E+00 -0.00000000000E+00 -0.45593999997E+02  0.45594000000E+02  0.51100000000E-03 0. -1.
    9900012    2    1    2    0    0  0.11584015146E+02 -0.37401596323E+02  0.10958939530E+02  0.50528841499E+02  0.29999944221E+02 0.  0.
        -12    1    1    2    0    0 -0.11584015146E+02  0.37401596323E+02 -0.10958939530E+02  0.40659158501E+02  0.00000000000E+00 0.  1.
         11    1    3    3    0    0  0.69031516386E+01 -0.14809397309E+02 -0.32470407066E+01  0.16658782213E+02  0.51100000000E-03 0. -1.
        -11    1    3    3    0    0  0.71187342322E+01  0.63894397708E+00  0.51847715004E+01  0.88298630933E+01  0.51100000000E-03 0.  1.
         12    1    3    3    0    0 -0.24378707249E+01 -0.23231142990E+02  0.90212087361E+01  0.25040196193E+02  0.00000000000E+00 0. -1.
</event>
<event>
 7    1  0.5913457E-013  0.5052888E+02  0.7816164E-02  0.1300439E+00
        -11   -1    0    0    0    0  0.00000000000E+00  0.00000000000E+00  0.45593999997E+02  0.45594000000E+02  0.51100000000E-03 0.  1.
         11   -1    0    0    0    0 -0.00000000000E+00 -0.00000000000E+00 -0.45593999997E+02  0.45594000000E+02  0.51100000000E-03 0. -1.
    9900012    2    1    2    0    0  0.33498342490E+02  0.17179327520E+02 -0.15358906466E+02  0.50528877389E+02  0.30000053312E+02 0.  0.
        -12    1    1    2    0    0 -0.33498342490E+02 -0.17179327520E+02  0.15358906466E+02  0.40659122611E+02  0.00000000000E+00 0.  1.
         11    1    3    3    0    0  0.21054673064E+02  0.23436009516E+02 -0.12901182655E+02  0.34043888057E+02  0.51100000000E-03 0. -1.
        -11    1    3    3    0    0  0.86137469140E+01  0.37272849107E+00 -0.17360499892E+01  0.87948525998E+01  0.51100000000E-03 0.  1.
        -12    1    3    3    0    0  0.38299225119E+01 -0.66294104871E+01 -0.72167382193E+00  0.76901367321E+01  0.00000000000E+00 0.  1.
</event>
<event>
 7    1  0.5913457E-013  0.5052886E+02  0.7816164E-02  0.1300439E+00
        -11   -1    0    0    0    0  0.00000000000E+00  0.00000000000E+00  0.45593999997E+02  0.45594000000E+02  0.51100000000E-03 0.  1.
         11   -1    0    0    0    0 -0.00000000000E+00 -0.00000000000E+00 -0.45593999997E+02  0.45594000000E+02  0.51100000000E-03 0. -1.
    9900012    2    1    2    0    0  0.30666889273E+02 -0.15481196912E+02 -0.21749484621E+02  0.50528860354E+02  0.30000001533E+02 0.  0.
        -12    1    1    2    0    0 -0.30666889273E+02  0.15481196912E+02  0.21749484621E+02  0.40659139646E+02  0.00000000000E+00 0.  1.
         11    1    3    3    0    0  0.12747392744E+02 -0.13082294085E+02 -0.19881161922E+01  0.18373759728E+02  0.51100000000E-03 0. -1.
        -11    1    3    3    0    0  0.20723605168E+02 -0.52010335448E+01 -0.17269126106E+02  0.27472554992E+02  0.51100000000E-03 0.  1.
         12    1    3    3    0    0 -0.28041086388E+01  0.28021307181E+01 -0.24922423225E+01  0.46825456339E+01  0.00000000000E+00 0. -1.
</event>
<event>
 7    1  0.5913457E-013  0.5052886E+02  0.7816164E-02  0.1300439E+00
        -11   -1    0    0    0    0  0.00000000000E+00  0.00000000000E+00  0.45593999997E+02  0.45594000000E+02  0.51100000000E-03 0.  1.
         11   -1    0    0    0    0 -0.00000000000E+00 -0.00000000000E+00 -0.45593999997E+02  0.45594000000E+02  0.51100000000E-03 0. -1.
    9900012    2    1    2    0    0 -0.20362062075E+02  0.20586048095E+02 -0.28544115623E+02  0.50528862222E+02  0.30000007211E+02 0.  0.
        -12    1    1    2    0    0  0.20362062075E+02 -0.20586048095E+02  0.28544115623E+02  0.40659137778E+02  0.00000000000E+00 0.  1.
         11    1    3    3    0    0 -0.53425889456E+01  0.16457265008E+02 -0.60605014216E+01  0.18333425919E+02  0.51100000000E-03 0. -1.
        -11    1    3    3    0    0  0.35146524902E+01  0.88144164388E+00 -0.67778781950E+01  0.76856590209E+01  0.51100000000E-03 0.  1.
        -12    1    3    3    0    0 -0.18534125620E+02  0.32473414436E+01 -0.15705736007E+02  0.24509777283E+02  0.00000000000E+00 0.  1.
</event>
<event>
 7    1  0.5913457E-013  0.5052886E+02  0.7816164E-02  0.1300439E+00
        -11   -1    0    0    0    0  0.00000000000E+00  0.00000000000E+00  0.45593999997E+02  0.45594000000E+02  0.51100000000E-03 0.  1.
         11   -1    0    0    0    0 -0.00000000000E+00 -0.00000000000E+00 -0.45593999997E+02  0.45594000000E+02  0.51100000000E-03 0. -1.
    9900012    2    1    2    0    0  0.15538239162E+02  0.39804819275E+01 -0.37361538226E+02  0.50528860176E+02  0.30000000992E+02 0.  0.
        -12    1    1    2    0    0 -0.15538239162E+02 -0.39804819275E+01  0.37361538226E+02  0.40659139824E+02  0.00000000000E+00 0.  1.
         11    1    3    3    0    0  0.62749348423E+01 -0.95165544623E+00 -0.48030377099E+01  0.79592478833E+01  0.51100000000E-03 0. -1.
        -11    1    3    3    0    0  0.15138524548E+02  0.12126239908E+00 -0.85450217606E+01  0.17384102715E+02  0.51100000000E-03 0.  1.
         12    1    3    3    0    0 -0.58752202288E+01  0.48108749747E+01 -0.24013478755E+02  0.25185509578E+02  0.00000000000E+00 0. -1.
</event>
<event>
 7    1  0.5913457E-013  0.5052889E+02  0.7816164E-02  0.1300439E+00
        -11   -1    0    0    0    0  0.00000000000E+00  0.00000000000E+00  0.45593999997E+02  0.45594000000E+02  0.51100000000E-03 0.  1.
         11   -1    0    0    0    0 -0.00000000000E+00 -0.00000000000E+00 -0.45593999997E+02  0.45594000000E+02  0.51100000000E-03 0. -1.
    9900012    2    1    2    0    0  0.11716060885E+02 -0.21881260596E+02  0.32204157600E+02  0.50528887680E+02  0.30000084592E+02 0.  0.
        -12    1    1    2    0    0 -0.11716060885E+02  0.21881260596E+02 -0.32204157600E+02  0.40659112320E+02  0.00000000000E+00 0.  1.
         11    1    3    3    0    0  0.64531614639E+01 -0.74612109202E+01  0.52574786064E+01  0.11178284432E+02  0.51100000000E-03 0. -1.
        -11    1    3    3    0    0  0.10149685182E+02 -0.19195851794E+02  0.22031049340E+02  0.30933217917E+02  0.51100000000E-03 0.  1.
         12    1    3    3    0    0 -0.48867857607E+01  0.47758021178E+01  0.49156296530E+01  0.84173853318E+01  0.00000000000E+00 0. -1.
</event>
<event>
 7    1  0.5913457E-013  0.5052886E+02  0.7816164E-02  0.1300439E+00
        -11   -1    0    0    0    0  0.00000000000E+00  0.00000000000E+00  0.45593999997E+02  0.45594000000E+02  0.51100000000E-03 0.  1.
         11   -1    0    0    0    0 -0.00000000000E+00 -0.00000000000E+00 -0.45593999997E+02  0.45594000000E+02  0.51100000000E-03 0. -1.
    9900012    2    1    2    0    0  0.14766451110E+02 -0.28106696582E+02 -0.25399434911E+02  0.50528858778E+02  0.29999996741E+02 0.  0.
        -12    1    1    2    0    0 -0.14766451110E+02  0.28106696582E+02  0.25399434911E+02  0.40659141222E+02  0.00000000000E+00 0.  1.
         11    1    3    3    0    0 -0.12284818253E+00 -0.11900480285E+02 -0.12622978641E+01  0.11967870272E+02  0.51100000000E-03 0. -1.
        -11    1    3    3    0    0  0.59093354297E+01 -0.11645024979E+02 -0.73012716688E+00  0.13078988413E+02  0.51100000000E-03 0.  1.
         12    1    3    3    0    0  0.89799638633E+01 -0.45611913186E+01 -0.23407009880E+02  0.25482000093E+02  0.00000000000E+00 0. -1.
</event>
<event>
 7    1  0.5913457E-013  0.5052886E+02  0.7816164E-02  0.1300439E+00
        -11   -1    0    0    0    0  0.00000000000E+00  0.00000000000E+00  0.45593999997E+02  0.45594000000E+02  0.51100000000E-03 0.  1.
         11   -1    0    0    0    0 -0.00000000000E+00 -0.00000000000E+00 -0.45593999997E+02  0.45594000000E+02  0.51100000000E-03 0. -1.
    9900012    2    1    2    0    0  0.25445357811E+02 -0.26149623801E+02  0.17941476778E+02  0.50528860215E+02  0.30000001110E+02 0.  0.
        -12    1    1    2    0    0 -0.25445357811E+02  0.26149623801E+02 -0.17941476778E+02  0.40659139785E+02  0.00000000000E+00 0.  1.
         11    1    3    3    0    0  0.11238111501E+02 -0.56605358183E+01  0.13551778091E+02  0.18492904194E+02  0.51100000000E-03 0. -1.
        -11    1    3    3    0    0  0.10993697216E+02 -0.51855492381E+00 -0.11440656148E+01  0.11065223182E+02  0.51100000000E-03 0.  1.
         12    1    3    3    0    0  0.32135490943E+01 -0.19970533059E+02  0.55337643024E+01  0.20970732838E+02  0.00000000000E+00 0. -1.
</event>
<event>
 7    1  0.5913457E-013  0.5052895E+02  0.7816164E-02  0.1300438E+00
        -11   -1    0    0    0    0  0.00000000000E+00  0.00000000000E+00  0.45593999997E+02  0.45594000000E+02  0.51100000000E-03 0.  1.
         11   -1    0    0    0    0 -0.00000000000E+00 -0.00000000000E+00 -0.45593999997E+02  0.45594000000E+02  0.51100000000E-03 0. -1.
    9900012    2    1    2    0    0 -0.38163761257E+02  0.75601387778E+01 -0.11812294902E+02  0.50528945873E+02  0.30000261476E+02 0.  0.
        -12    1    1    2    0    0  0.38163761257E+02 -0.75601387778E+01  0.11812294902E+02  0.40659054127E+02  0.00000000000E+00 0.  1.
         11    1    3    3    0    0 -0.11875744255E+02  0.46375989050E+01 -0.47682422933E+01  0.13611640608E+02  0.51100000000E-03 0. -1.
        -11    1    3    3    0    0 -0.30468360450E+02  0.33945629440E+00 -0.31215503876E+01  0.30629728960E+02  0.51100000000E-03 0.  1.
        -12    1    3    3    0    0  0.41803434482E+01  0.25830835783E+01 -0.39225022213E+01  0.62875763052E+01  0.00000000000E+00 0.  1.
</event>
<event>
 7    1  0.5913457E-013  0.5052886E+02  0.7816164E-02  0.1300439E+00
        -11   -1    0    0    0    0  0.00000000000E+00  0.00000000000E+00  0.45593999997E+02  0.45594000000E+02  0.51100000000E-03 0.  1.
         11   -1    0    0    0    0 -0.00000000000E+00 -0.00000000000E+00 -0.45593999997E+02  0.45594000000E+02  0.51100000000E-03 0. -1.
    9900012    2    1    2    0    0 -0.38563210132E+02 -0.62993978718E+01 -0.11241087573E+02  0.50528860326E+02  0.30000001447E+02 0.  0.
        -12    1    1    2    0    0  0.38563210132E+02  0.62993978718E+01  0.11241087573E+02  0.40659139674E+02  0.00000000000E+00 0.  1.
         11    1    3    3    0    0 -0.20613937115E+02 -0.12999942666E+02 -0.15743950113E+02  0.29013873891E+02  0.51100000000E-03 0. -1.
        -11    1    3    3    0    0 -0.42952161524E+01  0.58695294244E+01  0.24938556166E+01  0.76889253838E+01  0.51100000000E-03 0.  1.
        -12    1    3    3    0    0 -0.13654056864E+02  0.83101536985E+00  0.20090069233E+01  0.13826061052E+02  0.00000000000E+00 0.  1.
</event>
<event>
 7    1  0.5913457E-013  0.5052885E+02  0.7816164E-02  0.1300439E+00
        -11   -1    0    0    0    0  0.00000000000E+00  0.00000000000E+00  0.45593999997E+02  0.45594000000E+02  0.51100000000E-03 0. -1.
         11   -1    0    0    0    0 -0.00000000000E+00 -0.00000000000E+00 -0.45593999997E+02  0.45594000000E+02  0.51100000000E-03 0.  1.
    9900012    2    1    2    0    0 -0.24986119094E+02 -0.22322025078E+02  0.23034490035E+02  0.50528847499E+02  0.29999962458E+02 0.  0.
        -12    1    1    2    0    0  0.24986119094E+02  0.22322025078E+02 -0.23034490035E+02  0.40659152501E+02  0.00000000000E+00 0.  1.
         11    1    3    3    0    0 -0.88273007157E+01 -0.21578815119E+01  0.12673423221E+02  0.15594657641E+02  0.51100000000E-03 0. -1.
        -11    1    3    3    0    0  0.21177431331E+01 -0.61970251062E+01 -0.41349816234E+01  0.77450648436E+01  0.51100000000E-03 0.  1.
         12    1    3    3    0    0 -0.18276561511E+02 -0.13967118460E+02  0.14496048437E+02  0.27189125014E+02  0.00000000000E+00 0. -1.
</event>
<event>
 7    1  0.5913457E-013  0.5052887E+02  0.7816164E-02  0.1300439E+00
        -11   -1    0    0    0    0  0.00000000000E+00  0.00000000000E+00  0.45593999997E+02  0.45594000000E+02  0.51100000000E-03 0.  1.
         11   -1    0    0    0    0 -0.00000000000E+00 -0.00000000000E+00 -0.45593999997E+02  0.45594000000E+02  0.51100000000E-03 0. -1.
    9900012    2    1    2    0    0 -0.20968914847E+02  0.72013357008E+01 -0.34082408126E+02  0.50528866101E+02  0.30000019002E+02 0.  0.
        -12    1    1    2    0    0  0.20968914847E+02 -0.72013357008E+01  0.34082408126E+02  0.40659133899E+02  0.00000000000E+00 0.  1.
         11    1    3    3    0    0 -0.14586877212E+02  0.35476180684E+01 -0.18446815358E+02  0.23783346650E+02  0.51100000000E-03 0. -1.
        -11    1    3    3    0    0  0.24023082680E+01  0.86039229193E+01 -0.13886805681E+02  0.16511872907E+02  0.51100000000E-03 0.  1.
        -12    1    3    3    0    0 -0.87843459028E+01 -0.49502052869E+01 -0.17487870868E+01  0.10233646544E+02  0.00000000000E+00 0.  1.
</event>
<event>
 7    1  0.5913457E-013  0.5052886E+02  0.7816164E-02  0.1300439E+00
        -11   -1    0    0    0    0  0.00000000000E+00  0.00000000000E+00  0.45593999997E+02  0.45594000000E+02  0.51100000000E-03 0.  1.
         11   -1    0    0    0    0 -0.00000000000E+00 -0.00000000000E+00 -0.45593999997E+02  0.45594000000E+02  0.51100000000E-03 0. -1.
    9900012    2    1    2    0    0  0.32008156797E+02 -0.21374630554E+02 -0.13106068834E+02  0.50528856218E+02  0.29999988959E+02 0.  0.
        -12    1    1    2    0    0 -0.32008156797E+02  0.21374630554E+02  0.13106068834E+02  0.40659143782E+02  0.00000000000E+00 0.  1.
         11    1    3    3    0    0  0.88943330399E+01  0.45514844745E+01 -0.11895233388E+01  0.10061815799E+02  0.51100000000E-03 0.  1.
        -11    1    3    3    0    0  0.57284001113E+01 -0.81890402501E+01 -0.12017870422E+02  0.15630232174E+02  0.51100000000E-03 0. -1.
         12    1    3    3    0    0  0.17385423645E+02 -0.17737074779E+02  0.10132492725E+00  0.24836808244E+02  0.00000000000E+00 0. -1.
</event>
<event>
 7    1  0.5913457E-013  0.5052887E+02  0.7816164E-02  0.1300439E+00
        -11   -1    0    0    0    0  0.00000000000E+00  0.00000000000E+00  0.45593999997E+02  0.45594000000E+02  0.51100000000E-03 0. -1.
         11   -1    0    0    0    0 -0.00000000000E+00 -0.00000000000E+00 -0.45593999997E+02  0.45594000000E+02  0.51100000000E-03 0.  1.
    9900012    2    1    2    0    0 -0.31083525258E+02  0.24134586831E+02  0.10222555578E+02  0.50528874745E+02  0.30000045276E+02 0.  0.
        -12    1    1    2    0    0  0.31083525258E+02 -0.24134586831E+02 -0.10222555578E+02  0.40659125255E+02  0.00000000000E+00 0.  1.
         11    1    3    3    0    0  0.13066506954E+00 -0.68595313208E+00  0.28460136093E+00  0.75405785957E+00  0.51100000000E-03 0.  1.
        -11    1    3    3    0    0 -0.11020614715E+02  0.22565062969E+02  0.14432744755E+02  0.28964463346E+02  0.51100000000E-03 0. -1.
         12    1    3    3    0    0 -0.20193575612E+02  0.22554769934E+01 -0.44947905380E+01  0.20810353540E+02  0.00000000000E+00 0. -1.
</event>
<event>
 7    1  0.5913457E-013  0.5052886E+02  0.7816164E-02  0.1300439E+00
        -11   -1    0    0    0    0  0.00000000000E+00  0.00000000000E+00  0.45593999997E+02  0.45594000000E+02  0.51100000000E-03 0.  1.
         11   -1    0    0    0    0 -0.00000000000E+00 -0.00000000000E+00 -0.45593999997E+02  0.45594000000E+02  0.51100000000E-03 0. -1.
    9900012    2    1    2    0    0 -0.38572565487E+01  0.28361137598E+02 -0.28877893201E+02  0.50528864868E+02  0.30000015254E+02 0.  0.
        -12    1    1    2    0    0  0.38572565487E+01 -0.28361137598E+02  0.28877893201E+02  0.40659135132E+02  0.00000000000E+00 0.  1.
         11    1    3    3    0    0 -0.25193128390E+01  0.13946233762E+02 -0.13850595235E+02  0.19816239854E+02  0.51100000000E-03 0. -1.
        -11    1    3    3    0    0 -0.10080241501E+02  0.14182650631E+02 -0.13040828218E+02  0.21744471677E+02  0.51100000000E-03 0.  1.
        -12    1    3    3    0    0  0.87422977914E+01  0.23225320491E+00 -0.19864697479E+01  0.89681533374E+01  0.00000000000E+00 0.  1.
</event>
<event>
 7    1  0.5913457E-013  0.5052886E+02  0.7816164E-02  0.1300439E+00
        -11   -1    0    0    0    0  0.00000000000E+00  0.00000000000E+00  0.45593999997E+02  0.45594000000E+02  0.51100000000E-03 0.  1.
         11   -1    0    0    0    0 -0.00000000000E+00 -0.00000000000E+00 -0.45593999997E+02  0.45594000000E+02  0.51100000000E-03 0. -1.
    9900012    2    1    2    0    0  0.28708506402E+02 -0.74694131075E+01 -0.27806391614E+02  0.50528857281E+02  0.29999992192E+02 0.  0.
        -12    1    1    2    0    0 -0.28708506402E+02  0.74694131075E+01  0.27806391614E+02  0.40659142719E+02  0.00000000000E+00 0.  1.
         11    1    3    3    0    0  0.79432863175E+01  0.74144190404E+01 -0.17733354454E+02  0.20797626492E+02  0.51100000000E-03 0. -1.
        -11    1    3    3    0    0  0.17401588559E+02 -0.69458134508E+01 -0.97079907025E+01  0.21102243781E+02  0.51100000000E-03 0.  1.
        -12    1    3    3    0    0  0.33636315263E+01 -0.79380186970E+01 -0.36504645789E+00  0.86289870086E+01  0.00000000000E+00 0.  1.
</event>
<event>
 7    1  0.5913457E-013  0.5052886E+02  0.7816164E-02  0.1300439E+00
        -11   -1    0    0    0    0  0.00000000000E+00  0.00000000000E+00  0.45593999997E+02  0.45594000000E+02  0.51100000000E-03 0.  1.
         11   -1    0    0    0    0 -0.00000000000E+00 -0.00000000000E+00 -0.45593999997E+02  0.45594000000E+02  0.51100000000E-03 0. -1.
    9900012    2    1    2    0    0 -0.36159541460E+02 -0.16252435268E+02 -0.90283626684E+01  0.50528862980E+02  0.30000009514E+02 0.  0.
        -12    1    1    2    0    0  0.36159541460E+02  0.16252435268E+02  0.90283626684E+01  0.40659137020E+02  0.00000000000E+00 0.  1.
         11    1    3    3    0    0 -0.16062616731E+02 -0.13395683829E+02  0.39539349638E+01  0.21285807559E+02  0.51100000000E-03 0. -1.
        -11    1    3    3    0    0 -0.44670013907E+01 -0.81670761431E+01 -0.71418701885E+01  0.11732925646E+02  0.51100000000E-03 0.  1.
         12    1    3    3    0    0 -0.15629923339E+02  0.53103247036E+01 -0.58404274437E+01  0.17510129776E+02  0.00000000000E+00 0. -1.
</event>
<event>
 7    1  0.5913457E-013  0.5052887E+02  0.7816164E-02  0.1300439E+00
        -11   -1    0    0    0    0  0.00000000000E+00  0.00000000000E+00  0.45593999997E+02  0.45594000000E+02  0.51100000000E-03 0. -1.
         11   -1    0    0    0    0 -0.00000000000E+00 -0.00000000000E+00 -0.45593999997E+02  0.45594000000E+02  0.51100000000E-03 0.  1.
    9900012    2    1    2    0    0 -0.12159630949E+02  0.35696236510E+02  0.15201548116E+02  0.50528868297E+02  0.30000025674E+02 0.  0.
        -12    1    1    2    0    0  0.12159630949E+02 -0.35696236510E+02 -0.15201548116E+02  0.40659131703E+02  0.00000000000E+00 0.  1.
         11    1    3    3    0    0 -0.89747138724E+01  0.19905929599E+02  0.11338052776E+02  0.24603718485E+02  0.51100000000E-03 0. -1.
        -11    1    3    3    0    0 -0.47491242249E+01  0.18528085479E+02  0.79925741763E+01  0.20729818491E+02  0.51100000000E-03 0.  1.
        -12    1    3    3    0    0  0.15642071488E+01 -0.27377785681E+01 -0.41290788368E+01  0.51953313208E+01  0.00000000000E+00 0.  1.
</event>
<event>
 7    1  0.5913457E-013  0.5052886E+02  0.7816164E-02  0.1300439E+00
        -11   -1    0    0    0    0  0.00000000000E+00  0.00000000000E+00  0.45593999997E+02  0.45594000000E+02  0.51100000000E-03 0.  1.
         11   -1    0    0    0    0 -0.00000000000E+00 -0.00000000000E+00 -0.45593999997E+02  0.45594000000E+02  0.51100000000E-03 0. -1.
    9900012    2    1    2    0    0 -0.21930483349E+02  0.33318606372E+02  0.78797346078E+01  0.50528857756E+02  0.29999993635E+02 0.  0.
        -12    1    1    2    0    0  0.21930483349E+02 -0.33318606372E+02 -0.78797346078E+01  0.40659142244E+02  0.00000000000E+00 0.  1.
         11    1    3    3    0    0 -0.64232239370E+00 -0.58919479834E-01 -0.14011255788E+01  0.15424664376E+01  0.51100000000E-03 0. -1.
        -11    1    3    3    0    0  0.85337317106E+00 -0.42428347389E+01  0.18470013842E+01  0.47054550008E+01  0.51100000000E-03 0.  1.
         12    1    3    3    0    0 -0.22141534127E+02  0.37620360591E+02  0.74338588024E+01  0.44280936318E+02  0.00000000000E+00 0. -1.
</event>
<event>
 7    1  0.5913457E-013  0.5052881E+02  0.7816164E-02  0.1300439E+00
        -11   -1    0    0    0    0  0.00000000000E+00  0.00000000000E+00  0.45593999997E+02  0.45594000000E+02  0.51100000000E-03 0.  1.
         11   -1    0    0    0    0 -0.00000000000E+00 -0.00000000000E+00 -0.45593999997E+02  0.45594000000E+02  0.51100000000E-03 0. -1.
    9900012    2    1    2    0    0  0.95102588291E+01  0.21168249881E+02 -0.33386077367E+02  0.50528806846E+02  0.29999838888E+02 0.  0.
        -12    1    1    2    0    0 -0.95102588291E+01 -0.21168249881E+02  0.33386077367E+02  0.40659193154E+02  0.00000000000E+00 0.  1.
         11    1    3    3    0    0  0.44239150832E+01  0.13233020535E+02 -0.10143107902E+02  0.17250115806E+02  0.51100000000E-03 0. -1.
        -11    1    3    3    0    0  0.12415498550E+02  0.77013650192E+01 -0.87333310172E+01  0.17021360061E+02  0.51100000000E-03 0.  1.
        -12    1    3    3    0    0 -0.73291548046E+01  0.23386432638E+00 -0.14509638447E+02  0.16257330979E+02  0.00000000000E+00 0.  1.
</event>
<event>
 7    1  0.5913457E-013  0.5052886E+02  0.7816164E-02  0.1300439E+00
        -11   -1    0    0    0    0  0.00000000000E+00  0.00000000000E+00  0.45593999997E+02  0.45594000000E+02  0.51100000000E-03 0. -1.
         11   -1    0    0    0    0 -0.00000000000E+00 -0.00000000000E+00 -0.45593999997E+02  0.45594000000E+02  0.51100000000E-03 0.  1.
    9900012    2    1    2    0    0 -0.20525749516E+02  0.26845064654E+02  0.22609767230E+02  0.50528862482E+02  0.30000008001E+02 0.  0.
        -12    1    1    2    0    0  0.20525749516E+02 -0.26845064654E+02 -0.22609767230E+02  0.40659137518E+02  0.00000000000E+00 0.  1.
         11    1    3    3    0    0 -0.40575791844E+01  0.10806756769E+02  0.20130925470E+02  0.23205691139E+02  0.51100000000E-03 0. -1.
        -11    1    3    3    0    0 -0.82716177306E+01 -0.63885274249E+00  0.27454057739E+01  0.87387096206E+01  0.51100000000E-03 0.  1.
        -12    1    3    3    0    0 -0.81965526014E+01  0.16677160627E+02 -0.26656401443E+00  0.18584461722E+02  0.00000000000E+00 0.  1.
</event>
<event>
 7    1  0.5913457E-013  0.5052886E+02  0.7816164E-02  0.1300439E+00
        -11   -1    0    0    0    0  0.00000000000E+00  0.00000000000E+00  0.45593999997E+02  0.45594000000E+02  0.51100000000E-03 0. -1.
         11   -1    0    0    0    0 -0.00000000000E+00 -0.00000000000E+00 -0.45593999997E+02  0.45594000000E+02  0.51100000000E-03 0.  1.
    9900012    2    1    2    0    0  0.37680493935E+02 -0.12442206970E+02  0.88621322067E+01  0.50528861731E+02  0.30000005719E+02 0.  0.
        -12    1    1    2    0    0 -0.37680493935E+02  0.12442206970E+02 -0.88621322067E+01  0.40659138269E+02  0.00000000000E+00 0.  1.
         11    1    3    3    0    0 -0.19960901240E+01 -0.58600878187E+01 -0.39677097498E+01  0.73530759513E+01  0.51100000000E-03 0. -1.
        -11    1    3    3    0    0  0.11662768315E+02 -0.59232383478E+01  0.56516509622E+01  0.14249423713E+02  0.51100000000E-03 0.  1.
        -12    1    3    3    0    0  0.28013815745E+02 -0.65888080329E+00  0.71781909942E+01  0.28926362067E+02  0.00000000000E+00 0.  1.
</event>
<event>
 7    1  0.5913457E-013  0.5052882E+02  0.7816164E-02  0.1300439E+00
        -11   -1    0    0    0    0  0.00000000000E+00  0.00000000000E+00  0.45593999997E+02  0.45594000000E+02  0.51100000000E-03 0. -1.
         11   -1    0    0    0    0 -0.00000000000E+00 -0.00000000000E+00 -0.45593999997E+02  0.45594000000E+02  0.51100000000E-03 0.  1.
    9900012    2    1    2    0    0 -0.36878691954E+02 -0.43247598054E+01  0.16565860087E+02  0.50528816683E+02  0.29999868789E+02 0.  0.
        -12    1    1    2    0    0  0.36878691954E+02  0.43247598054E+01 -0.16565860087E+02  0.40659183317E+02  0.00000000000E+00 0.  1.
         11    1    3    3    0    0 -0.20507085747E+02  0.75672811482E+00  0.19711270017E+02  0.28454303176E+02  0.51100000000E-03 0. -1.
        -11    1    3    3    0    0 -0.97229306245E+00  0.20467896282E+01  0.32314419712E+01  0.39467605774E+01  0.51100000000E-03 0.  1.
         12    1    3    3    0    0 -0.15399313144E+02 -0.71282775484E+01 -0.63768519012E+01  0.18127752930E+02  0.00000000000E+00 0. -1.
</event>
<event>
 7    1  0.5913457E-013  0.5052886E+02  0.7816164E-02  0.1300439E+00
        -11   -1    0    0    0    0  0.00000000000E+00  0.00000000000E+00  0.45593999997E+02  0.45594000000E+02  0.51100000000E-03 0.  1.
         11   -1    0    0    0    0 -0.00000000000E+00 -0.00000000000E+00 -0.45593999997E+02  0.45594000000E+02  0.51100000000E-03 0. -1.
    9900012    2    1    2    0    0 -0.46211866418E+01  0.23719263185E+02 -0.32698727751E+02  0.50528860701E+02  0.30000002587E+02 0.  0.
        -12    1    1    2    0    0  0.46211866418E+01 -0.23719263185E+02  0.32698727751E+02  0.40659139299E+02  0.00000000000E+00 0.  1.
         11    1    3    3    0    0 -0.52727892661E-01  0.17706960313E+02 -0.29680261020E+02  0.34560918944E+02  0.51100000000E-03 0. -1.
        -11    1    3    3    0    0 -0.80053226932E+01  0.81822087039E+01 -0.32420484023E+01  0.11897252153E+02  0.51100000000E-03 0.  1.
         12    1    3    3    0    0  0.34368639441E+01 -0.21699058315E+01  0.22358167200E+00  0.40706896040E+01  0.00000000000E+00 0. -1.
</event>
<event>
 7    1  0.5913457E-013  0.5052887E+02  0.7816164E-02  0.1300439E+00
        -11   -1    0    0    0    0  0.00000000000E+00  0.00000000000E+00  0.45593999997E+02  0.45594000000E+02  0.51100000000E-03 0.  1.
         11   -1    0    0    0    0 -0.00000000000E+00 -0.00000000000E+00 -0.45593999997E+02  0.45594000000E+02  0.51100000000E-03 0. -1.
    9900012    2    1    2    0    0 -0.28393262707E+02 -0.25480192926E+02 -0.14062250116E+02  0.50528874615E+02  0.30000044880E+02 0.  0.
        -12    1    1    2    0    0  0.28393262707E+02  0.25480192926E+02  0.14062250116E+02  0.40659125385E+02  0.00000000000E+00 0.  1.
         11    1    3    3    0    0  0.78778085557E+00  0.85960000062E+00  0.69637152567E+00  0.13581032363E+01  0.51100000000E-03 0.  1.
        -11    1    3    3    0    0  0.82868818030E+00  0.27063841848E+01 -0.58037421016E+01  0.64571403964E+01  0.51100000000E-03 0. -1.
         12    1    3    3    0    0 -0.30009731743E+02 -0.29046177112E+02 -0.89548795404E+01  0.42713630982E+02  0.00000000000E+00 0. -1.
</event>
<event>
 7    1  0.5913457E-013  0.5052871E+02  0.7816164E-02  0.1300439E+00
        -11   -1    0    0    0    0  0.00000000000E+00  0.00000000000E+00  0.45593999997E+02  0.45594000000E+02  0.51100000000E-03 0.  1.
         11   -1    0    0    0    0 -0.00000000000E+00 -0.00000000000E+00 -0.45593999997E+02  0.45594000000E+02  0.51100000000E-03 0. -1.
    9900012    2    1    2    0    0 -0.13431791049E+02  0.55368061874E+01 -0.37975100842E+02  0.50528714252E+02  0.29999557438E+02 0.  0.
        -12    1    1    2    0    0  0.13431791049E+02 -0.55368061874E+01  0.37975100842E+02  0.40659285748E+02  0.00000000000E+00 0.  1.
         11    1    3    3    0    0 -0.26690011023E+01 -0.42247951403E+01 -0.24893562889E+02  0.25390193667E+02  0.51100000000E-03 0. -1.
        -11    1    3    3    0    0  0.38036701085E+01  0.24790071892E+01 -0.51712119154E+00  0.45695511297E+01  0.51100000000E-03 0.  1.
         12    1    3    3    0    0 -0.14566460055E+02  0.72825941385E+01 -0.12564416761E+02  0.20568969456E+02  0.00000000000E+00 0. -1.
</event>
<event>
 7    1  0.5913457E-013  0.5052886E+02  0.7816164E-02  0.1300439E+00
        -11   -1    0    0    0    0  0.00000000000E+00  0.00000000000E+00  0.45593999997E+02  0.45594000000E+02  0.51100000000E-03 0.  1.
         11   -1    0    0    0    0 -0.00000000000E+00 -0.00000000000E+00 -0.45593999997E+02  0.45594000000E+02  0.51100000000E-03 0. -1.
    9900012    2    1    2    0    0 -0.40048474495E+02  0.67924395780E+01  0.17742512848E+01  0.50528861883E+02  0.30000006179E+02 0.  0.
        -12    1    1    2    0    0  0.40048474495E+02 -0.67924395780E+01 -0.17742512848E+01  0.40659138117E+02  0.00000000000E+00 0.  1.
         11    1    3    3    0    0 -0.50865843825E+01 -0.32283771343E+01  0.10373794594E+01  0.61132573973E+01  0.51100000000E-03 0. -1.
        -11    1    3    3    0    0 -0.99062725801E+01 -0.82294623423E+01  0.33523721647E+01  0.13307767892E+02  0.51100000000E-03 0.  1.
        -12    1    3    3    0    0 -0.25055617533E+02  0.18250279055E+02 -0.26155003393E+01  0.31107836594E+02  0.00000000000E+00 0.  1.
</event>
<event>
 7    1  0.5913457E-013  0.5052885E+02  0.7816164E-02  0.1300439E+00
        -11   -1    0    0    0    0  0.00000000000E+00  0.00000000000E+00  0.45593999997E+02  0.45594000000E+02  0.51100000000E-03 0.  1.
         11   -1    0    0    0    0 -0.00000000000E+00 -0.00000000000E+00 -0.45593999997E+02  0.45594000000E+02  0.51100000000E-03 0. -1.
    9900012    2    1    2    0    0 -0.10157838826E+02 -0.88556500166E+01 -0.38360944044E+02  0.50528852754E+02  0.29999978432E+02 0.  0.
        -12    1    1    2    0    0  0.10157838826E+02  0.88556500166E+01  0.38360944044E+02  0.40659147246E+02  0.00000000000E+00 0.  1.
         11    1    3    3    0    0 -0.87235156279E+00 -0.14854968298E+01  0.22394958849E+01  0.28254274296E+01  0.51100000000E-03 0. -1.
        -11    1    3    3    0    0 -0.79004747540E+00  0.48389606701E+01 -0.49416803522E+00  0.49278715171E+01  0.51100000000E-03 0.  1.
         12    1    3    3    0    0 -0.84954397883E+01 -0.12209113857E+02 -0.40106271893E+02  0.42775553808E+02  0.00000000000E+00 0. -1.
</event>
<event>
 7    1  0.5913457E-013  0.5052885E+02  0.7816164E-02  0.1300439E+00
        -11   -1    0    0    0    0  0.00000000000E+00  0.00000000000E+00  0.45593999997E+02  0.45594000000E+02  0.51100000000E-03 0.  1.
         11   -1    0    0    0    0 -0.00000000000E+00 -0.00000000000E+00 -0.45593999997E+02  0.45594000000E+02  0.51100000000E-03 0. -1.
    9900012    2    1    2    0    0 -0.11122597000E+02 -0.31148820864E+02 -0.23647517742E+02  0.50528852190E+02  0.29999976717E+02 0.  0.
        -12    1    1    2    0    0  0.11122597000E+02  0.31148820864E+02  0.23647517742E+02  0.40659147810E+02  0.00000000000E+00 0.  1.
         11    1    3    3    0    0 -0.75210920232E+01 -0.13094381802E+02 -0.17444610082E+02  0.23072582889E+02  0.51100000000E-03 0. -1.
        -11    1    3    3    0    0 -0.84780854161E+01 -0.26345713173E+01 -0.69373057302E+01  0.11266992030E+02  0.51100000000E-03 0.  1.
        -12    1    3    3    0    0  0.48765804392E+01 -0.15419867745E+02  0.73439806979E+00  0.16189277271E+02  0.00000000000E+00 0.  1.
</event>
<event>
 7    1  0.5913457E-013  0.5052886E+02  0.7816164E-02  0.1300439E+00
        -11   -1    0    0    0    0  0.00000000000E+00  0.00000000000E+00  0.45593999997E+02  0.45594000000E+02  0.51100000000E-03 0. -1.
         11   -1    0    0    0    0 -0.00000000000E+00 -0.00000000000E+00 -0.45593999997E+02  0.45594000000E+02  0.51100000000E-03 0.  1.
    9900012    2    1    2    0    0  0.18358576913E+02  0.34162620737E+02  0.12208335997E+02  0.50528862408E+02  0.30000007776E+02 0.  0.
        -12    1    1    2    0    0 -0.18358576913E+02 -0.34162620737E+02 -0.12208335997E+02  0.40659137592E+02  0.00000000000E+00 0.  1.
         11    1    3    3    0    0 -0.36584973598E+01  0.21167271801E+01  0.52328478105E+01  0.67266509762E+01  0.51100000000E-03 0. -1.
        -11    1    3    3    0    0  0.11325323875E+02  0.43222727510E+01 -0.29474390884E+01  0.12475271542E+02  0.51100000000E-03 0.  1.
        -12    1    3    3    0    0  0.10691750398E+02  0.27723620806E+02  0.99229272744E+01  0.31326939890E+02  0.00000000000E+00 0.  1.
</event>
<event>
 7    1  0.5913457E-013  0.5052886E+02  0.7816164E-02  0.1300439E+00
        -11   -1    0    0    0    0  0.00000000000E+00  0.00000000000E+00  0.45593999997E+02  0.45594000000E+02  0.51100000000E-03 0.  1.
         11   -1    0    0    0    0 -0.00000000000E+00 -0.00000000000E+00 -0.45593999997E+02  0.45594000000E+02  0.51100000000E-03 0. -1.
    9900012    2    1    2    0    0 -0.39305757351E+01  0.40468172133E+02 -0.20755188324E+00  0.50528862537E+02  0.30000008168E+02 0.  0.
        -12    1    1    2    0    0  0.39305757351E+01 -0.40468172133E+02  0.20755188324E+00  0.40659137463E+02  0.00000000000E+00 0.  1.
         11    1    3    3    0    0 -0.43172022890E+01  0.16853746254E+02 -0.80447296912E+01  0.19167803068E+02  0.51100000000E-03 0. -1.
        -11    1    3    3    0    0 -0.44035775030E+01  0.22612132229E+02  0.11384236757E+01  0.23065039074E+02  0.51100000000E-03 0.  1.
        -12    1    3    3    0    0  0.47902040570E+01  0.10022936505E+01  0.66987541323E+01  0.82960203950E+01  0.00000000000E+00 0.  1.
</event>
<event>
 7    1  0.5913457E-013  0.5052886E+02  0.7816164E-02  0.1300439E+00
        -11   -1    0    0    0    0  0.00000000000E+00  0.00000000000E+00  0.45593999997E+02  0.45594000000E+02  0.51100000000E-03 0. -1.
         11   -1    0    0    0    0 -0.00000000000E+00 -0.00000000000E+00 -0.45593999997E+02  0.45594000000E+02  0.51100000000E-03 0.  1.
    9900012    2    1    2    0    0  0.17187249442E+01  0.38640157138E+02  0.12535951133E+02  0.50528857979E+02  0.29999994313E+02 0.  0.
        -12    1    1    2    0    0 -0.17187249442E+01 -0.38640157138E+02 -0.12535951133E+02  0.40659142021E+02  0.00000000000E+00 0.  1.
         11    1    3    3    0    0 -0.58499986551E+01  0.23532237655E+02  0.62483578088E+01  0.25040580442E+02  0.51100000000E-03 0. -1.
        -11    1    3    3    0    0  0.12312490902E+00  0.15598530336E+02  0.84218682862E+01  0.17727300248E+02  0.51100000000E-03 0.  1.
        -12    1    3    3    0    0  0.74455986902E+01 -0.49061085272E+00 -0.21342749623E+01  0.77609772890E+01  0.00000000000E+00 0.  1.
</event>
<event>
 7    1  0.5913457E-013  0.5052884E+02  0.7816164E-02  0.1300439E+00
        -11   -1    0    0    0    0  0.00000000000E+00  0.00000000000E+00  0.45593999997E+02  0.45594000000E+02  0.51100000000E-03 0. -1.
         11   -1    0    0    0    0 -0.00000000000E+00 -0.00000000000E+00 -0.45593999997E+02  0.45594000000E+02  0.51100000000E-03 0.  1.
    9900012    2    1    2    0    0  0.32243112766E+02  0.14625310795E+02  0.19991222282E+02  0.50528843528E+02  0.29999950386E+02 0.  0.
        -12    1    1    2    0    0 -0.32243112766E+02 -0.14625310795E+02 -0.19991222282E+02  0.40659156472E+02  0.00000000000E+00 0.  1.
         11    1    3    3    0    0  0.76654519470E+01  0.32672932132E+01 -0.60913436555E+01  0.10321764688E+02  0.51100000000E-03 0. -1.
        -11    1    3    3    0    0  0.13557024564E+02 -0.10275438373E+01  0.84666469366E+01  0.16016643593E+02  0.51100000000E-03 0.  1.
         12    1    3    3    0    0  0.11020636255E+02  0.12385561419E+02  0.17615919001E+02  0.24190435246E+02  0.00000000000E+00 0. -1.
</event>
<event>
 7    1  0.5913457E-013  0.5052888E+02  0.7816164E-02  0.1300439E+00
        -11   -1    0    0    0    0  0.00000000000E+00  0.00000000000E+00  0.45593999997E+02  0.45594000000E+02  0.51100000000E-03 0. -1.
         11   -1    0    0    0    0 -0.00000000000E+00 -0.00000000000E+00 -0.45593999997E+02  0.45594000000E+02  0.51100000000E-03 0.  1.
    9900012    2    1    2    0    0  0.13701691499E+02 -0.37941323109E+02  0.50876016123E+01  0.50528879998E+02  0.30000061240E+02 0.  0.
        -12    1    1    2    0    0 -0.13701691499E+02  0.37941323109E+02 -0.50876016123E+01  0.40659120002E+02  0.00000000000E+00 0.  1.
         11    1    3    3    0    0 -0.60072974371E+01 -0.10222264138E+02 -0.27430203322E+01  0.12169900057E+02  0.51100000000E-03 0. -1.
        -11    1    3    3    0    0  0.80177721256E+01 -0.23916935714E+02  0.60079117211E+01  0.25930666928E+02  0.51100000000E-03 0.  1.
        -12    1    3    3    0    0  0.11691216811E+02 -0.38021232575E+01  0.18227102234E+01  0.12428313013E+02  0.00000000000E+00 0.  1.
</event>
<event>
 7    1  0.5913457E-013  0.5052888E+02  0.7816164E-02  0.1300439E+00
        -11   -1    0    0    0    0  0.00000000000E+00  0.00000000000E+00  0.45593999997E+02  0.45594000000E+02  0.51100000000E-03 0. -1.
         11   -1    0    0    0    0 -0.00000000000E+00 -0.00000000000E+00 -0.45593999997E+02  0.45594000000E+02  0.51100000000E-03 0.  1.
    9900012    2    1    2    0    0 -0.31996292702E+02 -0.97165255869E+01  0.23129852083E+02  0.50528884496E+02  0.30000074914E+02 0.  0.
        -12    1    1    2    0    0  0.31996292702E+02  0.97165255869E+01 -0.23129852083E+02  0.40659115504E+02  0.00000000000E+00 0.  1.
         11    1    3    3    0    0 -0.25607376982E+00 -0.27387623697E+00  0.89516959646E+00  0.97052090978E+00  0.51100000000E-03 0. -1.
        -11    1    3    3    0    0 -0.16648861777E+02 -0.19547103620E+01  0.27239024300E+02  0.31983901203E+02  0.51100000000E-03 0.  1.
         12    1    3    3    0    0 -0.15091357155E+02 -0.74879389880E+01 -0.50043418137E+01  0.17574462383E+02  0.00000000000E+00 0. -1.
</event>
<event>
 7    1  0.5913457E-013  0.5052885E+02  0.7816164E-02  0.1300439E+00
        -11   -1    0    0    0    0  0.00000000000E+00  0.00000000000E+00  0.45593999997E+02  0.45594000000E+02  0.51100000000E-03 0. -1.
         11   -1    0    0    0    0 -0.00000000000E+00 -0.00000000000E+00 -0.45593999997E+02  0.45594000000E+02  0.51100000000E-03 0.  1.
    9900012    2    1    2    0    0 -0.35883119740E+02 -0.19115254310E+02 -0.41828835473E+00  0.50528853492E+02  0.29999980673E+02 0.  0.
        -12    1    1    2    0    0  0.35883119740E+02  0.19115254310E+02  0.41828835473E+00  0.40659146508E+02  0.00000000000E+00 0.  1.
         11    1    3    3    0    0 -0.49235112658E+01 -0.37129851140E+01 -0.23511973679E+01  0.65996477910E+01  0.51100000000E-03 0. -1.
        -11    1    3    3    0    0 -0.28971111249E+02 -0.13055722481E+02 -0.86296571115E+01  0.32927923692E+02  0.51100000000E-03 0.  1.
        -12    1    3    3    0    0 -0.19884972250E+01 -0.23465467150E+01  0.10562566125E+02  0.11001282009E+02  0.00000000000E+00 0.  1.
</event>
<event>
 7    1  0.5913457E-013  0.5052887E+02  0.7816164E-02  0.1300439E+00
        -11   -1    0    0    0    0  0.00000000000E+00  0.00000000000E+00  0.45593999997E+02  0.45594000000E+02  0.51100000000E-03 0. -1.
         11   -1    0    0    0    0 -0.00000000000E+00 -0.00000000000E+00 -0.45593999997E+02  0.45594000000E+02  0.51100000000E-03 0.  1.
    9900012    2    1    2    0    0  0.58135620364E+01  0.21930793686E+02  0.33740295701E+02  0.50528871022E+02  0.30000033959E+02 0.  0.
        -12    1    1    2    0    0 -0.58135620364E+01 -0.21930793686E+02 -0.33740295701E+02  0.40659128978E+02  0.00000000000E+00 0.  1.
         11    1    3    3    0    0 -0.11994432946E+01 -0.33908689387E+01  0.57594113944E+01  0.67902486146E+01  0.51100000000E-03 0. -1.
        -11    1    3    3    0    0  0.53225509059E+01  0.15074226231E+02  0.24459598898E+01  0.16172339492E+02  0.51100000000E-03 0.  1.
         12    1    3    3    0    0  0.16904544251E+01  0.10247436394E+02  0.25534924417E+02  0.27566282915E+02  0.00000000000E+00 0. -1.
</event>
<event>
 7    1  0.5913457E-013  0.5052886E+02  0.7816164E-02  0.1300439E+00
        -11   -1    0    0    0    0  0.00000000000E+00  0.00000000000E+00  0.45593999997E+02  0.45594000000E+02  0.51100000000E-03 0.  1.
         11   -1    0    0    0    0 -0.00000000000E+00 -0.00000000000E+00 -0.45593999997E+02  0.45594000000E+02  0.51100000000E-03 0. -1.
    9900012    2    1    2    0    0 -0.36065568655E+01 -0.40429201767E+02  0.23744486697E+01  0.50528860629E+02  0.30000002368E+02 0.  0.
        -12    1    1    2    0    0  0.36065568655E+01  0.40429201767E+02 -0.23744486697E+01  0.40659139371E+02  0.00000000000E+00 0.  1.
         11    1    3    3    0    0  0.33888650566E+01 -0.60870305463E+00  0.57373672765E+00  0.34905730009E+01  0.51100000000E-03 0. -1.
        -11    1    3    3    0    0 -0.50108267797E+01 -0.49658021968E+01 -0.81087418622E+01  0.10747989176E+02  0.51100000000E-03 0.  1.
         12    1    3    3    0    0 -0.19845951424E+01 -0.34854696515E+02  0.99094538043E+01  0.36290298452E+02  0.00000000000E+00 0. -1.
</event>
<event>
 7    1  0.5913457E-013  0.5052886E+02  0.7816164E-02  0.1300439E+00
        -11   -1    0    0    0    0  0.00000000000E+00  0.00000000000E+00  0.45593999997E+02  0.45594000000E+02  0.51100000000E-03 0.  1.
         11   -1    0    0    0    0 -0.00000000000E+00 -0.00000000000E+00 -0.45593999997E+02  0.45594000000E+02  0.51100000000E-03 0. -1.
    9900012    2    1    2    0    0  0.16419130820E+02 -0.27355601426E+02 -0.25204149211E+02  0.50528856825E+02  0.29999990805E+02 0.  0.
        -12    1    1    2    0    0 -0.16419130820E+02  0.27355601426E+02  0.25204149211E+02  0.40659143175E+02  0.00000000000E+00 0.  1.
         11    1    3    3    0    0  0.55461473712E+01  0.39230453413E+00 -0.37664067283E+01  0.67156141502E+01  0.51100000000E-03 0.  1.
        -11    1    3    3    0    0  0.15885034375E+02 -0.11217028813E+02 -0.17352586608E+02  0.26062776421E+02  0.51100000000E-03 0. -1.
         12    1    3    3    0    0 -0.50120509259E+01 -0.16530877147E+02 -0.40851558748E+01  0.17750466254E+02  0.00000000000E+00 0. -1.
</event>
<event>
 7    1  0.5913457E-013  0.5052885E+02  0.7816164E-02  0.1300439E+00
        -11   -1    0    0    0    0  0.00000000000E+00  0.00000000000E+00  0.45593999997E+02  0.45594000000E+02  0.51100000000E-03 0. -1.
         11   -1    0    0    0    0 -0.00000000000E+00 -0.00000000000E+00 -0.45593999997E+02  0.45594000000E+02  0.51100000000E-03 0.  1.
    9900012    2    1    2    0    0  0.41180855335E+01  0.21670300345E+02  0.34155608846E+02  0.50528853905E+02  0.29999981929E+02 0.  0.
        -12    1    1    2    0    0 -0.41180855335E+01 -0.21670300345E+02 -0.34155608846E+02  0.40659146095E+02  0.00000000000E+00 0.  1.
         11    1    3    3    0    0 -0.30027807240E+01  0.14975990559E+02  0.11603998441E+02  0.19182016718E+02  0.51100000000E-03 0. -1.
        -11    1    3    3    0    0  0.13327425454E+02  0.26856349674E+01  0.10366700307E+02  0.17096823679E+02  0.51100000000E-03 0.  1.
         12    1    3    3    0    0 -0.62065591961E+01  0.40086748193E+01  0.12184910099E+02  0.14250013508E+02  0.00000000000E+00 0. -1.
</event>
<event>
 7    1  0.5913457E-013  0.5052886E+02  0.7816164E-02  0.1300439E+00
        -11   -1    0    0    0    0  0.00000000000E+00  0.00000000000E+00  0.45593999997E+02  0.45594000000E+02  0.51100000000E-03 0.  1.
         11   -1    0    0    0    0 -0.00000000000E+00 -0.00000000000E+00 -0.45593999997E+02  0.45594000000E+02  0.51100000000E-03 0. -1.
    9900012    2    1    2    0    0  0.28393765118E+02 -0.33857052190E+01 -0.28904956242E+02  0.50528863354E+02  0.30000010651E+02 0.  0.
        -12    1    1    2    0    0 -0.28393765118E+02  0.33857052190E+01  0.28904956242E+02  0.40659136646E+02  0.00000000000E+00 0.  1.
         11    1    3    3    0    0  0.17044710370E+02 -0.77233365085E+00 -0.21320471828E+02  0.27307163348E+02  0.51100000000E-03 0. -1.
        -11    1    3    3    0    0  0.10779288823E+02  0.27129343880E+01 -0.11943415554E+02  0.16315583222E+02  0.51100000000E-03 0.  1.
        -12    1    3    3    0    0  0.56976592475E+00 -0.53263059561E+01  0.43589311401E+01  0.69061167838E+01  0.00000000000E+00 0.  1.
</event>
<event>
 7    1  0.5913457E-013  0.5052886E+02  0.7816164E-02  0.1300439E+00
        -11   -1    0    0    0    0  0.00000000000E+00  0.00000000000E+00  0.45593999997E+02  0.45594000000E+02  0.51100000000E-03 0.  1.
         11   -1    0    0    0    0 -0.00000000000E+00 -0.00000000000E+00 -0.45593999997E+02  0.45594000000E+02  0.51100000000E-03 0. -1.
    9900012    2    1    2    0    0  0.23579946991E+02  0.32617224982E+02  0.57678740364E+01  0.50528860357E+02  0.30000001541E+02 0.  0.
        -12    1    1    2    0    0 -0.23579946991E+02 -0.32617224982E+02 -0.57678740364E+01  0.40659139643E+02  0.00000000000E+00 0.  1.
         11    1    3    3    0    0  0.81533690804E+01  0.19303856507E+02  0.45592676639E+00  0.20960061375E+02  0.51100000000E-03 0. -1.
        -11    1    3    3    0    0  0.78015287588E+01  0.14786864632E+02 -0.42499420766E+01  0.17250426793E+02  0.51100000000E-03 0.  1.
        -12    1    3    3    0    0  0.76250491520E+01 -0.14734961570E+01  0.95618893466E+01  0.12318372188E+02  0.00000000000E+00 0.  1.
</event>
<event>
 7    1  0.5913457E-013  0.5052881E+02  0.7816164E-02  0.1300439E+00
        -11   -1    0    0    0    0  0.00000000000E+00  0.00000000000E+00  0.45593999997E+02  0.45594000000E+02  0.51100000000E-03 0.  1.
         11   -1    0    0    0    0 -0.00000000000E+00 -0.00000000000E+00 -0.45593999997E+02  0.45594000000E+02  0.51100000000E-03 0. -1.
    9900012    2    1    2    0    0  0.80448492778E+01 -0.36590045022E+02 -0.15799328663E+02  0.50528809393E+02  0.29999846631E+02 0.  0.
        -12    1    1    2    0    0 -0.80448492778E+01  0.36590045022E+02  0.15799328663E+02  0.40659190607E+02  0.00000000000E+00 0.  1.
         11    1    3    3    0    0  0.13021073622E+02 -0.24856063548E+02 -0.29804676498E+01  0.28217998530E+02  0.51100000000E-03 0. -1.
        -11    1    3    3    0    0  0.34274104400E+01  0.44456831429E+00 -0.21734105964E+01  0.40827070911E+01  0.51100000000E-03 0.  1.
        -12    1    3    3    0    0 -0.84036347844E+01 -0.12178549788E+02 -0.10645450417E+02  0.18228103772E+02  0.00000000000E+00 0.  1.
</event>
<event>
 7    1  0.5913457E-013  0.5052885E+02  0.7816164E-02  0.1300439E+00
        -11   -1    0    0    0    0  0.00000000000E+00  0.00000000000E+00  0.45593999997E+02  0.45594000000E+02  0.51100000000E-03 0. -1.
         11   -1    0    0    0    0 -0.00000000000E+00 -0.00000000000E+00 -0.45593999997E+02  0.45594000000E+02  0.51100000000E-03 0.  1.
    9900012    2    1    2    0    0 -0.12985769636E+02 -0.33479190391E+02  0.19070398760E+02  0.50528849601E+02  0.29999968848E+02 0.  0.
        -12    1    1    2    0    0  0.12985769636E+02  0.33479190391E+02 -0.19070398760E+02  0.40659150399E+02  0.00000000000E+00 0.  1.
         11    1    3    3    0    0 -0.34575509581E+00  0.18370228427E+01  0.26059752023E+01  0.32070713317E+01  0.51100000000E-03 0. -1.
        -11    1    3    3    0    0  0.31958157239E+01  0.15595050931E+01 -0.78162239109E+00  0.36409103394E+01  0.51100000000E-03 0.  1.
         12    1    3    3    0    0 -0.15835830264E+02 -0.36875718327E+02  0.17246045949E+02  0.43680867930E+02  0.00000000000E+00 0. -1.
</event>
<event>
 7    1  0.5913457E-013  0.5052886E+02  0.7816164E-02  0.1300439E+00
        -11   -1    0    0    0    0  0.00000000000E+00  0.00000000000E+00  0.45593999997E+02  0.45594000000E+02  0.51100000000E-03 0. -1.
         11   -1    0    0    0    0 -0.00000000000E+00 -0.00000000000E+00 -0.45593999997E+02  0.45594000000E+02  0.51100000000E-03 0.  1.
    9900012    2    1    2    0    0 -0.27223590779E+02 -0.26615626363E+02  0.14270609646E+02  0.50528858823E+02  0.29999996878E+02 0.  0.
        -12    1    1    2    0    0  0.27223590779E+02  0.26615626363E+02 -0.14270609646E+02  0.40659141177E+02  0.00000000000E+00 0.  1.
         11    1    3    3    0    0 -0.56130319768E+00 -0.20209195216E+02  0.38083975260E+01  0.20572567281E+02  0.51100000000E-03 0. -1.
        -11    1    3    3    0    0 -0.23379920350E+01  0.62461542377E+00  0.23376120504E+01  0.33646369109E+01  0.51100000000E-03 0.  1.
         12    1    3    3    0    0 -0.24324295546E+02 -0.70310465706E+01  0.81246000699E+01  0.26591654631E+02  0.00000000000E+00 0. -1.
</event>
<event>
 7    1  0.5913457E-013  0.5052886E+02  0.7816164E-02  0.1300439E+00
        -11   -1    0    0    0    0  0.00000000000E+00  0.00000000000E+00  0.45593999997E+02  0.45594000000E+02  0.51100000000E-03 0. -1.
         11   -1    0    0    0    0 -0.00000000000E+00 -0.00000000000E+00 -0.45593999997E+02  0.45594000000E+02  0.51100000000E-03 0.  1.
    9900012    2    1    2    0    0 -0.40012747174E+02 -0.70157580540E+01  0.17101738778E+01  0.50528862132E+02  0.30000006937E+02 0.  0.
        -12    1    1    2    0    0  0.40012747174E+02  0.70157580540E+01 -0.17101738778E+01  0.40659137868E+02  0.00000000000E+00 0.  1.
         11    1    3    3    0    0 -0.16636191390E+02 -0.51534436198E+01 -0.13562876084E+01  0.17468839728E+02  0.51100000000E-03 0. -1.
        -11    1    3    3    0    0 -0.27255560282E+02  0.31379800473E+00  0.57613302037E+01  0.27859593705E+02  0.51100000000E-03 0.  1.
        -12    1    3    3    0    0  0.38790044981E+01 -0.21761124389E+01 -0.26948687175E+01  0.52004286984E+01  0.00000000000E+00 0.  1.
</event>
<event>
 7    1  0.5913457E-013  0.5052887E+02  0.7816164E-02  0.1300439E+00
        -11   -1    0    0    0    0  0.00000000000E+00  0.00000000000E+00  0.45593999997E+02  0.45594000000E+02  0.51100000000E-03 0. -1.
         11   -1    0    0    0    0 -0.00000000000E+00 -0.00000000000E+00 -0.45593999997E+02  0.45594000000E+02  0.51100000000E-03 0.  1.
    9900012    2    1    2    0    0 -0.28899043321E+02 -0.40865345438E+01  0.28307429476E+02  0.50528867779E+02  0.30000024100E+02 0.  0.
        -12    1    1    2    0    0  0.28899043321E+02  0.40865345438E+01 -0.28307429476E+02  0.40659132221E+02  0.00000000000E+00 0.  1.
         11    1    3    3    0    0  0.16406214975E+01  0.35955929270E+01  0.97602530931E+01  0.10530074458E+02  0.51100000000E-03 0. -1.
        -11    1    3    3    0    0  0.17238932526E+01  0.92467418448E+00  0.17288014362E+01  0.26106675317E+01  0.51100000000E-03 0.  1.
        -12    1    3    3    0    0 -0.32263558071E+02 -0.86068016554E+01  0.16818374947E+02  0.37388125789E+02  0.00000000000E+00 0.  1.
</event>
<event>
 7    1  0.5913457E-013  0.5052886E+02  0.7816164E-02  0.1300439E+00
        -11   -1    0    0    0    0  0.00000000000E+00  0.00000000000E+00  0.45593999997E+02  0.45594000000E+02  0.51100000000E-03 0.  1.
         11   -1    0    0    0    0 -0.00000000000E+00 -0.00000000000E+00 -0.45593999997E+02  0.45594000000E+02  0.51100000000E-03 0. -1.
    9900012    2    1    2    0    0 -0.21922502738E+02  0.15191391818E+02 -0.30688621179E+02  0.50528856114E+02  0.29999988644E+02 0.  0.
        -12    1    1    2    0    0  0.21922502738E+02 -0.15191391818E+02  0.30688621179E+02  0.40659143886E+02  0.00000000000E+00 0.  1.
         11    1    3    3    0    0 -0.99057499967E+01 -0.39160358082E+00 -0.12055146337E+02  0.15607811820E+02  0.51100000000E-03 0. -1.
        -11    1    3    3    0    0 -0.14045264994E+02  0.98492011916E+01 -0.22056286555E+02  0.27942011554E+02  0.51100000000E-03 0.  1.
        -12    1    3    3    0    0  0.20285122518E+01  0.57337942068E+01  0.34228117122E+01  0.69790327395E+01  0.00000000000E+00 0.  1.
</event>
<event>
 7    1  0.5913457E-013  0.5052886E+02  0.7816164E-02  0.1300439E+00
        -11   -1    0    0    0    0  0.00000000000E+00  0.00000000000E+00  0.45593999997E+02  0.45594000000E+02  0.51100000000E-03 0.  1.
         11   -1    0    0    0    0 -0.00000000000E+00 -0.00000000000E+00 -0.45593999997E+02  0.45594000000E+02  0.51100000000E-03 0. -1.
    9900012    2    1    2    0    0  0.10098495227E+02 -0.26597234493E+02 -0.29047773254E+02  0.50528860566E+02  0.30000002176E+02 0.  0.
        -12    1    1    2    0    0 -0.10098495227E+02  0.26597234493E+02  0.29047773254E+02  0.40659139434E+02  0.00000000000E+00 0.  1.
         11    1    3    3    0    0  0.39054138180E+01  0.10387319754E+01 -0.97877358421E+01  0.10589192339E+02  0.51100000000E-03 0. -1.
        -11    1    3    3    0    0  0.69854999621E+01 -0.44279280868E+01 -0.13793979342E+02  0.16083458061E+02  0.51100000000E-03 0.  1.
        -12    1    3    3    0    0 -0.79241855290E+00 -0.23208038381E+02 -0.54660580696E+01  0.23856210166E+02  0.00000000000E+00 0.  1.
</event>
<event>
 7    1  0.5913457E-013  0.5052886E+02  0.7816164E-02  0.1300439E+00
        -11   -1    0    0    0    0  0.00000000000E+00  0.00000000000E+00  0.45593999997E+02  0.45594000000E+02  0.51100000000E-03 0.  1.
         11   -1    0    0    0    0 -0.00000000000E+00 -0.00000000000E+00 -0.45593999997E+02  0.45594000000E+02  0.51100000000E-03 0. -1.
    9900012    2    1    2    0    0 -0.57425689243E+01  0.27303744351E+02 -0.29575222371E+02  0.50528864105E+02  0.30000012935E+02 0.  0.
        -12    1    1    2    0    0  0.57425689243E+01 -0.27303744351E+02  0.29575222371E+02  0.40659135895E+02  0.00000000000E+00 0.  1.
         11    1    3    3    0    0 -0.31280138679E+01 -0.14461324735E+01 -0.17917747887E+02  0.18246135467E+02  0.51100000000E-03 0. -1.
        -11    1    3    3    0    0 -0.15822092432E+00  0.13205092054E+01 -0.32139733398E+01  0.34782759109E+01  0.51100000000E-03 0.  1.
        -12    1    3    3    0    0 -0.24563341321E+01  0.27429367619E+02 -0.84435011438E+01  0.28804452727E+02  0.00000000000E+00 0.  1.
</event>
<event>
 7    1  0.5913457E-013  0.5052898E+02  0.7816164E-02  0.1300438E+00
        -11   -1    0    0    0    0  0.00000000000E+00  0.00000000000E+00  0.45593999997E+02  0.45594000000E+02  0.51100000000E-03 0. -1.
         11   -1    0    0    0    0 -0.00000000000E+00 -0.00000000000E+00 -0.45593999997E+02  0.45594000000E+02  0.51100000000E-03 0.  1.
    9900012    2    1    2    0    0  0.12265081946E+02 -0.15983662304E+02  0.35316373131E+02  0.50528980005E+02  0.30000365221E+02 0.  0.
        -12    1    1    2    0    0 -0.12265081946E+02  0.15983662304E+02 -0.35316373131E+02  0.40659019995E+02  0.00000000000E+00 0.  1.
         11    1    3    3    0    0 -0.66959464139E+01 -0.53196516487E+01  0.62639384298E+01  0.10600533805E+02  0.51100000000E-03 0. -1.
        -11    1    3    3    0    0 -0.31070985381E+01 -0.16808547731E+01  0.44177868146E+01  0.56565161269E+01  0.51100000000E-03 0.  1.
         12    1    3    3    0    0  0.22068126898E+02 -0.89831558821E+01  0.24634647887E+02  0.34271930073E+02  0.00000000000E+00 0. -1.
</event>
<event>
 7    1  0.5913457E-013  0.5052886E+02  0.7816164E-02  0.1300439E+00
        -11   -1    0    0    0    0  0.00000000000E+00  0.00000000000E+00  0.45593999997E+02  0.45594000000E+02  0.51100000000E-03 0.  1.
         11   -1    0    0    0    0 -0.00000000000E+00 -0.00000000000E+00 -0.45593999997E+02  0.45594000000E+02  0.51100000000E-03 0. -1.
    9900012    2    1    2    0    0  0.35804674211E+02 -0.86546234408E+01 -0.17213036456E+02  0.50528858023E+02  0.29999994447E+02 0.  0.
        -12    1    1    2    0    0 -0.35804674211E+02  0.86546234408E+01  0.17213036456E+02  0.40659141977E+02  0.00000000000E+00 0.  1.
         11    1    3    3    0    0  0.20962014372E+01  0.76016936287E+00  0.56367987063E+01  0.60617998847E+01  0.51100000000E-03 0.  1.
        -11    1    3    3    0    0  0.67593562732E+01 -0.22232185731E+01  0.16931332972E+01  0.73142531180E+01  0.51100000000E-03 0. -1.
         12    1    3    3    0    0  0.26949116501E+02 -0.71915742306E+01 -0.24542968460E+02  0.37152805020E+02  0.00000000000E+00 0. -1.
</event>
<event>
 7    1  0.5913457E-013  0.5052886E+02  0.7816164E-02  0.1300439E+00
        -11   -1    0    0    0    0  0.00000000000E+00  0.00000000000E+00  0.45593999997E+02  0.45594000000E+02  0.51100000000E-03 0.  1.
         11   -1    0    0    0    0 -0.00000000000E+00 -0.00000000000E+00 -0.45593999997E+02  0.45594000000E+02  0.51100000000E-03 0. -1.
    9900012    2    1    2    0    0 -0.21431597263E+02  0.18019067433E+02 -0.29481617794E+02  0.50528856624E+02  0.29999990193E+02 0.  0.
        -12    1    1    2    0    0  0.21431597263E+02 -0.18019067433E+02  0.29481617794E+02  0.40659143376E+02  0.00000000000E+00 0.  1.
         11    1    3    3    0    0 -0.95843318016E+01  0.13730497314E+01 -0.98479401688E+00  0.97321375435E+01  0.51100000000E-03 0. -1.
        -11    1    3    3    0    0 -0.80860938316E+01  0.90440625209E+00 -0.21822174621E+02  0.23289700933E+02  0.51100000000E-03 0.  1.
         12    1    3    3    0    0 -0.37611716294E+01  0.15741611449E+02 -0.66746491561E+01  0.17507018147E+02  0.00000000000E+00 0. -1.
</event>
<event>
 7    1  0.5913457E-013  0.5052875E+02  0.7816164E-02  0.1300439E+00
        -11   -1    0    0    0    0  0.00000000000E+00  0.00000000000E+00  0.45593999997E+02  0.45594000000E+02  0.51100000000E-03 0.  1.
         11   -1    0    0    0    0 -0.00000000000E+00 -0.00000000000E+00 -0.45593999997E+02  0.45594000000E+02  0.51100000000E-03 0. -1.
    9900012    2    1    2    0    0  0.21555495898E+02 -0.24383472444E+02 -0.24371741074E+02  0.50528746505E+02  0.29999655474E+02 0.  0.
        -12    1    1    2    0    0 -0.21555495898E+02  0.24383472444E+02  0.24371741074E+02  0.40659253495E+02  0.00000000000E+00 0.  1.
         11    1    3    3    0    0 -0.14181246118E+01 -0.20383455776E+01 -0.29119876021E+01  0.38269572984E+01  0.51100000000E-03 0. -1.
        -11    1    3    3    0    0  0.10255359038E+02 -0.55853834612E+01 -0.22803651257E+02  0.25619824518E+02  0.51100000000E-03 0.  1.
         12    1    3    3    0    0  0.12718261471E+02 -0.16759743405E+02  0.13438977855E+01  0.21081964688E+02  0.00000000000E+00 0. -1.
</event>
<event>
 7    1  0.5913457E-013  0.5052886E+02  0.7816164E-02  0.1300439E+00
        -11   -1    0    0    0    0  0.00000000000E+00  0.00000000000E+00  0.45593999997E+02  0.45594000000E+02  0.51100000000E-03 0. -1.
         11   -1    0    0    0    0 -0.00000000000E+00 -0.00000000000E+00 -0.45593999997E+02  0.45594000000E+02  0.51100000000E-03 0.  1.
    9900012    2    1    2    0    0 -0.29832074597E+02 -0.27589013662E+02 -0.14351198862E+01  0.50528856887E+02  0.29999990993E+02 0.  0.
        -12    1    1    2    0    0  0.29832074597E+02  0.27589013662E+02  0.14351198862E+01  0.40659143113E+02  0.00000000000E+00 0.  1.
         11    1    3    3    0    0 -0.65144178534E+01 -0.16079255506E+02 -0.35304871375E+01  0.17704362097E+02  0.51100000000E-03 0. -1.
        -11    1    3    3    0    0  0.81956558532E+00 -0.59131780015E+01 -0.41518217345E+01  0.72715188099E+01  0.51100000000E-03 0.  1.
        -12    1    3    3    0    0 -0.24137222329E+02 -0.55965801551E+01  0.62471889858E+01  0.25552975979E+02  0.00000000000E+00 0.  1.
</event>
<event>
 7    1  0.5913457E-013  0.5052890E+02  0.7816164E-02  0.1300439E+00
        -11   -1    0    0    0    0  0.00000000000E+00  0.00000000000E+00  0.45593999997E+02  0.45594000000E+02  0.51100000000E-03 0. -1.
         11   -1    0    0    0    0 -0.00000000000E+00 -0.00000000000E+00 -0.45593999997E+02  0.45594000000E+02  0.51100000000E-03 0.  1.
    9900012    2    1    2    0    0  0.11598267473E+02  0.16894411657E+02  0.35117251298E+02  0.50528901482E+02  0.30000126544E+02 0.  0.
        -12    1    1    2    0    0 -0.11598267473E+02 -0.16894411657E+02 -0.35117251298E+02  0.40659098518E+02  0.00000000000E+00 0.  1.
         11    1    3    3    0    0  0.75630762490E+01  0.13971247469E+02  0.16159908070E+02  0.22661388026E+02  0.51100000000E-03 0. -1.
        -11    1    3    3    0    0 -0.20852262114E+01  0.10366113505E+02  0.11927566775E+02  0.15939615021E+02  0.51100000000E-03 0.  1.
         12    1    3    3    0    0  0.61204174350E+01 -0.74429493169E+01  0.70297764518E+01  0.11927898435E+02  0.00000000000E+00 0. -1.
</event>
<event>
 7    1  0.6614160E-013  0.5052889E+02  0.7816164E-02  0.1300439E+00
        -11   -1    0    0    0    0  0.00000000000E+00  0.00000000000E+00  0.45593999997E+02  0.45594000000E+02  0.51100000000E-03 0.  1.
         11   -1    0    0    0    0 -0.00000000000E+00 -0.00000000000E+00 -0.45593999997E+02  0.45594000000E+02  0.51100000000E-03 0. -1.
    9900012    2    1    2    0    0 -0.26308347442E+02 -0.25032030698E+02 -0.18287468464E+02  0.50528890211E+02  0.30000092285E+02 0.  0.
        -12    1    1    2    0    0  0.26308347442E+02  0.25032030698E+02  0.18287468464E+02  0.40659109789E+02  0.00000000000E+00 0.  1.
         11    1    3    3    0    0 -0.12303779421E+02 -0.10465672667E+02 -0.42629877398E+01  0.16705877922E+02  0.51100000000E-03 0. -1.
        -11    1    3    3    0    0 -0.11590140729E+02 -0.20736420113E+02 -0.13114342871E+02  0.27135151933E+02  0.51100000000E-03 0.  1.
        -12    1    3    3    0    0 -0.24144272921E+01  0.61700620813E+01 -0.91013785308E+00  0.66878603565E+01  0.00000000000E+00 0.  1.
</event>
<event>
 7    1  0.5913457E-013  0.5052885E+02  0.7816164E-02  0.1300439E+00
        -11   -1    0    0    0    0  0.00000000000E+00  0.00000000000E+00  0.45593999997E+02  0.45594000000E+02  0.51100000000E-03 0.  1.
         11   -1    0    0    0    0 -0.00000000000E+00 -0.00000000000E+00 -0.45593999997E+02  0.45594000000E+02  0.51100000000E-03 0. -1.
    9900012    2    1    2    0    0 -0.23870613903E+01 -0.27139571799E+00 -0.40588106702E+02  0.50528854370E+02  0.29999983343E+02 0.  0.
        -12    1    1    2    0    0  0.23870613903E+01  0.27139571799E+00  0.40588106702E+02  0.40659145630E+02  0.00000000000E+00 0.  1.
         11    1    3    3    0    0  0.56209051915E+01 -0.31213406865E+01 -0.20586837983E+02  0.21567457923E+02  0.51100000000E-03 0. -1.
        -11    1    3    3    0    0  0.59587212350E+01 -0.82318826779E+00 -0.32247140768E+01  0.68251577871E+01  0.51100000000E-03 0.  1.
        -12    1    3    3    0    0 -0.13966687817E+02  0.36731332363E+01 -0.16776554642E+02  0.22136238660E+02  0.00000000000E+00 0.  1.
</event>
<event>
 7    1  0.5913457E-013  0.5052885E+02  0.7816164E-02  0.1300439E+00
        -11   -1    0    0    0    0  0.00000000000E+00  0.00000000000E+00  0.45593999997E+02  0.45594000000E+02  0.51100000000E-03 0. -1.
         11   -1    0    0    0    0 -0.00000000000E+00 -0.00000000000E+00 -0.45593999997E+02  0.45594000000E+02  0.51100000000E-03 0.  1.
    9900012    2    1    2    0    0 -0.14756726073E+02 -0.29198288162E+02  0.24142607884E+02  0.50528849598E+02  0.29999968837E+02 0.  0.
        -12    1    1    2    0    0  0.14756726073E+02  0.29198288162E+02 -0.24142607884E+02  0.40659150402E+02  0.00000000000E+00 0.  1.
         11    1    3    3    0    0 -0.11021406174E+02 -0.20129952342E+02  0.15204486731E+02  0.27529307880E+02  0.51100000000E-03 0. -1.
        -11    1    3    3    0    0  0.29818053029E+01 -0.11921194493E+02  0.97089610494E+01  0.15661097213E+02  0.51100000000E-03 0.  1.
        -12    1    3    3    0    0 -0.67171252021E+01  0.28528586737E+01 -0.77083989578E+00  0.73384445040E+01  0.00000000000E+00 0.  1.
</event>
<event>
 7    1  0.5913457E-013  0.5052886E+02  0.7816164E-02  0.1300439E+00
        -11   -1    0    0    0    0  0.00000000000E+00  0.00000000000E+00  0.45593999997E+02  0.45594000000E+02  0.51100000000E-03 0.  1.
         11   -1    0    0    0    0 -0.00000000000E+00 -0.00000000000E+00 -0.45593999997E+02  0.45594000000E+02  0.51100000000E-03 0. -1.
    9900012    2    1    2    0    0  0.30876579121E+02  0.14404814158E+01 -0.26414526739E+02  0.50528863908E+02  0.30000012333E+02 0.  0.
        -12    1    1    2    0    0 -0.30876579121E+02 -0.14404814158E+01  0.26414526739E+02  0.40659136092E+02  0.00000000000E+00 0.  1.
         11    1    3    3    0    0  0.93839524968E+01 -0.28239127785E+01 -0.12344250651E+02  0.15761141210E+02  0.51100000000E-03 0. -1.
        -11    1    3    3    0    0  0.23611618798E+02  0.38419898087E+01 -0.18232477441E+02  0.30078109346E+02  0.51100000000E-03 0.  1.
        -12    1    3    3    0    0 -0.21189921732E+01  0.42240438561E+00  0.41622013523E+01  0.46896133521E+01  0.00000000000E+00 0.  1.
</event>
<event>
 7    1  0.5913457E-013  0.5052886E+02  0.7816164E-02  0.1300439E+00
        -11   -1    0    0    0    0  0.00000000000E+00  0.00000000000E+00  0.45593999997E+02  0.45594000000E+02  0.51100000000E-03 0. -1.
         11   -1    0    0    0    0 -0.00000000000E+00 -0.00000000000E+00 -0.45593999997E+02  0.45594000000E+02  0.51100000000E-03 0.  1.
    9900012    2    1    2    0    0  0.12784411226E+02 -0.34870114731E+02  0.16546898658E+02  0.50528856786E+02  0.29999990686E+02 0.  0.
        -12    1    1    2    0    0 -0.12784411226E+02  0.34870114731E+02 -0.16546898658E+02  0.40659143214E+02  0.00000000000E+00 0.  1.
         11    1    3    3    0    0  0.11686743803E+02 -0.53637911079E+01 -0.20915805809E+01  0.13027852676E+02  0.51100000000E-03 0. -1.
        -11    1    3    3    0    0 -0.15436732431E+01  0.10477569316E+01  0.88488021574E+00  0.20648813348E+01  0.51100000000E-03 0.  1.
        -12    1    3    3    0    0  0.26413406666E+01 -0.30554080554E+02  0.17753599023E+02  0.35436122775E+02  0.00000000000E+00 0.  1.
</event>
<event>
 7    1  0.5913457E-013  0.5052886E+02  0.7816164E-02  0.1300439E+00
        -11   -1    0    0    0    0  0.00000000000E+00  0.00000000000E+00  0.45593999997E+02  0.45594000000E+02  0.51100000000E-03 0. -1.
         11   -1    0    0    0    0 -0.00000000000E+00 -0.00000000000E+00 -0.45593999997E+02  0.45594000000E+02  0.51100000000E-03 0.  1.
    9900012    2    1    2    0    0 -0.39104924281E+02 -0.15724459982E+01  0.11022607698E+02  0.50528861176E+02  0.30000004031E+02 0.  0.
        -12    1    1    2    0    0  0.39104924281E+02  0.15724459982E+01 -0.11022607698E+02  0.40659138824E+02  0.00000000000E+00 0.  1.
         11    1    3    3    0    0 -0.12681002522E+02  0.55447786489E+01  0.11376285864E+02  0.17915699136E+02  0.51100000000E-03 0. -1.
        -11    1    3    3    0    0 -0.70079782844E+01  0.56067955334E+01 -0.24547311704E+01  0.93044946756E+01  0.51100000000E-03 0.  1.
        -12    1    3    3    0    0 -0.19415943475E+02 -0.12724020180E+02  0.21010530044E+01  0.23308667364E+02  0.00000000000E+00 0.  1.
</event>
<event>
 7    1  0.5913457E-013  0.5052885E+02  0.7816164E-02  0.1300439E+00
        -11   -1    0    0    0    0  0.00000000000E+00  0.00000000000E+00  0.45593999997E+02  0.45594000000E+02  0.51100000000E-03 0.  1.
         11   -1    0    0    0    0 -0.00000000000E+00 -0.00000000000E+00 -0.45593999997E+02  0.45594000000E+02  0.51100000000E-03 0. -1.
    9900012    2    1    2    0    0 -0.22091427326E+02 -0.21958537186E+02 -0.26133458801E+02  0.50528853605E+02  0.29999981019E+02 0.  0.
        -12    1    1    2    0    0  0.22091427326E+02  0.21958537186E+02  0.26133458801E+02  0.40659146395E+02  0.00000000000E+00 0.  1.
         11    1    3    3    0    0  0.17609552110E+01 -0.81171657407E+01 -0.17850166595E+01  0.84956240297E+01  0.51100000000E-03 0. -1.
        -11    1    3    3    0    0 -0.49851220188E+01 -0.11000744863E+02 -0.13533143809E+01  0.12153159637E+02  0.51100000000E-03 0.  1.
         12    1    3    3    0    0 -0.18867260518E+02 -0.28406265823E+01 -0.22995127760E+02  0.29880069939E+02  0.00000000000E+00 0. -1.
</event>
<event>
 7    1  0.5913457E-013  0.5052886E+02  0.7816164E-02  0.1300439E+00
        -11   -1    0    0    0    0  0.00000000000E+00  0.00000000000E+00  0.45593999997E+02  0.45594000000E+02  0.51100000000E-03 0.  1.
         11   -1    0    0    0    0 -0.00000000000E+00 -0.00000000000E+00 -0.45593999997E+02  0.45594000000E+02  0.51100000000E-03 0. -1.
    9900012    2    1    2    0    0  0.29957651301E+02 -0.90457130731E+01 -0.25959188772E+02  0.50528864764E+02  0.30000014935E+02 0.  0.
        -12    1    1    2    0    0 -0.29957651301E+02  0.90457130731E+01  0.25959188772E+02  0.40659135236E+02  0.00000000000E+00 0.  1.
         11    1    3    3    0    0  0.82599927519E+01 -0.29613017115E+00 -0.98902667329E+01  0.12889241624E+02  0.51100000000E-03 0. -1.
        -11    1    3    3    0    0  0.10521171229E+02  0.83721530919E+01 -0.80856683289E+01  0.15689678901E+02  0.51100000000E-03 0.  1.
        -12    1    3    3    0    0  0.11176487320E+02 -0.17121735994E+02 -0.79832537100E+01  0.21949944238E+02  0.00000000000E+00 0.  1.
</event>
<event>
 7    1  0.5913457E-013  0.5052886E+02  0.7816164E-02  0.1300439E+00
        -11   -1    0    0    0    0  0.00000000000E+00  0.00000000000E+00  0.45593999997E+02  0.45594000000E+02  0.51100000000E-03 0. -1.
         11   -1    0    0    0    0 -0.00000000000E+00 -0.00000000000E+00 -0.45593999997E+02  0.45594000000E+02  0.51100000000E-03 0.  1.
    9900012    2    1    2    0    0 -0.95118738696E+01  0.36860590412E+02  0.14282387845E+02  0.50528862373E+02  0.30000007669E+02 0.  0.
        -12    1    1    2    0    0  0.95118738696E+01 -0.36860590412E+02 -0.14282387845E+02  0.40659137627E+02  0.00000000000E+00 0.  1.
         11    1    3    3    0    0 -0.53745183195E+01  0.17083444843E+02  0.33465492433E+01  0.18218916734E+02  0.51100000000E-03 0. -1.
        -11    1    3    3    0    0 -0.13548858959E+02  0.12015981729E+02  0.52787357207E+01  0.18863203521E+02  0.51100000000E-03 0.  1.
        -12    1    3    3    0    0  0.94115034091E+01  0.77611638400E+01  0.56571028814E+01  0.13446742118E+02  0.00000000000E+00 0.  1.
</event>
<event>
 7    1  0.5913457E-013  0.5052886E+02  0.7816164E-02  0.1300439E+00
        -11   -1    0    0    0    0  0.00000000000E+00  0.00000000000E+00  0.45593999997E+02  0.45594000000E+02  0.51100000000E-03 0.  1.
         11   -1    0    0    0    0 -0.00000000000E+00 -0.00000000000E+00 -0.45593999997E+02  0.45594000000E+02  0.51100000000E-03 0. -1.
    9900012    2    1    2    0    0 -0.19867255815E+02  0.12633819566E+02 -0.33148821801E+02  0.50528860348E+02  0.30000001514E+02 0.  0.
        -12    1    1    2    0    0  0.19867255815E+02 -0.12633819566E+02  0.33148821801E+02  0.40659139652E+02  0.00000000000E+00 0.  1.
         11    1    3    3    0    0 -0.65617699784E+01  0.16844435613E+01 -0.21665347903E+02  0.22699812232E+02  0.51100000000E-03 0. -1.
        -11    1    3    3    0    0 -0.12132401003E+02  0.59900367665E+01 -0.16045725811E+02  0.20989068860E+02  0.51100000000E-03 0.  1.
        -12    1    3    3    0    0 -0.11730848334E+01  0.49593392386E+01  0.45622519125E+01  0.68399792560E+01  0.00000000000E+00 0.  1.
</event>
<event>
 7    1  0.5913457E-013  0.5052886E+02  0.7816164E-02  0.1300439E+00
        -11   -1    0    0    0    0  0.00000000000E+00  0.00000000000E+00  0.45593999997E+02  0.45594000000E+02  0.51100000000E-03 0. -1.
         11   -1    0    0    0    0 -0.00000000000E+00 -0.00000000000E+00 -0.45593999997E+02  0.45594000000E+02  0.51100000000E-03 0.  1.
    9900012    2    1    2    0    0  0.29332612099E+02 -0.26478065988E+02  0.95747429472E+01  0.50528858180E+02  0.29999994925E+02 0.  0.
        -12    1    1    2    0    0 -0.29332612099E+02  0.26478065988E+02 -0.95747429472E+01  0.40659141820E+02  0.00000000000E+00 0.  1.
         11    1    3    3    0    0  0.75889316737E+01 -0.12066672716E+02 -0.67958013923E+00  0.14270890085E+02  0.51100000000E-03 0. -1.
        -11    1    3    3    0    0  0.25705095905E+02 -0.77004057816E+01  0.93344170118E+01  0.28410905404E+02  0.51100000000E-03 0.  1.
         12    1    3    3    0    0 -0.39614154796E+01 -0.67109874904E+01  0.91990607467E+00  0.78470626915E+01  0.00000000000E+00 0. -1.
</event>
<event>
 7    1  0.5913457E-013  0.5052886E+02  0.7816164E-02  0.1300439E+00
        -11   -1    0    0    0    0  0.00000000000E+00  0.00000000000E+00  0.45593999997E+02  0.45594000000E+02  0.51100000000E-03 0.  1.
         11   -1    0    0    0    0 -0.00000000000E+00 -0.00000000000E+00 -0.45593999997E+02  0.45594000000E+02  0.51100000000E-03 0. -1.
    9900012    2    1    2    0    0  0.30452656078E+02 -0.75427288771E+01 -0.25863266475E+02  0.50528861127E+02  0.30000003882E+02 0.  0.
        -12    1    1    2    0    0 -0.30452656078E+02  0.75427288771E+01  0.25863266475E+02  0.40659138873E+02  0.00000000000E+00 0.  1.
         11    1    3    3    0    0  0.93728828894E+01 -0.59960551216E+01 -0.18944639645E+02  0.21970502548E+02  0.51100000000E-03 0. -1.
        -11    1    3    3    0    0 -0.24790346843E+01 -0.22937524092E+00 -0.40977008502E+01  0.47947240261E+01  0.51100000000E-03 0.  1.
         12    1    3    3    0    0  0.23558807873E+02 -0.13172985146E+01 -0.28209259799E+01  0.23763634553E+02  0.00000000000E+00 0. -1.
</event>
<event>
 7    1  0.5913457E-013  0.5052887E+02  0.7816164E-02  0.1300439E+00
        -11   -1    0    0    0    0  0.00000000000E+00  0.00000000000E+00  0.45593999997E+02  0.45594000000E+02  0.51100000000E-03 0.  1.
         11   -1    0    0    0    0 -0.00000000000E+00 -0.00000000000E+00 -0.45593999997E+02  0.45594000000E+02  0.51100000000E-03 0. -1.
    9900012    2    1    2    0    0  0.28867056548E+02 -0.27890286627E+02 -0.64799623101E+01  0.50528868758E+02  0.30000027076E+02 0.  0.
        -12    1    1    2    0    0 -0.28867056548E+02  0.27890286627E+02  0.64799623101E+01  0.40659131242E+02  0.00000000000E+00 0.  1.
         11    1    3    3    0    0  0.26317085959E+01 -0.63268554956E+01  0.22922795625E+01  0.72256166830E+01  0.51100000000E-03 0. -1.
        -11    1    3    3    0    0  0.15333636443E+02 -0.29665128966E+01  0.64669461963E+01  0.16903904836E+02  0.51100000000E-03 0.  1.
         12    1    3    3    0    0  0.10901711508E+02 -0.18596918234E+02 -0.15239188069E+02  0.26399347239E+02  0.00000000000E+00 0. -1.
</event>
<event>
 7    1  0.5913457E-013  0.5052889E+02  0.7816164E-02  0.1300439E+00
        -11   -1    0    0    0    0  0.00000000000E+00  0.00000000000E+00  0.45593999997E+02  0.45594000000E+02  0.51100000000E-03 0.  1.
         11   -1    0    0    0    0 -0.00000000000E+00 -0.00000000000E+00 -0.45593999997E+02  0.45594000000E+02  0.51100000000E-03 0. -1.
    9900012    2    1    2    0    0  0.20926068038E+02  0.34545004028E+02  0.46803288132E+01  0.50528891492E+02  0.30000096179E+02 0.  0.
        -12    1    1    2    0    0 -0.20926068038E+02 -0.34545004028E+02 -0.46803288132E+01  0.40659108508E+02  0.00000000000E+00 0.  1.
         11    1    3    3    0    0  0.87339062440E+01  0.12212698030E+01 -0.13231767370E+01  0.89175902098E+01  0.51100000000E-03 0. -1.
        -11    1    3    3    0    0  0.67564181937E+01  0.62453025464E+01 -0.65293537845E+01  0.11282085437E+02  0.51100000000E-03 0.  1.
         12    1    3    3    0    0  0.54357436006E+01  0.27078431679E+02  0.12532859335E+02  0.30329215845E+02  0.00000000000E+00 0. -1.
</event>
<event>
 7    1  0.5913457E-013  0.5052886E+02  0.7816164E-02  0.1300439E+00
        -11   -1    0    0    0    0  0.00000000000E+00  0.00000000000E+00  0.45593999997E+02  0.45594000000E+02  0.51100000000E-03 0.  1.
         11   -1    0    0    0    0 -0.00000000000E+00 -0.00000000000E+00 -0.45593999997E+02  0.45594000000E+02  0.51100000000E-03 0. -1.
    9900012    2    1    2    0    0 -0.21085286996E+01  0.26478632251E+02 -0.30783144063E+02  0.50528858131E+02  0.29999994774E+02 0.  0.
        -12    1    1    2    0    0  0.21085286996E+01 -0.26478632251E+02  0.30783144063E+02  0.40659141869E+02  0.00000000000E+00 0.  1.
         11    1    3    3    0    0 -0.56298002049E+00  0.80625581187E+00 -0.13744688422E+02  0.13779820573E+02  0.51100000000E-03 0. -1.
        -11    1    3    3    0    0 -0.17198620621E+01  0.46954077477E+01 -0.14836000478E+02  0.15656043238E+02  0.51100000000E-03 0.  1.
        -12    1    3    3    0    0  0.17431338299E+00  0.20976968691E+02 -0.22024551626E+01  0.21092994320E+02  0.00000000000E+00 0.  1.
</event>
<event>
 7    1  0.5913457E-013  0.5052886E+02  0.7816164E-02  0.1300439E+00
        -11   -1    0    0    0    0  0.00000000000E+00  0.00000000000E+00  0.45593999997E+02  0.45594000000E+02  0.51100000000E-03 0.  1.
         11   -1    0    0    0    0 -0.00000000000E+00 -0.00000000000E+00 -0.45593999997E+02  0.45594000000E+02  0.51100000000E-03 0. -1.
    9900012    2    1    2    0    0  0.37196578228E+02 -0.15764877198E+01 -0.16343031304E+02  0.50528863049E+02  0.30000009724E+02 0.  0.
        -12    1    1    2    0    0 -0.37196578228E+02  0.15764877198E+01  0.16343031304E+02  0.40659136951E+02  0.00000000000E+00 0.  1.
         11    1    3    3    0    0  0.57665545443E+01  0.38460371790E+01  0.79190494001E+00  0.69765512246E+01  0.51100000000E-03 0. -1.
        -11    1    3    3    0    0  0.16474515826E+01  0.14110875564E+01  0.52455650032E+01  0.56763736023E+01  0.51100000000E-03 0.  1.
        -12    1    3    3    0    0  0.29782572101E+02 -0.68336124552E+01 -0.22380501247E+02  0.37875938222E+02  0.00000000000E+00 0.  1.
</event>
<event>
 7    1  0.5913457E-013  0.5052886E+02  0.7816164E-02  0.1300439E+00
        -11   -1    0    0    0    0  0.00000000000E+00  0.00000000000E+00  0.45593999997E+02  0.45594000000E+02  0.51100000000E-03 0.  1.
         11   -1    0    0    0    0 -0.00000000000E+00 -0.00000000000E+00 -0.45593999997E+02  0.45594000000E+02  0.51100000000E-03 0. -1.
    9900012    2    1    2    0    0  0.28587853450E+02  0.28600868357E+02 -0.42297137239E+01  0.50528861865E+02  0.30000006126E+02 0.  0.
        -12    1    1    2    0    0 -0.28587853450E+02 -0.28600868357E+02  0.42297137239E+01  0.40659138135E+02  0.00000000000E+00 0.  1.
         11    1    3    3    0    0  0.48409666397E+01  0.14661542384E+01 -0.66479596974E+01  0.83534384930E+01  0.51100000000E-03 0. -1.
        -11    1    3    3    0    0  0.18068627921E+02  0.49975847322E+01 -0.21488062720E+01  0.18869778397E+02  0.51100000000E-03 0.  1.
        -12    1    3    3    0    0  0.56782588892E+01  0.22137129386E+02  0.45670522455E+01  0.23305644975E+02  0.00000000000E+00 0.  1.
</event>
<event>
 7    1  0.5913457E-013  0.5052883E+02  0.7816164E-02  0.1300439E+00
        -11   -1    0    0    0    0  0.00000000000E+00  0.00000000000E+00  0.45593999997E+02  0.45594000000E+02  0.51100000000E-03 0. -1.
         11   -1    0    0    0    0 -0.00000000000E+00 -0.00000000000E+00 -0.45593999997E+02  0.45594000000E+02  0.51100000000E-03 0.  1.
    9900012    2    1    2    0    0  0.57731716050E+01 -0.14263567134E+02  0.37634945684E+02  0.50528831362E+02  0.29999913406E+02 0.  0.
        -12    1    1    2    0    0 -0.57731716050E+01  0.14263567134E+02 -0.37634945684E+02  0.40659168638E+02  0.00000000000E+00 0.  1.
         11    1    3    3    0    0  0.61028128101E+01 -0.93692838977E+01  0.11634874679E+02  0.16136855766E+02  0.51100000000E-03 0. -1.
        -11    1    3    3    0    0 -0.30847545029E+01 -0.11010216456E+02  0.52448254178E+01  0.12579696764E+02  0.51100000000E-03 0.  1.
        -12    1    3    3    0    0  0.27551132978E+01  0.61159332203E+01  0.20755245587E+02  0.21812278831E+02  0.00000000000E+00 0.  1.
</event>
<event>
 7    1  0.5913457E-013  0.5052886E+02  0.7816164E-02  0.1300439E+00
        -11   -1    0    0    0    0  0.00000000000E+00  0.00000000000E+00  0.45593999997E+02  0.45594000000E+02  0.51100000000E-03 0.  1.
         11   -1    0    0    0    0 -0.00000000000E+00 -0.00000000000E+00 -0.45593999997E+02  0.45594000000E+02  0.51100000000E-03 0. -1.
    9900012    2    1    2    0    0  0.36011016428E+02 -0.49794504013E+01 -0.18209257986E+02  0.50528864411E+02  0.30000013863E+02 0.  0.
        -12    1    1    2    0    0 -0.36011016428E+02  0.49794504013E+01  0.18209257986E+02  0.40659135589E+02  0.00000000000E+00 0.  1.
         11    1    3    3    0    0 -0.22076407854E+01 -0.26334991218E+01 -0.41742185559E+01  0.54067639375E+01  0.51100000000E-03 0. -1.
        -11    1    3    3    0    0  0.21415553978E+02 -0.16797699045E+01 -0.17790281997E+02  0.27891606496E+02  0.51100000000E-03 0.  1.
        -12    1    3    3    0    0  0.16803103235E+02 -0.66618137506E+00  0.37552425676E+01  0.17230493977E+02  0.00000000000E+00 0.  1.
</event>
<event>
 7    1  0.5913457E-013  0.5052886E+02  0.7816164E-02  0.1300439E+00
        -11   -1    0    0    0    0  0.00000000000E+00  0.00000000000E+00  0.45593999997E+02  0.45594000000E+02  0.51100000000E-03 0.  1.
         11   -1    0    0    0    0 -0.00000000000E+00 -0.00000000000E+00 -0.45593999997E+02  0.45594000000E+02  0.51100000000E-03 0. -1.
    9900012    2    1    2    0    0  0.10240327662E+01  0.24738439919E+02 -0.32250992633E+02  0.50528861070E+02  0.30000003708E+02 0.  0.
        -12    1    1    2    0    0 -0.10240327662E+01 -0.24738439919E+02  0.32250992633E+02  0.40659138930E+02  0.00000000000E+00 0.  1.
         11    1    3    3    0    0 -0.37873770959E-01 -0.17872529789E+01 -0.72540963577E+01  0.74711191839E+01  0.51100000000E-03 0. -1.
        -11    1    3    3    0    0  0.18290491195E+01  0.70018714728E+00 -0.15356516515E+02  0.15480900570E+02  0.51100000000E-03 0.  1.
         12    1    3    3    0    0 -0.76714258233E+00  0.25825505751E+02 -0.96403797601E+01  0.27576841315E+02  0.00000000000E+00 0. -1.
</event>
<event>
 7    1  0.5913457E-013  0.5052884E+02  0.7816164E-02  0.1300439E+00
        -11   -1    0    0    0    0  0.00000000000E+00  0.00000000000E+00  0.45593999997E+02  0.45594000000E+02  0.51100000000E-03 0. -1.
         11   -1    0    0    0    0 -0.00000000000E+00 -0.00000000000E+00 -0.45593999997E+02  0.45594000000E+02  0.51100000000E-03 0.  1.
    9900012    2    1    2    0    0  0.36552238248E+01 -0.24353019464E+02  0.32353316613E+02  0.50528839728E+02  0.29999938836E+02 0.  0.
        -12    1    1    2    0    0 -0.36552238248E+01  0.24353019464E+02 -0.32353316613E+02  0.40659160272E+02  0.00000000000E+00 0.  1.
         11    1    3    3    0    0  0.19247777136E+01 -0.11057436005E+02  0.92580932624E+01  0.14549362576E+02  0.51100000000E-03 0. -1.
        -11    1    3    3    0    0  0.11476364946E+02 -0.15871062298E+01  0.58818856448E+01  0.12993168881E+02  0.51100000000E-03 0.  1.
         12    1    3    3    0    0 -0.97459188350E+01 -0.11708477229E+02  0.17213337705E+02  0.22986308271E+02  0.00000000000E+00 0. -1.
</event>
<event>
 7    1  0.5913457E-013  0.5052886E+02  0.7816164E-02  0.1300439E+00
        -11   -1    0    0    0    0  0.00000000000E+00  0.00000000000E+00  0.45593999997E+02  0.45594000000E+02  0.51100000000E-03 0.  1.
         11   -1    0    0    0    0 -0.00000000000E+00 -0.00000000000E+00 -0.45593999997E+02  0.45594000000E+02  0.51100000000E-03 0. -1.
    9900012    2    1    2    0    0  0.10399974661E+02 -0.16011239515E+01 -0.39273940222E+02  0.50528862633E+02  0.30000008460E+02 0.  0.
        -12    1    1    2    0    0 -0.10399974661E+02  0.16011239515E+01  0.39273940222E+02  0.40659137367E+02  0.00000000000E+00 0.  1.
         11    1    3    3    0    0  0.15040582704E+01  0.46728277495E+00 -0.25497890623E+02  0.25546486470E+02  0.51100000000E-03 0. -1.
        -11    1    3    3    0    0  0.65105827633E+01  0.72186061035E+01 -0.11628354691E+02  0.15156338445E+02  0.51100000000E-03 0.  1.
        -12    1    3    3    0    0  0.23853336275E+01 -0.92870128299E+01 -0.21476949084E+01  0.98260377181E+01  0.00000000000E+00 0.  1.
</event>
<event>
 7    1  0.5913457E-013  0.5052886E+02  0.7816164E-02  0.1300439E+00
        -11   -1    0    0    0    0  0.00000000000E+00  0.00000000000E+00  0.45593999997E+02  0.45594000000E+02  0.51100000000E-03 0.  1.
         11   -1    0    0    0    0 -0.00000000000E+00 -0.00000000000E+00 -0.45593999997E+02  0.45594000000E+02  0.51100000000E-03 0. -1.
    9900012    2    1    2    0    0  0.23709888836E+02 -0.27337681902E+02 -0.18538017593E+02  0.50528858633E+02  0.29999996301E+02 0.  0.
        -12    1    1    2    0    0 -0.23709888836E+02  0.27337681902E+02  0.18538017593E+02  0.40659141367E+02  0.00000000000E+00 0.  1.
         11    1    3    3    0    0  0.23165822768E+01  0.14458358032E+01 -0.63808265242E-01  0.27314952628E+01  0.51100000000E-03 0. -1.
        -11    1    3    3    0    0  0.13513114687E+01 -0.62742827188E-01 -0.12129805443E+02  0.12205005518E+02  0.51100000000E-03 0.  1.
         12    1    3    3    0    0  0.20041995090E+02 -0.28720774878E+02 -0.63444038848E+01  0.35592357852E+02  0.00000000000E+00 0. -1.
</event>
<event>
 7    1  0.5913457E-013  0.5052898E+02  0.7816164E-02  0.1300438E+00
        -11   -1    0    0    0    0  0.00000000000E+00  0.00000000000E+00  0.45593999997E+02  0.45594000000E+02  0.51100000000E-03 0. -1.
         11   -1    0    0    0    0 -0.00000000000E+00 -0.00000000000E+00 -0.45593999997E+02  0.45594000000E+02  0.51100000000E-03 0.  1.
    9900012    2    1    2    0    0  0.58611951577E+01  0.40225967802E+02 -0.82084949029E+00  0.50528980236E+02  0.30000365924E+02 0.  0.
        -12    1    1    2    0    0 -0.58611951577E+01 -0.40225967802E+02  0.82084949029E+00  0.40659019764E+02  0.00000000000E+00 0.  1.
         11    1    3    3    0    0  0.38140144900E+01 -0.82628871337E+00 -0.14764761295E+01  0.41724622934E+01  0.51100000000E-03 0.  1.
        -11    1    3    3    0    0  0.74124089878E+01  0.32450292729E+01 -0.88215637672E+00  0.81395468006E+01  0.51100000000E-03 0. -1.
         12    1    3    3    0    0 -0.53652283202E+01  0.37807227242E+02  0.15377830160E+01  0.38216971142E+02  0.00000000000E+00 0. -1.
</event>
<event>
 7    1  0.5913457E-013  0.5052886E+02  0.7816164E-02  0.1300439E+00
        -11   -1    0    0    0    0  0.00000000000E+00  0.00000000000E+00  0.45593999997E+02  0.45594000000E+02  0.51100000000E-03 0. -1.
         11   -1    0    0    0    0 -0.00000000000E+00 -0.00000000000E+00 -0.45593999997E+02  0.45594000000E+02  0.51100000000E-03 0.  1.
    9900012    2    1    2    0    0 -0.31869890018E+02 -0.17391921233E+02  0.18302929593E+02  0.50528855326E+02  0.29999986248E+02 0.  0.
        -12    1    1    2    0    0  0.31869890018E+02  0.17391921233E+02 -0.18302929593E+02  0.40659144674E+02  0.00000000000E+00 0.  1.
         11    1    3    3    0    0 -0.37848897931E+00  0.91454589659E+00 -0.75864032533E+00  0.12470699695E+01  0.51100000000E-03 0. -1.
        -11    1    3    3    0    0  0.44310415238E+01 -0.59476556123E+01  0.38933129882E+01  0.83765519490E+01  0.51100000000E-03 0.  1.
         12    1    3    3    0    0 -0.35922442563E+02 -0.12358811517E+02  0.15168256930E+02  0.40905233407E+02  0.00000000000E+00 0. -1.
</event>
<event>
 7    1  0.5913457E-013  0.5052886E+02  0.7816164E-02  0.1300439E+00
        -11   -1    0    0    0    0  0.00000000000E+00  0.00000000000E+00  0.45593999997E+02  0.45594000000E+02  0.51100000000E-03 0. -1.
         11   -1    0    0    0    0 -0.00000000000E+00 -0.00000000000E+00 -0.45593999997E+02  0.45594000000E+02  0.51100000000E-03 0.  1.
    9900012    2    1    2    0    0  0.47220903534E+01  0.18308069888E+02  0.35995585116E+02  0.50528859476E+02  0.29999998863E+02 0.  0.
        -12    1    1    2    0    0 -0.47220903534E+01 -0.18308069888E+02 -0.35995585116E+02  0.40659140524E+02  0.00000000000E+00 0.  1.
         11    1    3    3    0    0  0.14298391856E-01  0.20223724063E+02  0.31525505774E+02  0.37454729127E+02  0.51100000000E-03 0. -1.
        -11    1    3    3    0    0 -0.29745336358E+01  0.13342362592E+01 -0.59696254724E+00  0.33142723620E+01  0.51100000000E-03 0.  1.
        -12    1    3    3    0    0  0.76823255974E+01 -0.32498904341E+01  0.50670418886E+01  0.97598579866E+01  0.00000000000E+00 0.  1.
</event>
<event>
 7    1  0.5913457E-013  0.5052887E+02  0.7816164E-02  0.1300439E+00
        -11   -1    0    0    0    0  0.00000000000E+00  0.00000000000E+00  0.45593999997E+02  0.45594000000E+02  0.51100000000E-03 0. -1.
         11   -1    0    0    0    0 -0.00000000000E+00 -0.00000000000E+00 -0.45593999997E+02  0.45594000000E+02  0.51100000000E-03 0.  1.
    9900012    2    1    2    0    0 -0.35798133502E+02 -0.89462189039E+01 -0.17076998248E+02  0.50528867397E+02  0.30000022940E+02 0.  0.
        -12    1    1    2    0    0  0.35798133502E+02  0.89462189039E+01  0.17076998248E+02  0.40659132603E+02  0.00000000000E+00 0.  1.
         11    1    3    3    0    0 -0.17243342516E+02 -0.11854059599E+02 -0.15079711900E+02  0.25792427209E+02  0.51100000000E-03 0. -1.
        -11    1    3    3    0    0 -0.17064088025E+00 -0.11026902588E+01 -0.54867868720E+01  0.55990958696E+01  0.51100000000E-03 0.  1.
         12    1    3    3    0    0 -0.18384150105E+02  0.40105309541E+01  0.34895005247E+01  0.19137344318E+02  0.00000000000E+00 0. -1.
</event>
<event>
 7    1  0.5913457E-013  0.5052887E+02  0.7816164E-02  0.1300439E+00
        -11   -1    0    0    0    0  0.00000000000E+00  0.00000000000E+00  0.45593999997E+02  0.45594000000E+02  0.51100000000E-03 0.  1.
         11   -1    0    0    0    0 -0.00000000000E+00 -0.00000000000E+00 -0.45593999997E+02  0.45594000000E+02  0.51100000000E-03 0. -1.
    9900012    2    1    2    0    0 -0.76926603075E+00  0.39334797733E+02  0.10263851196E+02  0.50528871575E+02  0.30000035639E+02 0.  0.
        -12    1    1    2    0    0  0.76926603075E+00 -0.39334797733E+02 -0.10263851196E+02  0.40659128425E+02  0.00000000000E+00 0.  1.
         11    1    3    3    0    0  0.91573638832E+00  0.38921509960E+01 -0.35292657171E+01  0.53332100344E+01  0.51100000000E-03 0. -1.
        -11    1    3    3    0    0 -0.45904185194E+01 -0.16807398322E+01 -0.12326392801E+01  0.50414510236E+01  0.51100000000E-03 0.  1.
        -12    1    3    3    0    0  0.29054161004E+01  0.37123386569E+02  0.15025756193E+02  0.40154210517E+02  0.00000000000E+00 0.  1.
</event>
<event>
 7    1  0.5913457E-013  0.5052885E+02  0.7816164E-02  0.1300439E+00
        -11   -1    0    0    0    0  0.00000000000E+00  0.00000000000E+00  0.45593999997E+02  0.45594000000E+02  0.51100000000E-03 0.  1.
         11   -1    0    0    0    0 -0.00000000000E+00 -0.00000000000E+00 -0.45593999997E+02  0.45594000000E+02  0.51100000000E-03 0. -1.
    9900012    2    1    2    0    0 -0.30791505758E+02  0.56041454258E+01 -0.25954630474E+02  0.50528854462E+02  0.29999983623E+02 0.  0.
        -12    1    1    2    0    0  0.30791505758E+02 -0.56041454258E+01  0.25954630474E+02  0.40659145538E+02  0.00000000000E+00 0.  1.
         11    1    3    3    0    0 -0.17191783667E+02  0.45542953202E+01 -0.29516306934E+02  0.34460287387E+02  0.51100000000E-03 0. -1.
        -11    1    3    3    0    0 -0.33357082976E+01  0.14184096996E+01 -0.22513313324E+01  0.42670046815E+01  0.51100000000E-03 0.  1.
        -12    1    3    3    0    0 -0.10264013794E+02 -0.36855959400E+00  0.58130077920E+01  0.11801562393E+02  0.00000000000E+00 0.  1.
</event>
<event>
 7    1  0.5913457E-013  0.5052886E+02  0.7816164E-02  0.1300439E+00
        -11   -1    0    0    0    0  0.00000000000E+00  0.00000000000E+00  0.45593999997E+02  0.45594000000E+02  0.51100000000E-03 0.  1.
         11   -1    0    0    0    0 -0.00000000000E+00 -0.00000000000E+00 -0.45593999997E+02  0.45594000000E+02  0.51100000000E-03 0. -1.
    9900012    2    1    2    0    0 -0.37808520916E+02 -0.58137428091E+01 -0.13779764868E+02  0.50528858603E+02  0.29999996209E+02 0.  0.
        -12    1    1    2    0    0  0.37808520916E+02  0.58137428091E+01  0.13779764868E+02  0.40659141397E+02  0.00000000000E+00 0.  1.
         11    1    3    3    0    0 -0.33978112007E+02 -0.87847530958E+01 -0.13964655903E+02  0.37771624234E+02  0.51100000000E-03 0. -1.
        -11    1    3    3    0    0 -0.75348979913E+01 -0.87501738520E-01 -0.14676778610E+01  0.76770061130E+01  0.51100000000E-03 0.  1.
        -12    1    3    3    0    0  0.37044890823E+01  0.30585120252E+01  0.16525688965E+01  0.50802282554E+01  0.00000000000E+00 0.  1.
</event>
<event>
 7    1  0.5913457E-013  0.5052886E+02  0.7816164E-02  0.1300439E+00
        -11   -1    0    0    0    0  0.00000000000E+00  0.00000000000E+00  0.45593999997E+02  0.45594000000E+02  0.51100000000E-03 0.  1.
         11   -1    0    0    0    0 -0.00000000000E+00 -0.00000000000E+00 -0.45593999997E+02  0.45594000000E+02  0.51100000000E-03 0. -1.
    9900012    2    1    2    0    0  0.22194805000E+02 -0.44895033308E+01 -0.33769818005E+02  0.50528860594E+02  0.30000002263E+02 0.  0.
        -12    1    1    2    0    0 -0.22194805000E+02  0.44895033308E+01  0.33769818005E+02  0.40659139406E+02  0.00000000000E+00 0.  1.
         11    1    3    3    0    0  0.46050543441E+01 -0.28098200684E+01 -0.78304487769E+01  0.95088139449E+01  0.51100000000E-03 0. -1.
        -11    1    3    3    0    0  0.17051636981E+02 -0.90628143061E+01 -0.67564363848E+01  0.20458307842E+02  0.51100000000E-03 0.  1.
         12    1    3    3    0    0  0.53811367491E+00  0.73831310436E+01 -0.19182932843E+02  0.20561738808E+02  0.00000000000E+00 0. -1.
</event>
<event>
 7    1  0.5913457E-013  0.5052886E+02  0.7816164E-02  0.1300439E+00
        -11   -1    0    0    0    0  0.00000000000E+00  0.00000000000E+00  0.45593999997E+02  0.45594000000E+02  0.51100000000E-03 0.  1.
         11   -1    0    0    0    0 -0.00000000000E+00 -0.00000000000E+00 -0.45593999997E+02  0.45594000000E+02  0.51100000000E-03 0. -1.
    9900012    2    1    2    0    0 -0.12033123151E+02 -0.55533193631E+01 -0.38438655496E+02  0.50528860252E+02  0.30000001221E+02 0.  0.
        -12    1    1    2    0    0  0.12033123151E+02  0.55533193631E+01  0.38438655496E+02  0.40659139748E+02  0.00000000000E+00 0.  1.
         11    1    3    3    0    0 -0.10397573046E+02 -0.11474966903E+02 -0.14385788084E+02  0.21136113402E+02  0.51100000000E-03 0. -1.
        -11    1    3    3    0    0 -0.24237115074E+01 -0.19232475607E+00 -0.23013016564E+02  0.23141095435E+02  0.51100000000E-03 0.  1.
        -12    1    3    3    0    0  0.78816140195E+00  0.61139722959E+01 -0.10398508475E+01  0.62516514150E+01  0.00000000000E+00 0.  1.
</event>
<event>
 7    1  0.5913457E-013  0.5052881E+02  0.7816164E-02  0.1300439E+00
        -11   -1    0    0    0    0  0.00000000000E+00  0.00000000000E+00  0.45593999997E+02  0.45594000000E+02  0.51100000000E-03 0.  1.
         11   -1    0    0    0    0 -0.00000000000E+00 -0.00000000000E+00 -0.45593999997E+02  0.45594000000E+02  0.51100000000E-03 0. -1.
    9900012    2    1    2    0    0  0.11131744403E+02  0.12163769118E+02 -0.37165799916E+02  0.50528810436E+02  0.29999849801E+02 0.  0.
        -12    1    1    2    0    0 -0.11131744403E+02 -0.12163769118E+02  0.37165799916E+02  0.40659189564E+02  0.00000000000E+00 0.  1.
         11    1    3    3    0    0  0.10268440874E+02  0.15574069511E+02 -0.17052541138E+02  0.25274130621E+02  0.51100000000E-03 0. -1.
        -11    1    3    3    0    0  0.48610818222E+01  0.43603046017E+01 -0.83197624664E+01  0.10576427585E+02  0.51100000000E-03 0.  1.
        -12    1    3    3    0    0 -0.39977782939E+01 -0.77706049948E+01 -0.11793496312E+02  0.14678252230E+02  0.00000000000E+00 0.  1.
</event>
<event>
 7    1  0.5913457E-013  0.5052885E+02  0.7816164E-02  0.1300439E+00
        -11   -1    0    0    0    0  0.00000000000E+00  0.00000000000E+00  0.45593999997E+02  0.45594000000E+02  0.51100000000E-03 0. -1.
         11   -1    0    0    0    0 -0.00000000000E+00 -0.00000000000E+00 -0.45593999997E+02  0.45594000000E+02  0.51100000000E-03 0.  1.
    9900012    2    1    2    0    0 -0.37422072228E+02  0.13102489493E+02 -0.90044145717E+01  0.50528853396E+02  0.29999980383E+02 0.  0.
        -12    1    1    2    0    0  0.37422072228E+02 -0.13102489493E+02  0.90044145717E+01  0.40659146604E+02  0.00000000000E+00 0.  1.
         11    1    3    3    0    0 -0.17867941978E+01  0.93752924686E+01 -0.62421937654E+00  0.95644337244E+01  0.51100000000E-03 0. -1.
        -11    1    3    3    0    0  0.14327181559E+01  0.21624054901E+01  0.85504324096E+00  0.27312594207E+01  0.51100000000E-03 0.  1.
         12    1    3    3    0    0 -0.37067996186E+02  0.15647915347E+01 -0.92352384361E+01  0.38233160251E+02  0.00000000000E+00 0. -1.
</event>
<event>
 7    1  0.5913457E-013  0.5052886E+02  0.7816164E-02  0.1300439E+00
        -11   -1    0    0    0    0  0.00000000000E+00  0.00000000000E+00  0.45593999997E+02  0.45594000000E+02  0.51100000000E-03 0.  1.
         11   -1    0    0    0    0 -0.00000000000E+00 -0.00000000000E+00 -0.45593999997E+02  0.45594000000E+02  0.51100000000E-03 0. -1.
    9900012    2    1    2    0    0 -0.85578364820E+01  0.17603636248E+01 -0.39709324558E+02  0.50528857090E+02  0.29999991611E+02 0.  0.
        -12    1    1    2    0    0  0.85578364820E+01 -0.17603636248E+01  0.39709324558E+02  0.40659142910E+02  0.00000000000E+00 0.  1.
         11    1    3    3    0    0 -0.24248861910E+01  0.50151564008E+01 -0.11931542346E+02  0.13167899217E+02  0.51100000000E-03 0. -1.
        -11    1    3    3    0    0 -0.80744908820E+01 -0.38955153721E+00 -0.31356849405E+02  0.32382111702E+02  0.51100000000E-03 0.  1.
         12    1    3    3    0    0  0.19415405909E+01 -0.28652412388E+01  0.35790671934E+01  0.49788461714E+01  0.00000000000E+00 0. -1.
</event>
<event>
 7    1  0.5913457E-013  0.5052886E+02  0.7816164E-02  0.1300439E+00
        -11   -1    0    0    0    0  0.00000000000E+00  0.00000000000E+00  0.45593999997E+02  0.45594000000E+02  0.51100000000E-03 0.  1.
         11   -1    0    0    0    0 -0.00000000000E+00 -0.00000000000E+00 -0.45593999997E+02  0.45594000000E+02  0.51100000000E-03 0. -1.
    9900012    2    1    2    0    0 -0.19281123329E+02 -0.35074148624E+02 -0.71560068464E+01  0.50528855241E+02  0.29999985991E+02 0.  0.
        -12    1    1    2    0    0  0.19281123329E+02  0.35074148624E+02  0.71560068464E+01  0.40659144759E+02  0.00000000000E+00 0.  1.
         11    1    3    3    0    0  0.19372262820E+00  0.28255897464E+01 -0.15350759278E+01  0.32214816835E+01  0.51100000000E-03 0. -1.
        -11    1    3    3    0    0 -0.10293906300E+02 -0.29195483596E+01 -0.26335649818E+01  0.11019252892E+02  0.51100000000E-03 0.  1.
         12    1    3    3    0    0 -0.91809396579E+01 -0.34980190011E+02 -0.29873659368E+01  0.36288120665E+02  0.00000000000E+00 0. -1.
</event>
<event>
 7    1  0.5913457E-013  0.5052886E+02  0.7816164E-02  0.1300439E+00
        -11   -1    0    0    0    0  0.00000000000E+00  0.00000000000E+00  0.45593999997E+02  0.45594000000E+02  0.51100000000E-03 0. -1.
         11   -1    0    0    0    0 -0.00000000000E+00 -0.00000000000E+00 -0.45593999997E+02  0.45594000000E+02  0.51100000000E-03 0.  1.
    9900012    2    1    2    0    0 -0.95302596794E+01 -0.83261186220E+01  0.38639555607E+02  0.50528863778E+02  0.30000011939E+02 0.  0.
        -12    1    1    2    0    0  0.95302596794E+01  0.83261186220E+01 -0.38639555607E+02  0.40659136222E+02  0.00000000000E+00 0.  1.
         11    1    3    3    0    0 -0.18633024318E+01 -0.90241883068E+01  0.11973068304E+02  0.15108349857E+02  0.51100000000E-03 0. -1.
        -11    1    3    3    0    0  0.13940164840E+01 -0.31723975693E+01 -0.27334062448E+01  0.44134904844E+01  0.51100000000E-03 0.  1.
         12    1    3    3    0    0 -0.90609737316E+01  0.38704672541E+01  0.29399893548E+02  0.31007023436E+02  0.00000000000E+00 0. -1.
</event>
<event>
 7    1  0.5913457E-013  0.5052887E+02  0.7816164E-02  0.1300439E+00
        -11   -1    0    0    0    0  0.00000000000E+00  0.00000000000E+00  0.45593999997E+02  0.45594000000E+02  0.51100000000E-03 0.  1.
         11   -1    0    0    0    0 -0.00000000000E+00 -0.00000000000E+00 -0.45593999997E+02  0.45594000000E+02  0.51100000000E-03 0. -1.
    9900012    2    1    2    0    0 -0.21499978728E+02  0.28657324892E+02 -0.19226904809E+02  0.50528865433E+02  0.30000016969E+02 0.  0.
        -12    1    1    2    0    0  0.21499978728E+02 -0.28657324892E+02  0.19226904809E+02  0.40659134567E+02  0.00000000000E+00 0.  1.
         11    1    3    3    0    0 -0.26349527366E+02  0.17548792776E+02 -0.65768267280E+01  0.32334383717E+02  0.51100000000E-03 0.  1.
        -11    1    3    3    0    0  0.17414863616E+01  0.93398904947E+01 -0.91314678826E+01  0.13177633898E+02  0.51100000000E-03 0. -1.
        -12    1    3    3    0    0  0.31080622763E+01  0.17686416209E+01 -0.35186101979E+01  0.50168478173E+01  0.00000000000E+00 0.  1.
</event>
<event>
 7    1  0.5913457E-013  0.5052886E+02  0.7816164E-02  0.1300439E+00
        -11   -1    0    0    0    0  0.00000000000E+00  0.00000000000E+00  0.45593999997E+02  0.45594000000E+02  0.51100000000E-03 0.  1.
         11   -1    0    0    0    0 -0.00000000000E+00 -0.00000000000E+00 -0.45593999997E+02  0.45594000000E+02  0.51100000000E-03 0. -1.
    9900012    2    1    2    0    0  0.95072301479E+01  0.28738050897E+02 -0.27145958332E+02  0.50528855294E+02  0.29999986152E+02 0.  0.
        -12    1    1    2    0    0 -0.95072301479E+01 -0.28738050897E+02  0.27145958332E+02  0.40659144706E+02  0.00000000000E+00 0.  1.
         11    1    3    3    0    0  0.10517542966E+02  0.48782292580E+01 -0.54052869263E+01  0.12791909856E+02  0.51100000000E-03 0. -1.
        -11    1    3    3    0    0  0.72129149292E+01  0.21965866754E+01 -0.38727742708E+01  0.84764093585E+01  0.51100000000E-03 0.  1.
        -12    1    3    3    0    0 -0.82232277475E+01  0.21663234964E+02 -0.17867897135E+02  0.29260536080E+02  0.00000000000E+00 0.  1.
</event>
<event>
 7    1  0.5913457E-013  0.5052887E+02  0.7816164E-02  0.1300439E+00
        -11   -1    0    0    0    0  0.00000000000E+00  0.00000000000E+00  0.45593999997E+02  0.45594000000E+02  0.51100000000E-03 0.  1.
         11   -1    0    0    0    0 -0.00000000000E+00 -0.00000000000E+00 -0.45593999997E+02  0.45594000000E+02  0.51100000000E-03 0. -1.
    9900012    2    1    2    0    0 -0.17228588375E+02  0.36828467077E+02  0.65850630069E-01  0.50528873337E+02  0.30000040997E+02 0.  0.
        -12    1    1    2    0    0  0.17228588375E+02 -0.36828467077E+02 -0.65850630069E-01  0.40659126663E+02  0.00000000000E+00 0.  1.
         11    1    3    3    0    0 -0.50485104933E+01  0.22550722560E+02  0.47367112148E+01  0.23589382772E+02  0.51100000000E-03 0. -1.
        -11    1    3    3    0    0 -0.82271552042E+01  0.11280846055E+02  0.59809017417E+01  0.15189297429E+02  0.51100000000E-03 0.  1.
        -12    1    3    3    0    0 -0.39529226777E+01  0.29968984620E+01 -0.10651762326E+02  0.11750193137E+02  0.00000000000E+00 0.  1.
</event>
<event>
 7    1  0.5913457E-013  0.5052888E+02  0.7816164E-02  0.1300439E+00
        -11   -1    0    0    0    0  0.00000000000E+00  0.00000000000E+00  0.45593999997E+02  0.45594000000E+02  0.51100000000E-03 0.  1.
         11   -1    0    0    0    0 -0.00000000000E+00 -0.00000000000E+00 -0.45593999997E+02  0.45594000000E+02  0.51100000000E-03 0. -1.
    9900012    2    1    2    0    0 -0.46590371172E+01 -0.31722665048E+02 -0.25002597269E+02  0.50528880792E+02  0.30000063654E+02 0.  0.
        -12    1    1    2    0    0  0.46590371172E+01  0.31722665048E+02  0.25002597269E+02  0.40659119208E+02  0.00000000000E+00 0.  1.
         11    1    3    3    0    0  0.11881735176E+01  0.15638581951E+01 -0.74524915908E+01  0.77069475108E+01  0.51100000000E-03 0. -1.
        -11    1    3    3    0    0  0.37400669311E+01  0.21799121399E+00 -0.38628398652E+01  0.53811850835E+01  0.51100000000E-03 0.  1.
         12    1    3    3    0    0 -0.95872775660E+01 -0.33504514457E+02 -0.13687265813E+02  0.37440748197E+02  0.00000000000E+00 0. -1.
</event>
<event>
 7    1  0.5913457E-013  0.5052886E+02  0.7816164E-02  0.1300439E+00
        -11   -1    0    0    0    0  0.00000000000E+00  0.00000000000E+00  0.45593999997E+02  0.45594000000E+02  0.51100000000E-03 0.  1.
         11   -1    0    0    0    0 -0.00000000000E+00 -0.00000000000E+00 -0.45593999997E+02  0.45594000000E+02  0.51100000000E-03 0. -1.
    9900012    2    1    2    0    0 -0.30794367382E+02  0.25133780086E+02 -0.85536988887E+01  0.50528859225E+02  0.29999998101E+02 0.  0.
        -12    1    1    2    0    0  0.30794367382E+02 -0.25133780086E+02  0.85536988887E+01  0.40659140775E+02  0.00000000000E+00 0.  1.
         11    1    3    3    0    0 -0.14285827577E+02  0.16108241265E+02  0.13114641982E+01  0.21570355696E+02  0.51100000000E-03 0. -1.
        -11    1    3    3    0    0 -0.20330629353E+02  0.91622136955E+01 -0.11139468922E+02  0.24927262542E+02  0.51100000000E-03 0.  1.
        -12    1    3    3    0    0  0.38220895488E+01 -0.13667487499E+00  0.12743058349E+01  0.40312409878E+01  0.00000000000E+00 0.  1.
</event>
<event>
 7    1  0.5913457E-013  0.5052887E+02  0.7816164E-02  0.1300439E+00
        -11   -1    0    0    0    0  0.00000000000E+00  0.00000000000E+00  0.45593999997E+02  0.45594000000E+02  0.51100000000E-03 0.  1.
         11   -1    0    0    0    0 -0.00000000000E+00 -0.00000000000E+00 -0.45593999997E+02  0.45594000000E+02  0.51100000000E-03 0. -1.
    9900012    2    1    2    0    0 -0.13855271421E+02  0.22149629158E+02 -0.31154298502E+02  0.50528869006E+02  0.30000027831E+02 0.  0.
        -12    1    1    2    0    0  0.13855271421E+02 -0.22149629158E+02  0.31154298502E+02  0.40659130994E+02  0.00000000000E+00 0.  1.
         11    1    3    3    0    0 -0.94797216089E+01  0.69255325291E+01 -0.64537604383E+01  0.13396982744E+02  0.51100000000E-03 0. -1.
        -11    1    3    3    0    0 -0.11727649651E+02  0.23524359083E+01 -0.15886564934E+02  0.19886042007E+02  0.51100000000E-03 0.  1.
        -12    1    3    3    0    0  0.73520998384E+01  0.12871660720E+02 -0.88139731302E+01  0.17245844255E+02  0.00000000000E+00 0.  1.
</event>
<event>
 7    1  0.5913457E-013  0.5052886E+02  0.7816164E-02  0.1300439E+00
        -11   -1    0    0    0    0  0.00000000000E+00  0.00000000000E+00  0.45593999997E+02  0.45594000000E+02  0.51100000000E-03 0.  1.
         11   -1    0    0    0    0 -0.00000000000E+00 -0.00000000000E+00 -0.45593999997E+02  0.45594000000E+02  0.51100000000E-03 0. -1.
    9900012    2    1    2    0    0  0.17673828330E+02  0.31719216934E+02 -0.18294615822E+02  0.50528857131E+02  0.29999991736E+02 0.  0.
        -12    1    1    2    0    0 -0.17673828330E+02 -0.31719216934E+02  0.18294615822E+02  0.40659142869E+02  0.00000000000E+00 0.  1.
         11    1    3    3    0    0  0.65305158697E+01  0.37465652771E+01  0.62519774777E-01  0.75291631595E+01  0.51100000000E-03 0. -1.
        -11    1    3    3    0    0  0.90305171557E+01  0.50218454582E+01  0.38185101417E+01  0.11015906312E+02  0.51100000000E-03 0.  1.
         12    1    3    3    0    0  0.21127953048E+01  0.22950806199E+02 -0.22175645738E+02  0.31983787660E+02  0.00000000000E+00 0. -1.
</event>
<event>
 7    1  0.5913457E-013  0.5052886E+02  0.7816164E-02  0.1300439E+00
        -11   -1    0    0    0    0  0.00000000000E+00  0.00000000000E+00  0.45593999997E+02  0.45594000000E+02  0.51100000000E-03 0.  1.
         11   -1    0    0    0    0 -0.00000000000E+00 -0.00000000000E+00 -0.45593999997E+02  0.45594000000E+02  0.51100000000E-03 0. -1.
    9900012    2    1    2    0    0 -0.11425151184E+02  0.39013376241E+02  0.76703450825E+00  0.50528856536E+02  0.29999989927E+02 0.  0.
        -12    1    1    2    0    0  0.11425151184E+02 -0.39013376241E+02 -0.76703450825E+00  0.40659143464E+02  0.00000000000E+00 0.  1.
         11    1    3    3    0    0 -0.86778069394E+01  0.72610587089E+01  0.12836845214E+01  0.11387499860E+02  0.51100000000E-03 0. -1.
        -11    1    3    3    0    0 -0.41657810772E+01  0.24785423379E+01  0.73420777853E+01  0.87978980768E+01  0.51100000000E-03 0.  1.
         12    1    3    3    0    0  0.14184368331E+01  0.29273775194E+02 -0.78587277985E+01  0.30343458599E+02  0.00000000000E+00 0. -1.
</event>
<event>
 7    1  0.5913457E-013  0.5052884E+02  0.7816164E-02  0.1300439E+00
        -11   -1    0    0    0    0  0.00000000000E+00  0.00000000000E+00  0.45593999997E+02  0.45594000000E+02  0.51100000000E-03 0.  1.
         11   -1    0    0    0    0 -0.00000000000E+00 -0.00000000000E+00 -0.45593999997E+02  0.45594000000E+02  0.51100000000E-03 0. -1.
    9900012    2    1    2    0    0 -0.74033179777E+01 -0.36880562928E+02 -0.15433143357E+02  0.50528844170E+02  0.29999952339E+02 0.  0.
        -12    1    1    2    0    0  0.74033179777E+01  0.36880562928E+02  0.15433143357E+02  0.40659155830E+02  0.00000000000E+00 0.  1.
         11    1    3    3    0    0  0.38853986778E+01 -0.14229796826E+02  0.16050349329E+01  0.14837775372E+02  0.51100000000E-03 0. -1.
        -11    1    3    3    0    0 -0.20630252587E+01 -0.20412344640E+02 -0.65318459434E+01  0.21531021773E+02  0.51100000000E-03 0.  1.
         12    1    3    3    0    0 -0.92256913968E+01 -0.22384214624E+01 -0.10506332346E+02  0.14160047025E+02  0.00000000000E+00 0. -1.
</event>
<event>
 7    1  0.5913457E-013  0.5052887E+02  0.7816164E-02  0.1300439E+00
        -11   -1    0    0    0    0  0.00000000000E+00  0.00000000000E+00  0.45593999997E+02  0.45594000000E+02  0.51100000000E-03 0.  1.
         11   -1    0    0    0    0 -0.00000000000E+00 -0.00000000000E+00 -0.45593999997E+02  0.45594000000E+02  0.51100000000E-03 0. -1.
    9900012    2    1    2    0    0 -0.12421441844E+02 -0.28616265486E+01 -0.38609377352E+02  0.50528866420E+02  0.30000019969E+02 0.  0.
        -12    1    1    2    0    0  0.12421441844E+02  0.28616265486E+01  0.38609377352E+02  0.40659133580E+02  0.00000000000E+00 0.  1.
         11    1    3    3    0    0 -0.67897675225E+00 -0.31465688817E+00  0.11122974061E+01  0.13406058959E+01  0.51100000000E-03 0. -1.
        -11    1    3    3    0    0 -0.18953134584E+01  0.86626905670E+01 -0.26945536623E+01  0.92679577397E+01  0.51100000000E-03 0.  1.
         12    1    3    3    0    0 -0.98471516336E+01 -0.11209660227E+02 -0.37027121096E+02  0.39920302784E+02  0.00000000000E+00 0. -1.
</event>
<event>
 7    1  0.5913457E-013  0.5052886E+02  0.7816164E-02  0.1300439E+00
        -11   -1    0    0    0    0  0.00000000000E+00  0.00000000000E+00  0.45593999997E+02  0.45594000000E+02  0.51100000000E-03 0.  1.
         11   -1    0    0    0    0 -0.00000000000E+00 -0.00000000000E+00 -0.45593999997E+02  0.45594000000E+02  0.51100000000E-03 0. -1.
    9900012    2    1    2    0    0 -0.19917240623E+02  0.24323948598E+02 -0.25784003732E+02  0.50528858372E+02  0.29999995508E+02 0.  0.
        -12    1    1    2    0    0  0.19917240623E+02 -0.24323948598E+02  0.25784003732E+02  0.40659141628E+02  0.00000000000E+00 0.  1.
         11    1    3    3    0    0 -0.58143932158E+01 -0.31347912153E+00 -0.34578106119E+01  0.67721408813E+01  0.51100000000E-03 0. -1.
        -11    1    3    3    0    0 -0.92472088939E+01  0.10832287717E+01 -0.16603455991E+02  0.19035729774E+02  0.51100000000E-03 0.  1.
        -12    1    3    3    0    0 -0.48556385137E+01  0.23554198948E+02 -0.57227371290E+01  0.24720987717E+02  0.00000000000E+00 0.  1.
</event>
<event>
 7    1  0.5913457E-013  0.5052887E+02  0.7816164E-02  0.1300439E+00
        -11   -1    0    0    0    0  0.00000000000E+00  0.00000000000E+00  0.45593999997E+02  0.45594000000E+02  0.51100000000E-03 0.  1.
         11   -1    0    0    0    0 -0.00000000000E+00 -0.00000000000E+00 -0.45593999997E+02  0.45594000000E+02  0.51100000000E-03 0. -1.
    9900012    2    1    2    0    0  0.33774855373E+02 -0.13955924453E+02 -0.17822906694E+02  0.50528872048E+02  0.30000037077E+02 0.  0.
        -12    1    1    2    0    0 -0.33774855373E+02  0.13955924453E+02  0.17822906694E+02  0.40659127952E+02  0.00000000000E+00 0.  1.
         11    1    3    3    0    0  0.77524465477E+01 -0.57068941889E+01 -0.66031951654E+01  0.11673527976E+02  0.51100000000E-03 0. -1.
        -11    1    3    3    0    0  0.20385942692E+02 -0.16430807577E+02 -0.12172624728E+02  0.28874398524E+02  0.51100000000E-03 0.  1.
        -12    1    3    3    0    0  0.56364661333E+01  0.81817773129E+01  0.95291319903E+00  0.99809455481E+01  0.00000000000E+00 0.  1.
</event>
<event>
 7    1  0.5913457E-013  0.5052887E+02  0.7816164E-02  0.1300439E+00
        -11   -1    0    0    0    0  0.00000000000E+00  0.00000000000E+00  0.45593999997E+02  0.45594000000E+02  0.51100000000E-03 0. -1.
         11   -1    0    0    0    0 -0.00000000000E+00 -0.00000000000E+00 -0.45593999997E+02  0.45594000000E+02  0.51100000000E-03 0.  1.
    9900012    2    1    2    0    0 -0.26950011784E+01 -0.29295456717E+02  0.28065604159E+02  0.50528868770E+02  0.30000027112E+02 0.  0.
        -12    1    1    2    0    0  0.26950011784E+01  0.29295456717E+02 -0.28065604159E+02  0.40659131230E+02  0.00000000000E+00 0.  1.
         11    1    3    3    0    0 -0.13581857785E+01 -0.21835761891E-01  0.20724622504E+01  0.24779518659E+01  0.51100000000E-03 0. -1.
        -11    1    3    3    0    0 -0.75889072612E+01  0.13151770601E+01  0.10968651907E+02  0.13402706034E+02  0.51100000000E-03 0.  1.
         12    1    3    3    0    0  0.62520918613E+01 -0.30588798015E+02  0.15024490002E+02  0.34648210869E+02  0.00000000000E+00 0. -1.
</event>
<event>
 7    1  0.5913457E-013  0.5052886E+02  0.7816164E-02  0.1300439E+00
        -11   -1    0    0    0    0  0.00000000000E+00  0.00000000000E+00  0.45593999997E+02  0.45594000000E+02  0.51100000000E-03 0.  1.
         11   -1    0    0    0    0 -0.00000000000E+00 -0.00000000000E+00 -0.45593999997E+02  0.45594000000E+02  0.51100000000E-03 0. -1.
    9900012    2    1    2    0    0  0.84777573438E+01 -0.56098084601E+01 -0.39367796993E+02  0.50528858831E+02  0.29999996903E+02 0.  0.
        -12    1    1    2    0    0 -0.84777573438E+01  0.56098084601E+01  0.39367796993E+02  0.40659141169E+02  0.00000000000E+00 0.  1.
         11    1    3    3    0    0 -0.73315407990E+01 -0.15385522127E+01 -0.10407508056E+02  0.12823215572E+02  0.51100000000E-03 0. -1.
        -11    1    3    3    0    0 -0.27973104836E+01 -0.46667318962E+01 -0.52549138326E+01  0.75642218491E+01  0.51100000000E-03 0.  1.
         12    1    3    3    0    0  0.18606608626E+02  0.59547564889E+00 -0.23705375104E+02  0.30141421410E+02  0.00000000000E+00 0. -1.
</event>
<event>
 7    1  0.5913457E-013  0.5052886E+02  0.7816164E-02  0.1300439E+00
        -11   -1    0    0    0    0  0.00000000000E+00  0.00000000000E+00  0.45593999997E+02  0.45594000000E+02  0.51100000000E-03 0.  1.
         11   -1    0    0    0    0 -0.00000000000E+00 -0.00000000000E+00 -0.45593999997E+02  0.45594000000E+02  0.51100000000E-03 0. -1.
    9900012    2    1    2    0    0  0.74852822104E+01  0.10763047641E+01 -0.39949693206E+02  0.50528857498E+02  0.29999992852E+02 0.  0.
        -12    1    1    2    0    0 -0.74852822104E+01 -0.10763047641E+01  0.39949693206E+02  0.40659142502E+02  0.00000000000E+00 0.  1.
         11    1    3    3    0    0 -0.13492835445E+01 -0.32741122592E+01 -0.21319275182E+02  0.21611382920E+02  0.51100000000E-03 0. -1.
        -11    1    3    3    0    0 -0.26287994240E+01 -0.17687039326E+01 -0.15132423774E+02  0.15460567569E+02  0.51100000000E-03 0.  1.
         12    1    3    3    0    0  0.11463365179E+02  0.61191209559E+01 -0.34979942502E+01  0.13456907010E+02  0.00000000000E+00 0. -1.
</event>
<event>
 7    1  0.5913457E-013  0.5052885E+02  0.7816164E-02  0.1300439E+00
        -11   -1    0    0    0    0  0.00000000000E+00  0.00000000000E+00  0.45593999997E+02  0.45594000000E+02  0.51100000000E-03 0.  1.
         11   -1    0    0    0    0 -0.00000000000E+00 -0.00000000000E+00 -0.45593999997E+02  0.45594000000E+02  0.51100000000E-03 0. -1.
    9900012    2    1    2    0    0 -0.20400639141E+02 -0.10394832435E+02 -0.33599517953E+02  0.50528853116E+02  0.29999979531E+02 0.  0.
        -12    1    1    2    0    0  0.20400639141E+02  0.10394832435E+02  0.33599517953E+02  0.40659146884E+02  0.00000000000E+00 0.  1.
         11    1    3    3    0    0 -0.15229910829E+01 -0.10008460200E+02 -0.78910599301E+01  0.12835793879E+02  0.51100000000E-03 0. -1.
        -11    1    3    3    0    0  0.33072968162E+01 -0.22856099626E+00  0.50289989978E+00  0.33531121260E+01  0.51100000000E-03 0.  1.
        -12    1    3    3    0    0 -0.22184944874E+02 -0.15781123842E+00 -0.26211357922E+02  0.34339947111E+02  0.00000000000E+00 0.  1.
</event>
<event>
 7    1  0.5913457E-013  0.5052886E+02  0.7816164E-02  0.1300439E+00
        -11   -1    0    0    0    0  0.00000000000E+00  0.00000000000E+00  0.45593999997E+02  0.45594000000E+02  0.51100000000E-03 0.  1.
         11   -1    0    0    0    0 -0.00000000000E+00 -0.00000000000E+00 -0.45593999997E+02  0.45594000000E+02  0.51100000000E-03 0. -1.
    9900012    2    1    2    0    0 -0.13139336676E+02  0.65113797003E+01 -0.37922626417E+02  0.50528857999E+02  0.29999994374E+02 0.  0.
        -12    1    1    2    0    0  0.13139336676E+02 -0.65113797003E+01  0.37922626417E+02  0.40659142001E+02  0.00000000000E+00 0.  1.
         11    1    3    3    0    0 -0.14884418424E+02 -0.28729858985E+01 -0.10626637462E+02  0.18512843753E+02  0.51100000000E-03 0. -1.
        -11    1    3    3    0    0  0.54948148425E-01 -0.23145077137E+01 -0.49162430467E-01  0.23156818567E+01  0.51100000000E-03 0.  1.
        -12    1    3    3    0    0  0.16901336003E+01  0.11698873313E+02 -0.27246826525E+02  0.29700332390E+02  0.00000000000E+00 0.  1.
</event>
<event>
 7    1  0.5913457E-013  0.5052886E+02  0.7816164E-02  0.1300439E+00
        -11   -1    0    0    0    0  0.00000000000E+00  0.00000000000E+00  0.45593999997E+02  0.45594000000E+02  0.51100000000E-03 0.  1.
         11   -1    0    0    0    0 -0.00000000000E+00 -0.00000000000E+00 -0.45593999997E+02  0.45594000000E+02  0.51100000000E-03 0. -1.
    9900012    2    1    2    0    0  0.14323362989E+02  0.30785628286E+02 -0.22366315775E+02  0.50528859360E+02  0.29999998509E+02 0.  0.
        -12    1    1    2    0    0 -0.14323362989E+02 -0.30785628286E+02  0.22366315775E+02  0.40659140640E+02  0.00000000000E+00 0.  1.
         11    1    3    3    0    0  0.26512500090E+01  0.15449977411E+02  0.38901924217E+01  0.16151301061E+02  0.51100000000E-03 0. -1.
        -11    1    3    3    0    0 -0.10580131470E+01 -0.84561991981E+00 -0.59947408191E+00  0.14811597834E+01  0.51100000000E-03 0.  1.
         12    1    3    3    0    0  0.12730126127E+02  0.16181270795E+02 -0.25657034114E+02  0.32896398515E+02  0.00000000000E+00 0. -1.
</event>
<event>
 7    1  0.5913457E-013  0.5052886E+02  0.7816164E-02  0.1300439E+00
        -11   -1    0    0    0    0  0.00000000000E+00  0.00000000000E+00  0.45593999997E+02  0.45594000000E+02  0.51100000000E-03 0.  1.
         11   -1    0    0    0    0 -0.00000000000E+00 -0.00000000000E+00 -0.45593999997E+02  0.45594000000E+02  0.51100000000E-03 0. -1.
    9900012    2    1    2    0    0 -0.26894731287E+02  0.30291685778E+02 -0.35004569122E+01  0.50528855925E+02  0.29999988071E+02 0.  0.
        -12    1    1    2    0    0  0.26894731287E+02 -0.30291685778E+02  0.35004569122E+01  0.40659144075E+02  0.00000000000E+00 0.  1.
         11    1    3    3    0    0 -0.67461389920E+01  0.97114695108E+01 -0.15479964240E+01  0.11925574391E+02  0.51100000000E-03 0. -1.
        -11    1    3    3    0    0 -0.15737317506E+02  0.18688547212E+02  0.94779366186E+01  0.26206034457E+02  0.51100000000E-03 0.  1.
        -12    1    3    3    0    0 -0.44112747897E+01  0.18916690554E+01 -0.11430397107E+02  0.12397247078E+02  0.00000000000E+00 0.  1.
</event>
<event>
 7    1  0.5913457E-013  0.5052883E+02  0.7816164E-02  0.1300439E+00
        -11   -1    0    0    0    0  0.00000000000E+00  0.00000000000E+00  0.45593999997E+02  0.45594000000E+02  0.51100000000E-03 0. -1.
         11   -1    0    0    0    0 -0.00000000000E+00 -0.00000000000E+00 -0.45593999997E+02  0.45594000000E+02  0.51100000000E-03 0.  1.
    9900012    2    1    2    0    0  0.14773042747E+02  0.35899429709E+02  0.12089503274E+02  0.50528832093E+02  0.29999915631E+02 0.  0.
        -12    1    1    2    0    0 -0.14773042747E+02 -0.35899429709E+02 -0.12089503274E+02  0.40659167907E+02  0.00000000000E+00 0.  1.
         11    1    3    3    0    0  0.39464124201E+01  0.11880139309E+02  0.30800658287E+01  0.12891806963E+02  0.51100000000E-03 0. -1.
        -11    1    3    3    0    0  0.17678554933E+02  0.20014445346E+02  0.15560754454E+01  0.26749405565E+02  0.51100000000E-03 0.  1.
        -12    1    3    3    0    0 -0.68519246057E+01  0.40048450539E+01  0.74533620003E+01  0.10887619566E+02  0.00000000000E+00 0.  1.
</event>
<event>
 7    1  0.5913457E-013  0.5052886E+02  0.7816164E-02  0.1300439E+00
        -11   -1    0    0    0    0  0.00000000000E+00  0.00000000000E+00  0.45593999997E+02  0.45594000000E+02  0.51100000000E-03 0.  1.
         11   -1    0    0    0    0 -0.00000000000E+00 -0.00000000000E+00 -0.45593999997E+02  0.45594000000E+02  0.51100000000E-03 0. -1.
    9900012    2    1    2    0    0 -0.13292668484E+02 -0.23636311368E+02 -0.30295139520E+02  0.50528859219E+02  0.29999998081E+02 0.  0.
        -12    1    1    2    0    0  0.13292668484E+02  0.23636311368E+02  0.30295139520E+02  0.40659140781E+02  0.00000000000E+00 0.  1.
         11    1    3    3    0    0 -0.12337200912E+02 -0.14272769113E+02 -0.86605823188E+01  0.20758712649E+02  0.51100000000E-03 0. -1.
        -11    1    3    3    0    0 -0.11258824270E+01 -0.81184238090E+01 -0.97750973538E-01  0.81967049414E+01  0.51100000000E-03 0.  1.
         12    1    3    3    0    0  0.17041485501E+00 -0.12451184459E+01 -0.21536806228E+02  0.21573441628E+02  0.00000000000E+00 0. -1.
</event>
<event>
 7    1  0.5913457E-013  0.5052886E+02  0.7816164E-02  0.1300439E+00
        -11   -1    0    0    0    0  0.00000000000E+00  0.00000000000E+00  0.45593999997E+02  0.45594000000E+02  0.51100000000E-03 0. -1.
         11   -1    0    0    0    0 -0.00000000000E+00 -0.00000000000E+00 -0.45593999997E+02  0.45594000000E+02  0.51100000000E-03 0.  1.
    9900012    2    1    2    0    0  0.10964662550E+02  0.19842763049E+01  0.39102485392E+02  0.50528861530E+02  0.30000005107E+02 0.  0.
        -12    1    1    2    0    0 -0.10964662550E+02 -0.19842763049E+01 -0.39102485392E+02  0.40659138470E+02  0.00000000000E+00 0.  1.
         11    1    3    3    0    0  0.31218058166E+01 -0.55772227343E+01  0.13322265851E+02  0.14776124413E+02  0.51100000000E-03 0. -1.
        -11    1    3    3    0    0  0.12292496242E+02 -0.32876186125E+01  0.10536548456E+02  0.16520676549E+02  0.51100000000E-03 0.  1.
         12    1    3    3    0    0 -0.44496395090E+01  0.10849117652E+02  0.15243671084E+02  0.19232060569E+02  0.00000000000E+00 0. -1.
</event>
<event>
 7    1  0.5913457E-013  0.5052886E+02  0.7816164E-02  0.1300439E+00
        -11   -1    0    0    0    0  0.00000000000E+00  0.00000000000E+00  0.45593999997E+02  0.45594000000E+02  0.51100000000E-03 0. -1.
         11   -1    0    0    0    0 -0.00000000000E+00 -0.00000000000E+00 -0.45593999997E+02  0.45594000000E+02  0.51100000000E-03 0.  1.
    9900012    2    1    2    0    0 -0.28452165935E+01  0.28897565536E+02  0.28460521030E+02  0.50528858240E+02  0.29999995105E+02 0.  0.
        -12    1    1    2    0    0  0.28452165935E+01 -0.28897565536E+02 -0.28460521030E+02  0.40659141760E+02  0.00000000000E+00 0.  1.
         11    1    3    3    0    0  0.87127300251E+01  0.88936901123E+01  0.49358194687E+01  0.13392972127E+02  0.51100000000E-03 0. -1.
        -11    1    3    3    0    0  0.24806172659E+01  0.53092879006E+01 -0.24175184530E+00  0.58651891911E+01  0.51100000000E-03 0.  1.
         12    1    3    3    0    0 -0.14038563884E+02  0.14694587523E+02  0.23766453407E+02  0.31270696922E+02  0.00000000000E+00 0. -1.
</event>
<event>
 7    1  0.5913457E-013  0.5052887E+02  0.7816164E-02  0.1300439E+00
        -11   -1    0    0    0    0  0.00000000000E+00  0.00000000000E+00  0.45593999997E+02  0.45594000000E+02  0.51100000000E-03 0. -1.
         11   -1    0    0    0    0 -0.00000000000E+00 -0.00000000000E+00 -0.45593999997E+02  0.45594000000E+02  0.51100000000E-03 0.  1.
    9900012    2    1    2    0    0  0.16348547325E+02  0.27076325092E+02  0.25549216214E+02  0.50528870284E+02  0.30000031717E+02 0.  0.
        -12    1    1    2    0    0 -0.16348547325E+02 -0.27076325092E+02 -0.25549216214E+02  0.40659129716E+02  0.00000000000E+00 0.  1.
         11    1    3    3    0    0  0.51711995853E+01  0.74438838879E+01  0.39099992634E+01  0.98712110194E+01  0.51100000000E-03 0. -1.
        -11    1    3    3    0    0  0.19691061902E+02  0.12959425917E+02  0.15621299663E+02  0.28279137935E+02  0.51100000000E-03 0.  1.
        -12    1    3    3    0    0 -0.85137141620E+01  0.66730152867E+01  0.60179172873E+01  0.12378521330E+02  0.00000000000E+00 0.  1.
</event>
<event>
 7    1  0.5913457E-013  0.5052886E+02  0.7816164E-02  0.1300439E+00
        -11   -1    0    0    0    0  0.00000000000E+00  0.00000000000E+00  0.45593999997E+02  0.45594000000E+02  0.51100000000E-03 0.  1.
         11   -1    0    0    0    0 -0.00000000000E+00 -0.00000000000E+00 -0.45593999997E+02  0.45594000000E+02  0.51100000000E-03 0. -1.
    9900012    2    1    2    0    0  0.99742687793E+01  0.31524524059E+02 -0.23661864974E+02  0.50528861926E+02  0.30000006312E+02 0.  0.
        -12    1    1    2    0    0 -0.99742687793E+01 -0.31524524059E+02  0.23661864974E+02  0.40659138074E+02  0.00000000000E+00 0.  1.
         11    1    3    3    0    0  0.11937452211E+02  0.20686520283E+02 -0.14614297014E+02  0.28000224360E+02  0.51100000000E-03 0. -1.
        -11    1    3    3    0    0  0.67226871912E+01  0.59677671881E+01  0.12439559591E+00  0.89902304091E+01  0.51100000000E-03 0.  1.
         12    1    3    3    0    0 -0.86858706229E+01  0.48702365877E+01 -0.91719635553E+01  0.13538407157E+02  0.00000000000E+00 0. -1.
</event>
<event>
 7    1  0.5913457E-013  0.5052886E+02  0.7816164E-02  0.1300439E+00
        -11   -1    0    0    0    0  0.00000000000E+00  0.00000000000E+00  0.45593999997E+02  0.45594000000E+02  0.51100000000E-03 0.  1.
         11   -1    0    0    0    0 -0.00000000000E+00 -0.00000000000E+00 -0.45593999997E+02  0.45594000000E+02  0.51100000000E-03 0. -1.
    9900012    2    1    2    0    0 -0.22609967505E+02  0.26908469574E+02 -0.20442342512E+02  0.50528859173E+02  0.29999997943E+02 0.  0.
        -12    1    1    2    0    0  0.22609967505E+02 -0.26908469574E+02  0.20442342512E+02  0.40659140827E+02  0.00000000000E+00 0.  1.
         11    1    3    3    0    0 -0.13616873979E+02  0.27217307356E+02 -0.12978116901E+02  0.33085232283E+02  0.51100000000E-03 0. -1.
        -11    1    3    3    0    0  0.13133504310E+01  0.13666384226E+01 -0.67123722615E+01  0.69748499318E+01  0.51100000000E-03 0.  1.
        -12    1    3    3    0    0 -0.10306443957E+02 -0.16754762042E+01 -0.75185334928E+00  0.10468776959E+02  0.00000000000E+00 0.  1.
</event>
<event>
 7    1  0.5913457E-013  0.5052888E+02  0.7816164E-02  0.1300439E+00
        -11   -1    0    0    0    0  0.00000000000E+00  0.00000000000E+00  0.45593999997E+02  0.45594000000E+02  0.51100000000E-03 0.  1.
         11   -1    0    0    0    0 -0.00000000000E+00 -0.00000000000E+00 -0.45593999997E+02  0.45594000000E+02  0.51100000000E-03 0. -1.
    9900012    2    1    2    0    0 -0.88306795417E+01  0.38983898117E+02 -0.74457108524E+01  0.50528882650E+02  0.30000069303E+02 0.  0.
        -12    1    1    2    0    0  0.88306795417E+01 -0.38983898117E+02  0.74457108524E+01  0.40659117350E+02  0.00000000000E+00 0.  1.
         11    1    3    3    0    0  0.14916114104E+01  0.11921593326E+01  0.36357835728E+01  0.41067104747E+01  0.51100000000E-03 0. -1.
        -11    1    3    3    0    0  0.16086504835E+01  0.23045565788E+01  0.49522706450E+01  0.56941831904E+01  0.51100000000E-03 0.  1.
         12    1    3    3    0    0 -0.11930941436E+02  0.35487182206E+02 -0.16033765070E+02  0.40727988985E+02  0.00000000000E+00 0. -1.
</event>
<event>
 7    1  0.5913457E-013  0.5052885E+02  0.7816164E-02  0.1300439E+00
        -11   -1    0    0    0    0  0.00000000000E+00  0.00000000000E+00  0.45593999997E+02  0.45594000000E+02  0.51100000000E-03 0.  1.
         11   -1    0    0    0    0 -0.00000000000E+00 -0.00000000000E+00 -0.45593999997E+02  0.45594000000E+02  0.51100000000E-03 0. -1.
    9900012    2    1    2    0    0 -0.32847011243E+02  0.10999144502E+02 -0.21289891674E+02  0.50528845866E+02  0.29999957494E+02 0.  0.
        -12    1    1    2    0    0  0.32847011243E+02 -0.10999144502E+02  0.21289891674E+02  0.40659154134E+02  0.00000000000E+00 0.  1.
         11    1    3    3    0    0 -0.45542027368E+01  0.89655180897E+01 -0.40274027416E+01  0.10832416641E+02  0.51100000000E-03 0. -1.
        -11    1    3    3    0    0 -0.99735297672E+01  0.98194225764E+01 -0.10701678314E+01  0.14037008770E+02  0.51100000000E-03 0.  1.
        -12    1    3    3    0    0 -0.18319278739E+02 -0.77857961639E+01 -0.16192321101E+02  0.25659420455E+02  0.00000000000E+00 0.  1.
</event>
<event>
 7    1  0.5913457E-013  0.5052886E+02  0.7816164E-02  0.1300439E+00
        -11   -1    0    0    0    0  0.00000000000E+00  0.00000000000E+00  0.45593999997E+02  0.45594000000E+02  0.51100000000E-03 0.  1.
         11   -1    0    0    0    0 -0.00000000000E+00 -0.00000000000E+00 -0.45593999997E+02  0.45594000000E+02  0.51100000000E-03 0. -1.
    9900012    2    1    2    0    0 -0.36000833843E+02 -0.53760004756E+01 -0.18116410892E+02  0.50528858812E+02  0.29999996846E+02 0.  0.
        -12    1    1    2    0    0  0.36000833843E+02  0.53760004756E+01  0.18116410892E+02  0.40659141188E+02  0.00000000000E+00 0.  1.
         11    1    3    3    0    0 -0.13963296163E+02 -0.54234765537E+01 -0.23456700689E+01  0.15162120762E+02  0.51100000000E-03 0. -1.
        -11    1    3    3    0    0 -0.12313838741E+02  0.10215821803E+01  0.42676891162E+01  0.13072391722E+02  0.51100000000E-03 0.  1.
         12    1    3    3    0    0 -0.97236989394E+01 -0.97410610214E+00 -0.20038429940E+02  0.22294346328E+02  0.00000000000E+00 0. -1.
</event>
<event>
 7    1  0.5913457E-013  0.5052883E+02  0.7816164E-02  0.1300439E+00
        -11   -1    0    0    0    0  0.00000000000E+00  0.00000000000E+00  0.45593999997E+02  0.45594000000E+02  0.51100000000E-03 0. -1.
         11   -1    0    0    0    0 -0.00000000000E+00 -0.00000000000E+00 -0.45593999997E+02  0.45594000000E+02  0.51100000000E-03 0.  1.
    9900012    2    1    2    0    0  0.29756411555E+02  0.18305812068E+02  0.20799558849E+02  0.50528825974E+02  0.29999897032E+02 0.  0.
        -12    1    1    2    0    0 -0.29756411555E+02 -0.18305812068E+02 -0.20799558849E+02  0.40659174026E+02  0.00000000000E+00 0.  1.
         11    1    3    3    0    0 -0.27972254278E+00 -0.15442849173E+00 -0.26725991486E-01  0.32063593021E+00  0.51100000000E-03 0. -1.
        -11    1    3    3    0    0 -0.51550657038E+01  0.35632897783E+01 -0.76952380690E+00  0.63137867881E+01  0.51100000000E-03 0.  1.
         12    1    3    3    0    0  0.35191199802E+02  0.14896950781E+02  0.21595808648E+02  0.43894403256E+02  0.00000000000E+00 0. -1.
</event>
<event>
 7    1  0.5913457E-013  0.5052885E+02  0.7816164E-02  0.1300439E+00
        -11   -1    0    0    0    0  0.00000000000E+00  0.00000000000E+00  0.45593999997E+02  0.45594000000E+02  0.51100000000E-03 0. -1.
         11   -1    0    0    0    0 -0.00000000000E+00 -0.00000000000E+00 -0.45593999997E+02  0.45594000000E+02  0.51100000000E-03 0.  1.
    9900012    2    1    2    0    0  0.36007909900E+02 -0.40921351411E+01  0.18435057685E+02  0.50528849772E+02  0.29999969367E+02 0.  0.
        -12    1    1    2    0    0 -0.36007909900E+02  0.40921351411E+01 -0.18435057685E+02  0.40659150228E+02  0.00000000000E+00 0.  1.
         11    1    3    3    0    0  0.70988982145E+01 -0.77707332777E+01 -0.15263477683E+01  0.10635242795E+02  0.51100000000E-03 0. -1.
        -11    1    3    3    0    0  0.16309485656E+01  0.12593080879E+01 -0.33481386927E+01  0.39313970864E+01  0.51100000000E-03 0.  1.
         12    1    3    3    0    0  0.27278063120E+02  0.24192900487E+01  0.23309544146E+02  0.35962209891E+02  0.00000000000E+00 0. -1.
</event>
<event>
 7    1  0.5913457E-013  0.5052886E+02  0.7816164E-02  0.1300439E+00
        -11   -1    0    0    0    0  0.00000000000E+00  0.00000000000E+00  0.45593999997E+02  0.45594000000E+02  0.51100000000E-03 0.  1.
         11   -1    0    0    0    0 -0.00000000000E+00 -0.00000000000E+00 -0.45593999997E+02  0.45594000000E+02  0.51100000000E-03 0. -1.
    9900012    2    1    2    0    0  0.74573568724E+01  0.13727821062E+02 -0.37537985139E+02  0.50528861163E+02  0.30000003992E+02 0.  0.
        -12    1    1    2    0    0 -0.74573568724E+01 -0.13727821062E+02  0.37537985139E+02  0.40659138837E+02  0.00000000000E+00 0.  1.
         11    1    3    3    0    0  0.79191355590E+01  0.18885591725E+02 -0.33948065674E+02  0.39646556547E+02  0.51100000000E-03 0. -1.
        -11    1    3    3    0    0  0.35835206318E+01 -0.10844939528E+01  0.57763504551E+00  0.37883254558E+01  0.51100000000E-03 0.  1.
        -12    1    3    3    0    0 -0.40452993183E+01 -0.40732767097E+01 -0.41675545110E+01  0.70939791606E+01  0.00000000000E+00 0.  1.
</event>
<event>
 7    1  0.5913457E-013  0.5052882E+02  0.7816164E-02  0.1300439E+00
        -11   -1    0    0    0    0  0.00000000000E+00  0.00000000000E+00  0.45593999997E+02  0.45594000000E+02  0.51100000000E-03 0. -1.
         11   -1    0    0    0    0 -0.00000000000E+00 -0.00000000000E+00 -0.45593999997E+02  0.45594000000E+02  0.51100000000E-03 0.  1.
    9900012    2    1    2    0    0 -0.12196035108E+02  0.36784618350E+02 -0.12301105655E+02  0.50528823670E+02  0.29999890027E+02 0.  0.
        -12    1    1    2    0    0  0.12196035108E+02 -0.36784618350E+02  0.12301105655E+02  0.40659176330E+02  0.00000000000E+00 0.  1.
         11    1    3    3    0    0 -0.68662694214E+01  0.13650270447E+02  0.25814373865E+01  0.15496430502E+02  0.51100000000E-03 0.  1.
        -11    1    3    3    0    0 -0.28221019754E+01  0.16873564815E+02  0.16400166457E+01  0.17186363896E+02  0.51100000000E-03 0. -1.
        -12    1    3    3    0    0 -0.25076637109E+01  0.62607830876E+01 -0.16522559687E+02  0.17846029272E+02  0.00000000000E+00 0.  1.
</event>
<event>
 7    1  0.5913457E-013  0.5052886E+02  0.7816164E-02  0.1300439E+00
        -11   -1    0    0    0    0  0.00000000000E+00  0.00000000000E+00  0.45593999997E+02  0.45594000000E+02  0.51100000000E-03 0.  1.
         11   -1    0    0    0    0 -0.00000000000E+00 -0.00000000000E+00 -0.45593999997E+02  0.45594000000E+02  0.51100000000E-03 0. -1.
    9900012    2    1    2    0    0  0.36879358153E+02 -0.10193690948E+02  0.13753811641E+02  0.50528859237E+02  0.29999998136E+02 0.  0.
        -12    1    1    2    0    0 -0.36879358153E+02  0.10193690948E+02 -0.13753811641E+02  0.40659140763E+02  0.00000000000E+00 0.  1.
         11    1    3    3    0    0  0.29957462120E+02 -0.11560478289E+02  0.88287158172E+01  0.33302258455E+02  0.51100000000E-03 0. -1.
        -11    1    3    3    0    0  0.61375300837E+00 -0.63108670533E+01  0.53469904980E+00  0.63631469459E+01  0.51100000000E-03 0.  1.
         12    1    3    3    0    0  0.63081430250E+01  0.76776543940E+01  0.43903967742E+01  0.10863453836E+02  0.00000000000E+00 0. -1.
</event>
<event>
 7    1  0.5913457E-013  0.5052887E+02  0.7816164E-02  0.1300439E+00
        -11   -1    0    0    0    0  0.00000000000E+00  0.00000000000E+00  0.45593999997E+02  0.45594000000E+02  0.51100000000E-03 0. -1.
         11   -1    0    0    0    0 -0.00000000000E+00 -0.00000000000E+00 -0.45593999997E+02  0.45594000000E+02  0.51100000000E-03 0.  1.
    9900012    2    1    2    0    0  0.12420598690E+02 -0.23163094702E+02  0.31022000728E+02  0.50528871171E+02  0.30000034410E+02 0.  0.
        -12    1    1    2    0    0 -0.12420598690E+02  0.23163094702E+02 -0.31022000728E+02  0.40659128829E+02  0.00000000000E+00 0.  1.
         11    1    3    3    0    0  0.91228138422E+01 -0.15330656658E+02  0.19464923430E+02  0.26403371193E+02  0.51100000000E-03 0. -1.
        -11    1    3    3    0    0 -0.49049325949E+01 -0.10153393315E+02  0.10722043029E+02  0.15559947512E+02  0.51100000000E-03 0.  1.
        -12    1    3    3    0    0  0.82027174430E+01  0.23209552713E+01  0.83503426906E+00  0.85655524662E+01  0.00000000000E+00 0.  1.
</event>
<event>
 7    1  0.5913457E-013  0.5052890E+02  0.7816164E-02  0.1300439E+00
        -11   -1    0    0    0    0  0.00000000000E+00  0.00000000000E+00  0.45593999997E+02  0.45594000000E+02  0.51100000000E-03 0.  1.
         11   -1    0    0    0    0 -0.00000000000E+00 -0.00000000000E+00 -0.45593999997E+02  0.45594000000E+02  0.51100000000E-03 0. -1.
    9900012    2    1    2    0    0 -0.11933722793E+02  0.90738416884E+01 -0.37794360356E+02  0.50528904862E+02  0.30000136819E+02 0.  0.
        -12    1    1    2    0    0  0.11933722793E+02 -0.90738416884E+01  0.37794360356E+02  0.40659095138E+02  0.00000000000E+00 0.  1.
         11    1    3    3    0    0 -0.11725046149E+02  0.94983751338E+01 -0.25332612765E+02  0.29486218936E+02  0.51100000000E-03 0. -1.
        -11    1    3    3    0    0 -0.21090383001E+01  0.60772843339E+01 -0.12730523975E+02  0.14263508277E+02  0.51100000000E-03 0.  1.
        -12    1    3    3    0    0  0.19003616555E+01 -0.65018177793E+01  0.26877638376E+00  0.67791776494E+01  0.00000000000E+00 0.  1.
</event>
<event>
 7    1  0.5913457E-013  0.5052886E+02  0.7816164E-02  0.1300439E+00
        -11   -1    0    0    0    0  0.00000000000E+00  0.00000000000E+00  0.45593999997E+02  0.45594000000E+02  0.51100000000E-03 0. -1.
         11   -1    0    0    0    0 -0.00000000000E+00 -0.00000000000E+00 -0.45593999997E+02  0.45594000000E+02  0.51100000000E-03 0.  1.
    9900012    2    1    2    0    0 -0.35517304291E+02  0.15116316638E+02 -0.12774339939E+02  0.50528859654E+02  0.29999999405E+02 0.  0.
        -12    1    1    2    0    0  0.35517304291E+02 -0.15116316638E+02  0.12774339939E+02  0.40659140346E+02  0.00000000000E+00 0.  1.
         11    1    3    3    0    0 -0.14352963666E+02  0.38800347860E+01 -0.12103378532E+02  0.19171698102E+02  0.51100000000E-03 0. -1.
        -11    1    3    3    0    0  0.27016450074E+01  0.50018258844E+01 -0.32626275295E+01  0.65545317591E+01  0.51100000000E-03 0.  1.
         12    1    3    3    0    0 -0.23865985632E+02  0.62344559675E+01  0.25916661224E+01  0.24802629794E+02  0.00000000000E+00 0. -1.
</event>
<event>
 7    1  0.5913457E-013  0.5052886E+02  0.7816164E-02  0.1300439E+00
        -11   -1    0    0    0    0  0.00000000000E+00  0.00000000000E+00  0.45593999997E+02  0.45594000000E+02  0.51100000000E-03 0.  1.
         11   -1    0    0    0    0 -0.00000000000E+00 -0.00000000000E+00 -0.45593999997E+02  0.45594000000E+02  0.51100000000E-03 0. -1.
    9900012    2    1    2    0    0 -0.31265746707E+02  0.14026238434E+02 -0.21883399887E+02  0.50528862376E+02  0.30000007678E+02 0.  0.
        -12    1    1    2    0    0  0.31265746707E+02 -0.14026238434E+02  0.21883399887E+02  0.40659137624E+02  0.00000000000E+00 0.  1.
         11    1    3    3    0    0 -0.95654740176E+01  0.72973203503E+01 -0.21708673789E+02  0.24819663483E+02  0.51100000000E-03 0. -1.
        -11    1    3    3    0    0 -0.12259434850E+02 -0.38448439551E+00 -0.45822948464E+01  0.13093471557E+02  0.51100000000E-03 0.  1.
        -12    1    3    3    0    0 -0.94408378390E+01  0.71134024794E+01  0.44075687488E+01  0.12615727336E+02  0.00000000000E+00 0.  1.
</event>
<event>
 7    1  0.5913457E-013  0.5052884E+02  0.7816164E-02  0.1300439E+00
        -11   -1    0    0    0    0  0.00000000000E+00  0.00000000000E+00  0.45593999997E+02  0.45594000000E+02  0.51100000000E-03 0.  1.
         11   -1    0    0    0    0 -0.00000000000E+00 -0.00000000000E+00 -0.45593999997E+02  0.45594000000E+02  0.51100000000E-03 0. -1.
    9900012    2    1    2    0    0 -0.16040071881E+02  0.13842777250E+02 -0.34702462094E+02  0.50528840351E+02  0.29999940732E+02 0.  0.
        -12    1    1    2    0    0  0.16040071881E+02 -0.13842777250E+02  0.34702462094E+02  0.40659159649E+02  0.00000000000E+00 0.  1.
         11    1    3    3    0    0  0.12454314436E+01 -0.78072730665E+00 -0.11744654943E+02  0.11836281282E+02  0.51100000000E-03 0. -1.
        -11    1    3    3    0    0 -0.77222744625E+01  0.47933400956E+01 -0.23262099021E+02  0.24974684848E+02  0.51100000000E-03 0.  1.
        -12    1    3    3    0    0 -0.95632288620E+01  0.98301644614E+01  0.30429186957E+00  0.13717874221E+02  0.00000000000E+00 0.  1.
</event>
<event>
 7    1  0.5913457E-013  0.5052886E+02  0.7816164E-02  0.1300439E+00
        -11   -1    0    0    0    0  0.00000000000E+00  0.00000000000E+00  0.45593999997E+02  0.45594000000E+02  0.51100000000E-03 0.  1.
         11   -1    0    0    0    0 -0.00000000000E+00 -0.00000000000E+00 -0.45593999997E+02  0.45594000000E+02  0.51100000000E-03 0. -1.
    9900012    2    1    2    0    0  0.23117836655E+02  0.19461576672E+02 -0.27202545471E+02  0.50528858122E+02  0.29999994747E+02 0.  0.
        -12    1    1    2    0    0 -0.23117836655E+02 -0.19461576672E+02  0.27202545471E+02  0.40659141878E+02  0.00000000000E+00 0.  1.
         11    1    3    3    0    0 -0.13365660419E+01  0.38237188255E+01 -0.60610215898E+01  0.72899394657E+01  0.51100000000E-03 0. -1.
        -11    1    3    3    0    0  0.15192317546E+02  0.16150686773E+02 -0.24800276166E+02  0.33267174419E+02  0.51100000000E-03 0.  1.
        -12    1    3    3    0    0  0.92620851503E+01 -0.51282892636E+00  0.36587522851E+01  0.99717442368E+01  0.00000000000E+00 0.  1.
</event>
<event>
 7    1  0.5913457E-013  0.5052885E+02  0.7816164E-02  0.1300439E+00
        -11   -1    0    0    0    0  0.00000000000E+00  0.00000000000E+00  0.45593999997E+02  0.45594000000E+02  0.51100000000E-03 0.  1.
         11   -1    0    0    0    0 -0.00000000000E+00 -0.00000000000E+00 -0.45593999997E+02  0.45594000000E+02  0.51100000000E-03 0. -1.
    9900012    2    1    2    0    0 -0.98112042858E+01  0.37657110742E+02 -0.11783395426E+02  0.50528854328E+02  0.29999983216E+02 0.  0.
        -12    1    1    2    0    0  0.98112042858E+01 -0.37657110742E+02  0.11783395426E+02  0.40659145672E+02  0.00000000000E+00 0.  1.
         11    1    3    3    0    0 -0.59886153358E+00  0.55363508267E+00 -0.54651395675E+01  0.55256581232E+01  0.51100000000E-03 0. -1.
        -11    1    3    3    0    0  0.12379410642E+00  0.16335440449E+02 -0.13430701290E+02  0.21148183776E+02  0.51100000000E-03 0.  1.
        -12    1    3    3    0    0 -0.93361368586E+01  0.20768035211E+02  0.71124454311E+01  0.23855012429E+02  0.00000000000E+00 0.  1.
</event>
<event>
 7    1  0.5913457E-013  0.5052886E+02  0.7816164E-02  0.1300439E+00
        -11   -1    0    0    0    0  0.00000000000E+00  0.00000000000E+00  0.45593999997E+02  0.45594000000E+02  0.51100000000E-03 0. -1.
         11   -1    0    0    0    0 -0.00000000000E+00 -0.00000000000E+00 -0.45593999997E+02  0.45594000000E+02  0.51100000000E-03 0.  1.
    9900012    2    1    2    0    0  0.19512440144E+02 -0.22104600092E+02  0.27996731463E+02  0.50528860336E+02  0.30000001476E+02 0.  0.
        -12    1    1    2    0    0 -0.19512440144E+02  0.22104600092E+02 -0.27996731463E+02  0.40659139664E+02  0.00000000000E+00 0.  1.
         11    1    3    3    0    0  0.12333279894E+02 -0.54403092629E+01  0.17925123795E+02  0.22428036498E+02  0.51100000000E-03 0. -1.
        -11    1    3    3    0    0  0.75929789231E+01 -0.72229432982E+01  0.14315359394E+02  0.17741300788E+02  0.51100000000E-03 0.  1.
        -12    1    3    3    0    0 -0.41381867287E+00 -0.94413475312E+01 -0.42437517259E+01  0.10359523049E+02  0.00000000000E+00 0.  1.
</event>
<event>
 7    1  0.5913457E-013  0.5052886E+02  0.7816164E-02  0.1300439E+00
        -11   -1    0    0    0    0  0.00000000000E+00  0.00000000000E+00  0.45593999997E+02  0.45594000000E+02  0.51100000000E-03 0.  1.
         11   -1    0    0    0    0 -0.00000000000E+00 -0.00000000000E+00 -0.45593999997E+02  0.45594000000E+02  0.51100000000E-03 0. -1.
    9900012    2    1    2    0    0 -0.28179252989E+02  0.18024649056E+01 -0.29254852439E+02  0.50528861175E+02  0.30000004026E+02 0.  0.
        -12    1    1    2    0    0  0.28179252989E+02 -0.18024649056E+01  0.29254852439E+02  0.40659138825E+02  0.00000000000E+00 0.  1.
         11    1    3    3    0    0 -0.39701458673E+01  0.24860157122E+00 -0.33547815684E+01  0.52036929753E+01  0.51100000000E-03 0. -1.
        -11    1    3    3    0    0  0.40716719784E+01 -0.14477585463E+01 -0.13724633213E+02  0.14388887191E+02  0.51100000000E-03 0.  1.
        -12    1    3    3    0    0 -0.28280779101E+02  0.30016218806E+01 -0.12175437658E+02  0.30936281008E+02  0.00000000000E+00 0.  1.
</event>
<event>
 7    1  0.5913457E-013  0.5052887E+02  0.7816164E-02  0.1300439E+00
        -11   -1    0    0    0    0  0.00000000000E+00  0.00000000000E+00  0.45593999997E+02  0.45594000000E+02  0.51100000000E-03 0. -1.
         11   -1    0    0    0    0 -0.00000000000E+00 -0.00000000000E+00 -0.45593999997E+02  0.45594000000E+02  0.51100000000E-03 0.  1.
    9900012    2    1    2    0    0 -0.64825625970E+01 -0.26885846223E+02  0.29804233634E+02  0.50528872028E+02  0.30000037016E+02 0.  0.
        -12    1    1    2    0    0  0.64825625970E+01  0.26885846223E+02 -0.29804233634E+02  0.40659127972E+02  0.00000000000E+00 0.  1.
         11    1    3    3    0    0 -0.56669849048E+01 -0.11123587067E+02  0.62531492859E+01  0.13962477696E+02  0.51100000000E-03 0. -1.
        -11    1    3    3    0    0 -0.11714186772E+02 -0.10883559576E+02  0.14465100091E+02  0.21561845043E+02  0.51100000000E-03 0.  1.
         12    1    3    3    0    0  0.10898609079E+02 -0.48786995797E+01  0.90859842571E+01  0.15004549289E+02  0.00000000000E+00 0. -1.
</event>
<event>
 7    1  0.5913457E-013  0.5052886E+02  0.7816164E-02  0.1300439E+00
        -11   -1    0    0    0    0  0.00000000000E+00  0.00000000000E+00  0.45593999997E+02  0.45594000000E+02  0.51100000000E-03 0. -1.
         11   -1    0    0    0    0 -0.00000000000E+00 -0.00000000000E+00 -0.45593999997E+02  0.45594000000E+02  0.51100000000E-03 0.  1.
    9900012    2    1    2    0    0 -0.19671562572E+02 -0.30115292942E+02  0.18954279313E+02  0.50528856535E+02  0.29999989924E+02 0.  0.
        -12    1    1    2    0    0  0.19671562572E+02  0.30115292942E+02 -0.18954279313E+02  0.40659143465E+02  0.00000000000E+00 0.  1.
         11    1    3    3    0    0 -0.87421486060E+00 -0.10663927551E+02 -0.34459087862E+01  0.11240902546E+02  0.51100000000E-03 0. -1.
        -11    1    3    3    0    0 -0.33164675982E+01 -0.52032026565E+01 -0.25276642747E+01  0.66679353747E+01  0.51100000000E-03 0.  1.
         12    1    3    3    0    0 -0.15480880113E+02 -0.14248162735E+02  0.24927852374E+02  0.32620018614E+02  0.00000000000E+00 0. -1.
</event>
<event>
 7    1  0.5913457E-013  0.5052885E+02  0.7816164E-02  0.1300439E+00
        -11   -1    0    0    0    0  0.00000000000E+00  0.00000000000E+00  0.45593999997E+02  0.45594000000E+02  0.51100000000E-03 0.  1.
         11   -1    0    0    0    0 -0.00000000000E+00 -0.00000000000E+00 -0.45593999997E+02  0.45594000000E+02  0.51100000000E-03 0. -1.
    9900012    2    1    2    0    0  0.37024892792E+02  0.12632683041E+02 -0.11078762244E+02  0.50528851707E+02  0.29999975247E+02 0.  0.
        -12    1    1    2    0    0 -0.37024892792E+02 -0.12632683041E+02  0.11078762244E+02  0.40659148293E+02  0.00000000000E+00 0.  1.
         11    1    3    3    0    0  0.54720219208E+01  0.58223754156E+01  0.61543994991E+01  0.10085619110E+02  0.51100000000E-03 0. -1.
        -11    1    3    3    0    0  0.21326387874E+01 -0.45253617253E+01 -0.16045014392E+01  0.52537103148E+01  0.51100000000E-03 0.  1.
         12    1    3    3    0    0  0.29420232084E+02  0.11335669350E+02 -0.15628660304E+02  0.35189522282E+02  0.00000000000E+00 0. -1.
</event>
<event>
 7    1  0.5913457E-013  0.5052883E+02  0.7816164E-02  0.1300439E+00
        -11   -1    0    0    0    0  0.00000000000E+00  0.00000000000E+00  0.45593999997E+02  0.45594000000E+02  0.51100000000E-03 0.  1.
         11   -1    0    0    0    0 -0.00000000000E+00 -0.00000000000E+00 -0.45593999997E+02  0.45594000000E+02  0.51100000000E-03 0. -1.
    9900012    2    1    2    0    0  0.59303419801E+01 -0.14970948990E+02 -0.37334561259E+02  0.50528834562E+02  0.29999923136E+02 0.  0.
        -12    1    1    2    0    0 -0.59303419801E+01  0.14970948990E+02  0.37334561259E+02  0.40659165438E+02  0.00000000000E+00 0.  1.
         11    1    3    3    0    0  0.21521854347E+01  0.93662378819E+00 -0.13076946141E+02  0.13285920627E+02  0.51100000000E-03 0. -1.
        -11    1    3    3    0    0 -0.72961499976E+01 -0.14265562486E+00 -0.13056651416E+02  0.14957616851E+02  0.51100000000E-03 0.  1.
         12    1    3    3    0    0  0.11074306543E+02 -0.15764917153E+02 -0.11200963702E+02  0.22285297084E+02  0.00000000000E+00 0. -1.
</event>
<event>
 7    1  0.5913457E-013  0.5052886E+02  0.7816164E-02  0.1300439E+00
        -11   -1    0    0    0    0  0.00000000000E+00  0.00000000000E+00  0.45593999997E+02  0.45594000000E+02  0.51100000000E-03 0. -1.
         11   -1    0    0    0    0 -0.00000000000E+00 -0.00000000000E+00 -0.45593999997E+02  0.45594000000E+02  0.51100000000E-03 0.  1.
    9900012    2    1    2    0    0 -0.10221712019E+02  0.31936209852E+02  0.22994798286E+02  0.50528860258E+02  0.30000001241E+02 0.  0.
        -12    1    1    2    0    0  0.10221712019E+02 -0.31936209852E+02 -0.22994798286E+02  0.40659139742E+02  0.00000000000E+00 0.  1.
         11    1    3    3    0    0  0.61570674138E+01  0.82028323007E+01  0.24751914436E+01  0.10550948291E+02  0.51100000000E-03 0. -1.
        -11    1    3    3    0    0 -0.95254701474E+01 -0.76315866195E-01  0.53166402580E+01  0.10909036141E+02  0.51100000000E-03 0.  1.
        -12    1    3    3    0    0 -0.68533092859E+01  0.23809693418E+02  0.15202966584E+02  0.29068875826E+02  0.00000000000E+00 0.  1.
</event>
<event>
 7    1  0.5913457E-013  0.5052886E+02  0.7816164E-02  0.1300439E+00
        -11   -1    0    0    0    0  0.00000000000E+00  0.00000000000E+00  0.45593999997E+02  0.45594000000E+02  0.51100000000E-03 0.  1.
         11   -1    0    0    0    0 -0.00000000000E+00 -0.00000000000E+00 -0.45593999997E+02  0.45594000000E+02  0.51100000000E-03 0. -1.
    9900012    2    1    2    0    0  0.13648607968E+02 -0.32831774048E+02 -0.19721969643E+02  0.50528856217E+02  0.29999988956E+02 0.  0.
        -12    1    1    2    0    0 -0.13648607968E+02  0.32831774048E+02  0.19721969643E+02  0.40659143783E+02  0.00000000000E+00 0.  1.
         11    1    3    3    0    0  0.39756263937E+01 -0.32376634923E+02 -0.20288245077E+02  0.38414385102E+02  0.51100000000E-03 0. -1.
        -11    1    3    3    0    0  0.31568546210E+00 -0.23501384935E+01 -0.72661340879E+00  0.24800757159E+01  0.51100000000E-03 0.  1.
        -12    1    3    3    0    0  0.93572961125E+01  0.18949993689E+01  0.12928888432E+01  0.96343953991E+01  0.00000000000E+00 0.  1.
</event>
<event>
 7    1  0.5913457E-013  0.5052885E+02  0.7816164E-02  0.1300439E+00
        -11   -1    0    0    0    0  0.00000000000E+00  0.00000000000E+00  0.45593999997E+02  0.45594000000E+02  0.51100000000E-03 0. -1.
         11   -1    0    0    0    0 -0.00000000000E+00 -0.00000000000E+00 -0.45593999997E+02  0.45594000000E+02  0.51100000000E-03 0.  1.
    9900012    2    1    2    0    0 -0.14696499802E+02  0.99544806152E+01  0.36579878962E+02  0.50528851760E+02  0.29999975408E+02 0.  0.
        -12    1    1    2    0    0  0.14696499802E+02 -0.99544806152E+01 -0.36579878962E+02  0.40659148240E+02  0.00000000000E+00 0.  1.
         11    1    3    3    0    0 -0.82685117616E+01  0.64196264332E+01  0.14265241088E+02  0.17693981854E+02  0.51100000000E-03 0. -1.
        -11    1    3    3    0    0 -0.12980112140E+02  0.39937605185E+01  0.52679223657E+01  0.14566552116E+02  0.51100000000E-03 0.  1.
        -12    1    3    3    0    0  0.65521240989E+01 -0.45890633646E+00  0.17046715508E+02  0.18268317789E+02  0.00000000000E+00 0.  1.
</event>
<event>
 7    1  0.5913457E-013  0.5052886E+02  0.7816164E-02  0.1300439E+00
        -11   -1    0    0    0    0  0.00000000000E+00  0.00000000000E+00  0.45593999997E+02  0.45594000000E+02  0.51100000000E-03 0. -1.
         11   -1    0    0    0    0 -0.00000000000E+00 -0.00000000000E+00 -0.45593999997E+02  0.45594000000E+02  0.51100000000E-03 0.  1.
    9900012    2    1    2    0    0 -0.11179384655E+02  0.11439839781E+02  0.37380700176E+02  0.50528864235E+02  0.30000013329E+02 0.  0.
        -12    1    1    2    0    0  0.11179384655E+02 -0.11439839781E+02 -0.37380700176E+02  0.40659135765E+02  0.00000000000E+00 0.  1.
         11    1    3    3    0    0  0.75831588240E+01  0.61172817759E+01  0.12917454807E+02  0.16179804480E+02  0.51100000000E-03 0. -1.
        -11    1    3    3    0    0 -0.42381636052E+01  0.28326340749E+01  0.17162289584E+02  0.17903352496E+02  0.51100000000E-03 0.  1.
        -12    1    3    3    0    0 -0.14524379873E+02  0.24899239305E+01  0.73009557853E+01  0.16445707259E+02  0.00000000000E+00 0.  1.
</event>
<event>
 7    1  0.5913457E-013  0.5052887E+02  0.7816164E-02  0.1300439E+00
        -11   -1    0    0    0    0  0.00000000000E+00  0.00000000000E+00  0.45593999997E+02  0.45594000000E+02  0.51100000000E-03 0.  1.
         11   -1    0    0    0    0 -0.00000000000E+00 -0.00000000000E+00 -0.45593999997E+02  0.45594000000E+02  0.51100000000E-03 0. -1.
    9900012    2    1    2    0    0  0.13160588484E+02  0.37654453325E+02 -0.78807479379E+01  0.50528866555E+02  0.30000020380E+02 0.  0.
        -12    1    1    2    0    0 -0.13160588484E+02 -0.37654453325E+02  0.78807479379E+01  0.40659133445E+02  0.00000000000E+00 0.  1.
         11    1    3    3    0    0  0.97203511126E+01  0.50602786927E+01 -0.63114503536E+01  0.12646187253E+02  0.51100000000E-03 0. -1.
        -11    1    3    3    0    0  0.10774030899E+02  0.13084489210E+02 -0.17481101484E+01  0.17039351192E+02  0.51100000000E-03 0.  1.
         12    1    3    3    0    0 -0.73337935271E+01  0.19509685423E+02  0.17881256411E+00  0.20843328111E+02  0.00000000000E+00 0. -1.
</event>
<event>
 7    1  0.5913457E-013  0.5052885E+02  0.7816164E-02  0.1300439E+00
        -11   -1    0    0    0    0  0.00000000000E+00  0.00000000000E+00  0.45593999997E+02  0.45594000000E+02  0.51100000000E-03 0.  1.
         11   -1    0    0    0    0 -0.00000000000E+00 -0.00000000000E+00 -0.45593999997E+02  0.45594000000E+02  0.51100000000E-03 0. -1.
    9900012    2    1    2    0    0 -0.99173993453E+00  0.23402498136E+02 -0.33234104226E+02  0.50528854032E+02  0.29999982317E+02 0.  0.
        -12    1    1    2    0    0  0.99173993453E+00 -0.23402498136E+02  0.33234104226E+02  0.40659145968E+02  0.00000000000E+00 0.  1.
         11    1    3    3    0    0 -0.71893908397E+00 -0.32583412441E+01  0.18181082489E+01  0.37998919636E+01  0.51100000000E-03 0. -1.
        -11    1    3    3    0    0  0.51131373635E+01  0.44709488851E+01 -0.31248912621E+01  0.74765301639E+01  0.51100000000E-03 0.  1.
         12    1    3    3    0    0 -0.53859382140E+01  0.22189890495E+02 -0.31927321213E+02  0.39252431905E+02  0.00000000000E+00 0. -1.
</event>
<event>
 7    1  0.5913457E-013  0.5052889E+02  0.7816164E-02  0.1300439E+00
        -11   -1    0    0    0    0  0.00000000000E+00  0.00000000000E+00  0.45593999997E+02  0.45594000000E+02  0.51100000000E-03 0. -1.
         11   -1    0    0    0    0 -0.00000000000E+00 -0.00000000000E+00 -0.45593999997E+02  0.45594000000E+02  0.51100000000E-03 0.  1.
    9900012    2    1    2    0    0 -0.56174196316E+01  0.25072416834E+02  0.31511607174E+02  0.50528894305E+02  0.30000104730E+02 0.  0.
        -12    1    1    2    0    0  0.56174196316E+01 -0.25072416834E+02 -0.31511607174E+02  0.40659105695E+02  0.00000000000E+00 0.  1.
         11    1    3    3    0    0 -0.37055329276E+01  0.27352194640E+02  0.27505382345E+02  0.38966903701E+02  0.51100000000E-03 0. -1.
        -11    1    3    3    0    0 -0.12245472315E+01  0.12133987503E+01  0.68134805436E+01  0.70281839637E+01  0.51100000000E-03 0.  1.
         12    1    3    3    0    0 -0.68733947257E+00 -0.34931765564E+01 -0.28072557140E+01  0.45338066400E+01  0.00000000000E+00 0. -1.
</event>
<event>
 7    1  0.5913457E-013  0.5052886E+02  0.7816164E-02  0.1300439E+00
        -11   -1    0    0    0    0  0.00000000000E+00  0.00000000000E+00  0.45593999997E+02  0.45594000000E+02  0.51100000000E-03 0.  1.
         11   -1    0    0    0    0 -0.00000000000E+00 -0.00000000000E+00 -0.45593999997E+02  0.45594000000E+02  0.51100000000E-03 0. -1.
    9900012    2    1    2    0    0  0.31504192919E+02 -0.25154392969E+02 -0.52828236144E+01  0.50528857332E+02  0.29999992347E+02 0.  0.
        -12    1    1    2    0    0 -0.31504192919E+02  0.25154392969E+02  0.52828236144E+01  0.40659142668E+02  0.00000000000E+00 0.  1.
         11    1    3    3    0    0  0.20541547477E+01 -0.92694033657E+01  0.44247122005E+01  0.10474706144E+02  0.51100000000E-03 0. -1.
        -11    1    3    3    0    0  0.15466141315E+02 -0.18956083325E+01  0.38788930360E+01  0.16057417899E+02  0.51100000000E-03 0.  1.
         12    1    3    3    0    0  0.13983896856E+02 -0.13989381271E+02 -0.13586428851E+02  0.23996733289E+02  0.00000000000E+00 0. -1.
</event>
<event>
 7    1  0.5913457E-013  0.5052886E+02  0.7816164E-02  0.1300439E+00
        -11   -1    0    0    0    0  0.00000000000E+00  0.00000000000E+00  0.45593999997E+02  0.45594000000E+02  0.51100000000E-03 0.  1.
         11   -1    0    0    0    0 -0.00000000000E+00 -0.00000000000E+00 -0.45593999997E+02  0.45594000000E+02  0.51100000000E-03 0. -1.
    9900012    2    1    2    0    0  0.13385022714E+02  0.26788906600E+02 -0.27502025783E+02  0.50528858690E+02  0.29999996475E+02 0.  0.
        -12    1    1    2    0    0 -0.13385022714E+02 -0.26788906600E+02  0.27502025783E+02  0.40659141310E+02  0.00000000000E+00 0.  1.
         11    1    3    3    0    0  0.82467900259E+00 -0.34077270255E+00  0.18997723233E+01  0.20988941454E+01  0.51100000000E-03 0. -1.
        -11    1    3    3    0    0 -0.15576786300E+01  0.15835037239E+02 -0.26336807260E+01  0.16127958380E+02  0.51100000000E-03 0.  1.
         12    1    3    3    0    0  0.14118022341E+02  0.11294642063E+02 -0.26768117381E+02  0.32302006165E+02  0.00000000000E+00 0. -1.
</event>
<event>
 7    1  0.5913457E-013  0.5052875E+02  0.7816164E-02  0.1300439E+00
        -11   -1    0    0    0    0  0.00000000000E+00  0.00000000000E+00  0.45593999997E+02  0.45594000000E+02  0.51100000000E-03 0.  1.
         11   -1    0    0    0    0 -0.00000000000E+00 -0.00000000000E+00 -0.45593999997E+02  0.45594000000E+02  0.51100000000E-03 0. -1.
    9900012    2    1    2    0    0 -0.11584772029E+02 -0.37879330627E+02 -0.91718960913E+01  0.50528753701E+02  0.29999677348E+02 0.  0.
        -12    1    1    2    0    0  0.11584772029E+02  0.37879330627E+02  0.91718960913E+01  0.40659246299E+02  0.00000000000E+00 0.  1.
         11    1    3    3    0    0 -0.91614985371E+01 -0.29774012865E+01 -0.32977951554E+01  0.10182014880E+02  0.51100000000E-03 0. -1.
        -11    1    3    3    0    0  0.64228180576E+00  0.22568842036E+00 -0.50296361720E+01  0.50755001197E+01  0.51100000000E-03 0.  1.
         12    1    3    3    0    0 -0.30655552977E+01 -0.35127617760E+02 -0.84446476393E+00  0.35271238702E+02  0.00000000000E+00 0. -1.
</event>
<event>
 7    1  0.5913457E-013  0.5052885E+02  0.7816164E-02  0.1300439E+00
        -11   -1    0    0    0    0  0.00000000000E+00  0.00000000000E+00  0.45593999997E+02  0.45594000000E+02  0.51100000000E-03 0.  1.
         11   -1    0    0    0    0 -0.00000000000E+00 -0.00000000000E+00 -0.45593999997E+02  0.45594000000E+02  0.51100000000E-03 0. -1.
    9900012    2    1    2    0    0 -0.14228347925E+02  0.34437044714E+02 -0.16272992129E+02  0.50528853352E+02  0.29999980249E+02 0.  0.
        -12    1    1    2    0    0  0.14228347925E+02 -0.34437044714E+02  0.16272992129E+02  0.40659146648E+02  0.00000000000E+00 0.  1.
         11    1    3    3    0    0  0.57173956868E+01  0.75272237610E+01  0.12140319019E+01  0.95300359237E+01  0.51100000000E-03 0. -1.
        -11    1    3    3    0    0 -0.51153580612E+01 -0.77366666221E-01 -0.65707448917E+01  0.83275183811E+01  0.51100000000E-03 0.  1.
         12    1    3    3    0    0 -0.14830385550E+02  0.26987187620E+02 -0.10916279139E+02  0.32671299047E+02  0.00000000000E+00 0. -1.
</event>
<event>
 7    1  0.5913457E-013  0.5052886E+02  0.7816164E-02  0.1300439E+00
        -11   -1    0    0    0    0  0.00000000000E+00  0.00000000000E+00  0.45593999997E+02  0.45594000000E+02  0.51100000000E-03 0. -1.
         11   -1    0    0    0    0 -0.00000000000E+00 -0.00000000000E+00 -0.45593999997E+02  0.45594000000E+02  0.51100000000E-03 0.  1.
    9900012    2    1    2    0    0 -0.29696505278E+01  0.36769353733E+01  0.40383502547E+02  0.50528856429E+02  0.29999989601E+02 0.  0.
        -12    1    1    2    0    0  0.29696505278E+01 -0.36769353733E+01 -0.40383502547E+02  0.40659143571E+02  0.00000000000E+00 0.  1.
         11    1    3    3    0    0 -0.68845932428E+01  0.27536572447E+01  0.91291183216E+01  0.11760997149E+02  0.51100000000E-03 0. -1.
        -11    1    3    3    0    0 -0.17547323714E+01  0.79381996022E+01  0.28036410583E+02  0.29191341477E+02  0.51100000000E-03 0.  1.
        -12    1    3    3    0    0  0.56696750863E+01 -0.70149214736E+01  0.32179736422E+01  0.95765178028E+01  0.00000000000E+00 0.  1.
</event>
<event>
 7    1  0.5913457E-013  0.5052886E+02  0.7816164E-02  0.1300439E+00
        -11   -1    0    0    0    0  0.00000000000E+00  0.00000000000E+00  0.45593999997E+02  0.45594000000E+02  0.51100000000E-03 0. -1.
         11   -1    0    0    0    0 -0.00000000000E+00 -0.00000000000E+00 -0.45593999997E+02  0.45594000000E+02  0.51100000000E-03 0.  1.
    9900012    2    1    2    0    0 -0.33912383652E+02 -0.21792417558E+02  0.53109797858E+01  0.50528859154E+02  0.29999997886E+02 0.  0.
        -12    1    1    2    0    0  0.33912383652E+02  0.21792417558E+02 -0.53109797858E+01  0.40659140846E+02  0.00000000000E+00 0.  1.
         11    1    3    3    0    0 -0.16516141878E+02 -0.19111286757E+02  0.83624975024E+01  0.26607434840E+02  0.51100000000E-03 0. -1.
        -11    1    3    3    0    0 -0.17930231981E+02 -0.56149334778E+01  0.10872462268E+01  0.18820276339E+02  0.51100000000E-03 0.  1.
        -12    1    3    3    0    0  0.53399020722E+00  0.29338026761E+01 -0.41387639434E+01  0.51011479750E+01  0.00000000000E+00 0.  1.
</event>
<event>
 7    1  0.5913457E-013  0.5052886E+02  0.7816164E-02  0.1300439E+00
        -11   -1    0    0    0    0  0.00000000000E+00  0.00000000000E+00  0.45593999997E+02  0.45594000000E+02  0.51100000000E-03 0. -1.
         11   -1    0    0    0    0 -0.00000000000E+00 -0.00000000000E+00 -0.45593999997E+02  0.45594000000E+02  0.51100000000E-03 0.  1.
    9900012    2    1    2    0    0  0.26920423375E+02 -0.57518449840E+01  0.29922782279E+02  0.50528858165E+02  0.29999994879E+02 0.  0.
        -12    1    1    2    0    0 -0.26920423375E+02  0.57518449840E+01 -0.29922782279E+02  0.40659141835E+02  0.00000000000E+00 0.  1.
         11    1    3    3    0    0  0.27470384340E+01 -0.44425305639E+01  0.36099184185E+01  0.63493156497E+01  0.51100000000E-03 0. -1.
        -11    1    3    3    0    0  0.25330113613E+02 -0.94670095122E+01  0.18059385058E+02  0.32517384791E+02  0.51100000000E-03 0.  1.
         12    1    3    3    0    0 -0.11567286719E+01  0.81576950922E+01  0.82534788031E+01  0.11662157724E+02  0.00000000000E+00 0. -1.
</event>
<event>
 7    1  0.5913457E-013  0.5052886E+02  0.7816164E-02  0.1300439E+00
        -11   -1    0    0    0    0  0.00000000000E+00  0.00000000000E+00  0.45593999997E+02  0.45594000000E+02  0.51100000000E-03 0.  1.
         11   -1    0    0    0    0 -0.00000000000E+00 -0.00000000000E+00 -0.45593999997E+02  0.45594000000E+02  0.51100000000E-03 0. -1.
    9900012    2    1    2    0    0 -0.16202832449E+02  0.17830710172E+02 -0.32752096829E+02  0.50528857715E+02  0.29999993512E+02 0.  0.
        -12    1    1    2    0    0  0.16202832449E+02 -0.17830710172E+02  0.32752096829E+02  0.40659142285E+02  0.00000000000E+00 0.  1.
         11    1    3    3    0    0 -0.11515834277E+02  0.17043190167E+02 -0.11709847591E+02  0.23668656511E+02  0.51100000000E-03 0. -1.
        -11    1    3    3    0    0 -0.50459967164E+00  0.77342288487E+01 -0.61138427288E+01  0.98717774431E+01  0.51100000000E-03 0.  1.
        -12    1    3    3    0    0 -0.41823985004E+01 -0.69467088439E+01 -0.14928406510E+02  0.16988423761E+02  0.00000000000E+00 0.  1.
</event>
<event>
 7    1  0.5913457E-013  0.5052883E+02  0.7816164E-02  0.1300439E+00
        -11   -1    0    0    0    0  0.00000000000E+00  0.00000000000E+00  0.45593999997E+02  0.45594000000E+02  0.51100000000E-03 0. -1.
         11   -1    0    0    0    0 -0.00000000000E+00 -0.00000000000E+00 -0.45593999997E+02  0.45594000000E+02  0.51100000000E-03 0.  1.
    9900012    2    1    2    0    0 -0.24751747566E+02 -0.25183802940E+02  0.20156763831E+02  0.50528830478E+02  0.29999910721E+02 0.  0.
        -12    1    1    2    0    0  0.24751747566E+02  0.25183802940E+02 -0.20156763831E+02  0.40659169522E+02  0.00000000000E+00 0.  1.
         11    1    3    3    0    0 -0.18958894525E+02 -0.12869547229E+02  0.12177751091E+02  0.25949230227E+02  0.51100000000E-03 0. -1.
        -11    1    3    3    0    0  0.10252004166E+01 -0.11768952866E+02 -0.24911295944E+01  0.12073318284E+02  0.51100000000E-03 0.  1.
         12    1    3    3    0    0 -0.68180534569E+01 -0.54530284447E+00  0.10470142334E+02  0.12506281967E+02  0.00000000000E+00 0. -1.
</event>
<event>
 7    1  0.5913457E-013  0.5052889E+02  0.7816164E-02  0.1300439E+00
        -11   -1    0    0    0    0  0.00000000000E+00  0.00000000000E+00  0.45593999997E+02  0.45594000000E+02  0.51100000000E-03 0. -1.
         11   -1    0    0    0    0 -0.00000000000E+00 -0.00000000000E+00 -0.45593999997E+02  0.45594000000E+02  0.51100000000E-03 0.  1.
    9900012    2    1    2    0    0  0.38452371570E+02 -0.13212772867E+02 -0.34613134582E-01  0.50528887316E+02  0.30000083486E+02 0.  0.
        -12    1    1    2    0    0 -0.38452371570E+02  0.13212772867E+02  0.34613134582E-01  0.40659112684E+02  0.00000000000E+00 0.  1.
         11    1    3    3    0    0 -0.21160510072E+01 -0.74950115059E+00 -0.23358900921E+01  0.32397232326E+01  0.51100000000E-03 0. -1.
        -11    1    3    3    0    0 -0.74825638842E+00  0.17902516357E+01  0.30053655128E+01  0.35773049449E+01  0.51100000000E-03 0.  1.
         12    1    3    3    0    0  0.41316678965E+02 -0.14253523352E+02 -0.70408855526E+00  0.43711859139E+02  0.00000000000E+00 0. -1.
</event>
<event>
 7    1  0.5913457E-013  0.5052887E+02  0.7816164E-02  0.1300439E+00
        -11   -1    0    0    0    0  0.00000000000E+00  0.00000000000E+00  0.45593999997E+02  0.45594000000E+02  0.51100000000E-03 0.  1.
         11   -1    0    0    0    0 -0.00000000000E+00 -0.00000000000E+00 -0.45593999997E+02  0.45594000000E+02  0.51100000000E-03 0. -1.
    9900012    2    1    2    0    0  0.29118095719E+02  0.11656462658E+02 -0.25873311510E+02  0.50528869802E+02  0.30000030250E+02 0.  0.
        -12    1    1    2    0    0 -0.29118095719E+02 -0.11656462658E+02  0.25873311510E+02  0.40659130198E+02  0.00000000000E+00 0.  1.
         11    1    3    3    0    0  0.56329365184E+01  0.79802642787E+01 -0.12608839373E+02  0.15949840826E+02  0.51100000000E-03 0. -1.
        -11    1    3    3    0    0 -0.33988978412E+01  0.32363942717E+01 -0.39164121599E+01  0.61126948954E+01  0.51100000000E-03 0.  1.
         12    1    3    3    0    0  0.26884057041E+02  0.43980410785E+00 -0.93480599764E+01  0.28466334080E+02  0.00000000000E+00 0. -1.
</event>
<event>
 7    1  0.5913457E-013  0.5052887E+02  0.7816164E-02  0.1300439E+00
        -11   -1    0    0    0    0  0.00000000000E+00  0.00000000000E+00  0.45593999997E+02  0.45594000000E+02  0.51100000000E-03 0. -1.
         11   -1    0    0    0    0 -0.00000000000E+00 -0.00000000000E+00 -0.45593999997E+02  0.45594000000E+02  0.51100000000E-03 0.  1.
    9900012    2    1    2    0    0  0.30245922592E+02  0.19775074971E+02 -0.18635861914E+02  0.50528870978E+02  0.30000033824E+02 0.  0.
        -12    1    1    2    0    0 -0.30245922592E+02 -0.19775074971E+02  0.18635861914E+02  0.40659129022E+02  0.00000000000E+00 0.  1.
         11    1    3    3    0    0  0.59474561397E+01 -0.19302520804E+01  0.50493279841E+01  0.80370281186E+01  0.51100000000E-03 0. -1.
        -11    1    3    3    0    0  0.96898563311E+01  0.36468428588E+01 -0.16668308378E+01  0.10486710822E+02  0.51100000000E-03 0.  1.
        -12    1    3    3    0    0  0.14608610122E+02  0.18058484192E+02 -0.22018359060E+02  0.32005132037E+02  0.00000000000E+00 0.  1.
</event>
<event>
 7    1  0.5913457E-013  0.5052886E+02  0.7816164E-02  0.1300439E+00
        -11   -1    0    0    0    0  0.00000000000E+00  0.00000000000E+00  0.45593999997E+02  0.45594000000E+02  0.51100000000E-03 0.  1.
         11   -1    0    0    0    0 -0.00000000000E+00 -0.00000000000E+00 -0.45593999997E+02  0.45594000000E+02  0.51100000000E-03 0. -1.
    9900012    2    1    2    0    0  0.29872341376E+02  0.28392068847E+01 -0.27436255232E+02  0.50528856180E+02  0.29999988846E+02 0.  0.
        -12    1    1    2    0    0 -0.29872341376E+02 -0.28392068847E+01  0.27436255232E+02  0.40659143820E+02  0.00000000000E+00 0.  1.
         11    1    3    3    0    0  0.13969921761E+02 -0.55702313361E+00 -0.10476128151E+02  0.17470496561E+02  0.51100000000E-03 0. -1.
        -11    1    3    3    0    0  0.14373734495E+02 -0.80456292158E+01 -0.73482202675E+01  0.18036982402E+02  0.51100000000E-03 0.  1.
        -12    1    3    3    0    0  0.15286851195E+01  0.11441859234E+02 -0.96119068136E+01  0.15021377218E+02  0.00000000000E+00 0.  1.
</event>
<event>
 7    1  0.5913457E-013  0.5052886E+02  0.7816164E-02  0.1300439E+00
        -11   -1    0    0    0    0  0.00000000000E+00  0.00000000000E+00  0.45593999997E+02  0.45594000000E+02  0.51100000000E-03 0.  1.
         11   -1    0    0    0    0 -0.00000000000E+00 -0.00000000000E+00 -0.45593999997E+02  0.45594000000E+02  0.51100000000E-03 0. -1.
    9900012    2    1    2    0    0 -0.33605464514E+02  0.18505651744E+02 -0.13467710212E+02  0.50528860682E+02  0.30000002530E+02 0.  0.
        -12    1    1    2    0    0  0.33605464514E+02 -0.18505651744E+02  0.13467710212E+02  0.40659139318E+02  0.00000000000E+00 0.  1.
         11    1    3    3    0    0 -0.35483204665E+01  0.10999059403E+02 -0.22189270172E+01  0.11768327122E+02  0.51100000000E-03 0.  1.
        -11    1    3    3    0    0 -0.97480612057E+01  0.86744499068E+01  0.36451964289E+01  0.13548366533E+02  0.51100000000E-03 0. -1.
         12    1    3    3    0    0 -0.20309082842E+02 -0.11678575656E+01 -0.14893979623E+02  0.25212167027E+02  0.00000000000E+00 0. -1.
</event>
<event>
 7    1  0.5913457E-013  0.5052890E+02  0.7816164E-02  0.1300439E+00
        -11   -1    0    0    0    0  0.00000000000E+00  0.00000000000E+00  0.45593999997E+02  0.45594000000E+02  0.51100000000E-03 0.  1.
         11   -1    0    0    0    0 -0.00000000000E+00 -0.00000000000E+00 -0.45593999997E+02  0.45594000000E+02  0.51100000000E-03 0. -1.
    9900012    2    1    2    0    0 -0.77213513438E+01 -0.12702554265E+02 -0.37844258788E+02  0.50528904159E+02  0.30000134681E+02 0.  0.
        -12    1    1    2    0    0  0.77213513438E+01  0.12702554265E+02  0.37844258788E+02  0.40659095841E+02  0.00000000000E+00 0.  1.
         11    1    3    3    0    0  0.65124468757E+01  0.48471905278E+00  0.38975697687E+00  0.65420812920E+01  0.51100000000E-03 0.  1.
        -11    1    3    3    0    0 -0.16080531813E+01 -0.73937347605E+01 -0.10203966905E+02  0.12703310183E+02  0.51100000000E-03 0. -1.
        -12    1    3    3    0    0 -0.12625745038E+02 -0.57935385570E+01 -0.28030048860E+02  0.31283512684E+02  0.00000000000E+00 0.  1.
</event>
<event>
 7    1  0.5913457E-013  0.5052886E+02  0.7816164E-02  0.1300439E+00
        -11   -1    0    0    0    0  0.00000000000E+00  0.00000000000E+00  0.45593999997E+02  0.45594000000E+02  0.51100000000E-03 0.  1.
         11   -1    0    0    0    0 -0.00000000000E+00 -0.00000000000E+00 -0.45593999997E+02  0.45594000000E+02  0.51100000000E-03 0. -1.
    9900012    2    1    2    0    0 -0.19174915360E+02 -0.10133132655E+02 -0.34391975335E+02  0.50528859282E+02  0.29999998275E+02 0.  0.
        -12    1    1    2    0    0  0.19174915360E+02  0.10133132655E+02  0.34391975335E+02  0.40659140718E+02  0.00000000000E+00 0.  1.
         11    1    3    3    0    0 -0.58299332273E+01 -0.62998347615E+01 -0.17222446098E+01  0.87545511715E+01  0.51100000000E-03 0. -1.
        -11    1    3    3    0    0  0.61113169926E+01 -0.34110025670E+00 -0.59382942336E+01  0.85280644601E+01  0.51100000000E-03 0.  1.
         12    1    3    3    0    0 -0.19456299126E+02 -0.34921976369E+01 -0.26731436491E+02  0.33246243651E+02  0.00000000000E+00 0. -1.
</event>
<event>
 7    1  0.5913457E-013  0.5052886E+02  0.7816164E-02  0.1300439E+00
        -11   -1    0    0    0    0  0.00000000000E+00  0.00000000000E+00  0.45593999997E+02  0.45594000000E+02  0.51100000000E-03 0.  1.
         11   -1    0    0    0    0 -0.00000000000E+00 -0.00000000000E+00 -0.45593999997E+02  0.45594000000E+02  0.51100000000E-03 0. -1.
    9900012    2    1    2    0    0 -0.77690517177E+01 -0.13761696769E+02 -0.37462291263E+02  0.50528859217E+02  0.29999998076E+02 0.  0.
        -12    1    1    2    0    0  0.77690517177E+01  0.13761696769E+02  0.37462291263E+02  0.40659140783E+02  0.00000000000E+00 0.  1.
         11    1    3    3    0    0 -0.73463900955E+01 -0.64199855296E+01 -0.16281837920E+02  0.18981146118E+02  0.51100000000E-03 0. -1.
        -11    1    3    3    0    0 -0.28130042151E+01  0.70528502882E+01 -0.12333733891E+02  0.14483669488E+02  0.51100000000E-03 0.  1.
         12    1    3    3    0    0  0.23903425929E+01 -0.14394561528E+02 -0.88467194521E+01  0.17064043611E+02  0.00000000000E+00 0. -1.
</event>
<event>
 7    1  0.5913457E-013  0.5052888E+02  0.7816164E-02  0.1300439E+00
        -11   -1    0    0    0    0  0.00000000000E+00  0.00000000000E+00  0.45593999997E+02  0.45594000000E+02  0.51100000000E-03 0. -1.
         11   -1    0    0    0    0 -0.00000000000E+00 -0.00000000000E+00 -0.45593999997E+02  0.45594000000E+02  0.51100000000E-03 0.  1.
    9900012    2    1    2    0    0  0.29615821659E+02 -0.70918596024E+01  0.26940171431E+02  0.50528877999E+02  0.30000055165E+02 0.  0.
        -12    1    1    2    0    0 -0.29615821659E+02  0.70918596024E+01 -0.26940171431E+02  0.40659122001E+02  0.00000000000E+00 0.  1.
         11    1    3    3    0    0  0.10195872843E+02 -0.96941819000E+01  0.15960617400E+02  0.21276143772E+02  0.51100000000E-03 0. -1.
        -11    1    3    3    0    0  0.17018600961E+02  0.74038840314E+01  0.13856916446E+02  0.23161701386E+02  0.51100000000E-03 0.  1.
         12    1    3    3    0    0  0.24013478543E+01 -0.48015617338E+01 -0.28773624148E+01  0.60910328408E+01  0.00000000000E+00 0. -1.
</event>
<event>
 7    1  0.5913457E-013  0.5052886E+02  0.7816164E-02  0.1300439E+00
        -11   -1    0    0    0    0  0.00000000000E+00  0.00000000000E+00  0.45593999997E+02  0.45594000000E+02  0.51100000000E-03 0.  1.
         11   -1    0    0    0    0 -0.00000000000E+00 -0.00000000000E+00 -0.45593999997E+02  0.45594000000E+02  0.51100000000E-03 0. -1.
    9900012    2    1    2    0    0 -0.26004366759E+02  0.14246099403E+02 -0.27820621764E+02  0.50528862846E+02  0.30000009108E+02 0.  0.
        -12    1    1    2    0    0  0.26004366759E+02 -0.14246099403E+02  0.27820621764E+02  0.40659137154E+02  0.00000000000E+00 0.  1.
         11    1    3    3    0    0 -0.79405412574E+00  0.10493391360E+02 -0.74787014720E+00  0.10549933375E+02  0.51100000000E-03 0.  1.
        -11    1    3    3    0    0  0.15439133328E+01 -0.39887987383E+00 -0.43491655716E+01  0.46322796724E+01  0.51100000000E-03 0. -1.
         12    1    3    3    0    0 -0.26754225966E+02  0.41515879167E+01 -0.22723586046E+02  0.35346649799E+02  0.00000000000E+00 0. -1.
</event>
<event>
 7    1  0.5913457E-013  0.5052886E+02  0.7816164E-02  0.1300439E+00
        -11   -1    0    0    0    0  0.00000000000E+00  0.00000000000E+00  0.45593999997E+02  0.45594000000E+02  0.51100000000E-03 0.  1.
         11   -1    0    0    0    0 -0.00000000000E+00 -0.00000000000E+00 -0.45593999997E+02  0.45594000000E+02  0.51100000000E-03 0. -1.
    9900012    2    1    2    0    0  0.10344738820E+02  0.23788503259E+02 -0.31309092639E+02  0.50528858464E+02  0.29999995787E+02 0.  0.
        -12    1    1    2    0    0 -0.10344738820E+02 -0.23788503259E+02  0.31309092639E+02  0.40659141536E+02  0.00000000000E+00 0.  1.
         11    1    3    3    0    0 -0.82996514738E+00  0.15217953238E+02 -0.11429696983E+02  0.19050273391E+02  0.51100000000E-03 0. -1.
        -11    1    3    3    0    0  0.93751101347E+01  0.10082164497E+02 -0.23456585249E+02  0.27198421329E+02  0.51100000000E-03 0.  1.
        -12    1    3    3    0    0  0.17995938325E+01 -0.15116144754E+01  0.35771895936E+01  0.42801637437E+01  0.00000000000E+00 0.  1.
</event>
<event>
 7    1  0.5913457E-013  0.5052887E+02  0.7816164E-02  0.1300439E+00
        -11   -1    0    0    0    0  0.00000000000E+00  0.00000000000E+00  0.45593999997E+02  0.45594000000E+02  0.51100000000E-03 0.  1.
         11   -1    0    0    0    0 -0.00000000000E+00 -0.00000000000E+00 -0.45593999997E+02  0.45594000000E+02  0.51100000000E-03 0. -1.
    9900012    2    1    2    0    0 -0.36088242416E+02 -0.68285749968E+01 -0.17440601021E+02  0.50528865219E+02  0.30000016321E+02 0.  0.
        -12    1    1    2    0    0  0.36088242416E+02  0.68285749968E+01  0.17440601021E+02  0.40659134781E+02  0.00000000000E+00 0.  1.
         11    1    3    3    0    0 -0.10833320032E+02 -0.89098800659E+01 -0.85822607331E+01  0.16443904198E+02  0.51100000000E-03 0. -1.
        -11    1    3    3    0    0 -0.20967699972E+01 -0.74539171950E+01 -0.33780684988E+01  0.84479981662E+01  0.51100000000E-03 0.  1.
        -12    1    3    3    0    0 -0.23158152387E+02  0.95352222641E+01 -0.54802717887E+01  0.25636962856E+02  0.00000000000E+00 0.  1.
</event>
<event>
 7    1  0.5913457E-013  0.5052886E+02  0.7816164E-02  0.1300439E+00
        -11   -1    0    0    0    0  0.00000000000E+00  0.00000000000E+00  0.45593999997E+02  0.45594000000E+02  0.51100000000E-03 0. -1.
         11   -1    0    0    0    0 -0.00000000000E+00 -0.00000000000E+00 -0.45593999997E+02  0.45594000000E+02  0.51100000000E-03 0.  1.
    9900012    2    1    2    0    0  0.94492114177E+00  0.31768535160E+02  0.25358095310E+02  0.50528859577E+02  0.29999999169E+02 0.  0.
        -12    1    1    2    0    0 -0.94492114177E+00 -0.31768535160E+02 -0.25358095310E+02  0.40659140423E+02  0.00000000000E+00 0.  1.
         11    1    3    3    0    0  0.20479147645E+01  0.20835541593E+02  0.15097215942E+02  0.25811619047E+02  0.51100000000E-03 0. -1.
        -11    1    3    3    0    0  0.21799898502E+01  0.15322951010E+02  0.32450403838E+01  0.15813774716E+02  0.51100000000E-03 0.  1.
        -12    1    3    3    0    0 -0.32829834730E+01 -0.43899574433E+01  0.70158389849E+01  0.89034658140E+01  0.00000000000E+00 0.  1.
</event>
<event>
 7    1  0.5913457E-013  0.5052886E+02  0.7816164E-02  0.1300439E+00
        -11   -1    0    0    0    0  0.00000000000E+00  0.00000000000E+00  0.45593999997E+02  0.45594000000E+02  0.51100000000E-03 0. -1.
         11   -1    0    0    0    0 -0.00000000000E+00 -0.00000000000E+00 -0.45593999997E+02  0.45594000000E+02  0.51100000000E-03 0.  1.
    9900012    2    1    2    0    0  0.14792920348E+02  0.33941684366E+02  0.16801712774E+02  0.50528856107E+02  0.29999988622E+02 0.  0.
        -12    1    1    2    0    0 -0.14792920348E+02 -0.33941684366E+02 -0.16801712774E+02  0.40659143893E+02  0.00000000000E+00 0.  1.
         11    1    3    3    0    0  0.18846503126E+01  0.54196014747E+01 -0.20418491712E+01  0.60904133886E+01  0.51100000000E-03 0. -1.
        -11    1    3    3    0    0 -0.56512963180E+01  0.33405050529E+01 -0.19829239605E+01  0.68577045559E+01  0.51100000000E-03 0.  1.
         12    1    3    3    0    0  0.18559566353E+02  0.25181577838E+02  0.20826485905E+02  0.37580738162E+02  0.00000000000E+00 0. -1.
</event>
<event>
 7    1  0.5913457E-013  0.5052886E+02  0.7816164E-02  0.1300439E+00
        -11   -1    0    0    0    0  0.00000000000E+00  0.00000000000E+00  0.45593999997E+02  0.45594000000E+02  0.51100000000E-03 0.  1.
         11   -1    0    0    0    0 -0.00000000000E+00 -0.00000000000E+00 -0.45593999997E+02  0.45594000000E+02  0.51100000000E-03 0. -1.
    9900012    2    1    2    0    0  0.32322013522E+02  0.20271760371E+02 -0.14053778560E+02  0.50528861809E+02  0.30000005953E+02 0.  0.
        -12    1    1    2    0    0 -0.32322013522E+02 -0.20271760371E+02  0.14053778560E+02  0.40659138191E+02  0.00000000000E+00 0.  1.
         11    1    3    3    0    0  0.93698869263E+01  0.59794318641E+01 -0.27129461884E+01  0.11441523662E+02  0.51100000000E-03 0. -1.
        -11    1    3    3    0    0  0.28227649987E+02  0.10421113558E+02 -0.60956768671E+01  0.30701092949E+02  0.51100000000E-03 0.  1.
        -12    1    3    3    0    0 -0.52755233913E+01  0.38712149490E+01 -0.52451555048E+01  0.83862451969E+01  0.00000000000E+00 0.  1.
</event>
<event>
 7    1  0.5913457E-013  0.5052885E+02  0.7816164E-02  0.1300439E+00
        -11   -1    0    0    0    0  0.00000000000E+00  0.00000000000E+00  0.45593999997E+02  0.45594000000E+02  0.51100000000E-03 0. -1.
         11   -1    0    0    0    0 -0.00000000000E+00 -0.00000000000E+00 -0.45593999997E+02  0.45594000000E+02  0.51100000000E-03 0.  1.
    9900012    2    1    2    0    0 -0.17378776410E+02 -0.23151112948E+02  0.28551188992E+02  0.50528852283E+02  0.29999976998E+02 0.  0.
        -12    1    1    2    0    0  0.17378776410E+02  0.23151112948E+02 -0.28551188992E+02  0.40659147717E+02  0.00000000000E+00 0.  1.
         11    1    3    3    0    0  0.48752231435E+01 -0.19566880903E+01  0.53264649010E+01  0.74811534928E+01  0.51100000000E-03 0. -1.
        -11    1    3    3    0    0  0.80068867975E-01 -0.10671842947E+02  0.28733848381E+01  0.11052193610E+02  0.51100000000E-03 0.  1.
         12    1    3    3    0    0 -0.22334068421E+02 -0.10522581911E+02  0.20351339253E+02  0.31995505180E+02  0.00000000000E+00 0. -1.
</event>
<event>
 7    1  0.5913457E-013  0.5052885E+02  0.7816164E-02  0.1300439E+00
        -11   -1    0    0    0    0  0.00000000000E+00  0.00000000000E+00  0.45593999997E+02  0.45594000000E+02  0.51100000000E-03 0.  1.
         11   -1    0    0    0    0 -0.00000000000E+00 -0.00000000000E+00 -0.45593999997E+02  0.45594000000E+02  0.51100000000E-03 0. -1.
    9900012    2    1    2    0    0 -0.37399027043E+02 -0.77934423998E+01 -0.13919095381E+02  0.50528853619E+02  0.29999981059E+02 0.  0.
        -12    1    1    2    0    0  0.37399027043E+02  0.77934423998E+01  0.13919095381E+02  0.40659146381E+02  0.00000000000E+00 0.  1.
         11    1    3    3    0    0 -0.17072287444E+02 -0.88712542793E+01 -0.10592496465E+02  0.21962766964E+02  0.51100000000E-03 0. -1.
        -11    1    3    3    0    0  0.21197581300E+01 -0.47307165528E+01 -0.73722327814E+00  0.52360817464E+01  0.51100000000E-03 0.  1.
         12    1    3    3    0    0 -0.22446497729E+02  0.58085284323E+01 -0.25893756382E+01  0.23330004909E+02  0.00000000000E+00 0. -1.
</event>
<event>
 7    1  0.5913457E-013  0.5052886E+02  0.7816164E-02  0.1300439E+00
        -11   -1    0    0    0    0  0.00000000000E+00  0.00000000000E+00  0.45593999997E+02  0.45594000000E+02  0.51100000000E-03 0.  1.
         11   -1    0    0    0    0 -0.00000000000E+00 -0.00000000000E+00 -0.45593999997E+02  0.45594000000E+02  0.51100000000E-03 0. -1.
    9900012    2    1    2    0    0 -0.33497341469E+02 -0.10863216756E+02 -0.20324480635E+02  0.50528857401E+02  0.29999992558E+02 0.  0.
        -12    1    1    2    0    0  0.33497341469E+02  0.10863216756E+02  0.20324480635E+02  0.40659142599E+02  0.00000000000E+00 0.  1.
         11    1    3    3    0    0 -0.27188253601E+02 -0.99816219599E+01 -0.18200047695E+02  0.34206368518E+02  0.51100000000E-03 0. -1.
        -11    1    3    3    0    0 -0.99450662821E+01  0.17384856726E+01 -0.47186450296E+01  0.11144159321E+02  0.51100000000E-03 0.  1.
         12    1    3    3    0    0  0.36359784143E+01 -0.26200804689E+01  0.25942120899E+01  0.51783295627E+01  0.00000000000E+00 0. -1.
</event>
<event>
 7    1  0.5913457E-013  0.5052889E+02  0.7816164E-02  0.1300439E+00
        -11   -1    0    0    0    0  0.00000000000E+00  0.00000000000E+00  0.45593999997E+02  0.45594000000E+02  0.51100000000E-03 0.  1.
         11   -1    0    0    0    0 -0.00000000000E+00 -0.00000000000E+00 -0.45593999997E+02  0.45594000000E+02  0.51100000000E-03 0. -1.
    9900012    2    1    2    0    0  0.68215111623E+01  0.37821152731E+02 -0.13273680459E+02  0.50528890303E+02  0.30000092565E+02 0.  0.
        -12    1    1    2    0    0 -0.68215111623E+01 -0.37821152731E+02  0.13273680459E+02  0.40659109697E+02  0.00000000000E+00 0.  1.
         11    1    3    3    0    0  0.39047194868E+01  0.51460750881E+01 -0.52409184344E+01  0.83184222891E+01  0.51100000000E-03 0. -1.
        -11    1    3    3    0    0 -0.49853975697E+01  0.19776016111E+02 -0.15234470333E+02  0.25456513680E+02  0.51100000000E-03 0.  1.
        -12    1    3    3    0    0  0.79021892452E+01  0.12899061532E+02  0.72017083084E+01  0.16753954334E+02  0.00000000000E+00 0.  1.
</event>
<event>
 7    1  0.5913457E-013  0.5052886E+02  0.7816164E-02  0.1300439E+00
        -11   -1    0    0    0    0  0.00000000000E+00  0.00000000000E+00  0.45593999997E+02  0.45594000000E+02  0.51100000000E-03 0.  1.
         11   -1    0    0    0    0 -0.00000000000E+00 -0.00000000000E+00 -0.45593999997E+02  0.45594000000E+02  0.51100000000E-03 0. -1.
    9900012    2    1    2    0    0  0.18659032295E+01 -0.25685969130E+02 -0.31462921066E+02  0.50528855801E+02  0.29999987693E+02 0.  0.
        -12    1    1    2    0    0 -0.18659032295E+01  0.25685969130E+02  0.31462921066E+02  0.40659144199E+02  0.00000000000E+00 0.  1.
         11    1    3    3    0    0  0.19930377385E+01  0.44294238197E+01 -0.32311072696E+01  0.58336994481E+01  0.51100000000E-03 0. -1.
        -11    1    3    3    0    0 -0.35627276980E+01 -0.19427086598E+00 -0.23683783489E+00  0.35758722350E+01  0.51100000000E-03 0.  1.
         12    1    3    3    0    0  0.34355931889E+01 -0.29921122084E+02 -0.27994975961E+02  0.41119284118E+02  0.00000000000E+00 0. -1.
</event>
<event>
 7    1  0.5913457E-013  0.5052886E+02  0.7816164E-02  0.1300439E+00
        -11   -1    0    0    0    0  0.00000000000E+00  0.00000000000E+00  0.45593999997E+02  0.45594000000E+02  0.51100000000E-03 0.  1.
         11   -1    0    0    0    0 -0.00000000000E+00 -0.00000000000E+00 -0.45593999997E+02  0.45594000000E+02  0.51100000000E-03 0. -1.
    9900012    2    1    2    0    0  0.52224240699E+01 -0.27139396860E+02 -0.29821888915E+02  0.50528860394E+02  0.30000001652E+02 0.  0.
        -12    1    1    2    0    0 -0.52224240699E+01  0.27139396860E+02  0.29821888915E+02  0.40659139606E+02  0.00000000000E+00 0.  1.
         11    1    3    3    0    0  0.52688203942E+01 -0.26999023422E+02 -0.31772210712E+02  0.42025957548E+02  0.51100000000E-03 0. -1.
        -11    1    3    3    0    0  0.26833782648E+00  0.31387943567E+01 -0.17051205584E+01  0.35821043512E+01  0.51100000000E-03 0.  1.
        -12    1    3    3    0    0 -0.31473415077E+00 -0.32791677948E+01  0.36554423548E+01  0.49207984943E+01  0.00000000000E+00 0.  1.
</event>
<event>
 7    1  0.5913457E-013  0.5052886E+02  0.7816164E-02  0.1300439E+00
        -11   -1    0    0    0    0  0.00000000000E+00  0.00000000000E+00  0.45593999997E+02  0.45594000000E+02  0.51100000000E-03 0.  1.
         11   -1    0    0    0    0 -0.00000000000E+00 -0.00000000000E+00 -0.45593999997E+02  0.45594000000E+02  0.51100000000E-03 0. -1.
    9900012    2    1    2    0    0  0.14162127661E+02 -0.37303033859E+02  0.78156012260E+01  0.50528858132E+02  0.29999994777E+02 0.  0.
        -12    1    1    2    0    0 -0.14162127661E+02  0.37303033859E+02 -0.78156012260E+01  0.40659141868E+02  0.00000000000E+00 0.  1.
         11    1    3    3    0    0  0.14923013094E+02 -0.13653562663E+02  0.86605422747E+00  0.20245151108E+02  0.51100000000E-03 0. -1.
        -11    1    3    3    0    0  0.79384926133E+01 -0.66191803735E+01  0.29150632143E+01  0.10739218202E+02  0.51100000000E-03 0.  1.
        -12    1    3    3    0    0 -0.86993780464E+01 -0.17030290822E+02  0.40344837843E+01  0.19544488821E+02  0.00000000000E+00 0.  1.
</event>
<event>
 7    1  0.5913457E-013  0.5052886E+02  0.7816164E-02  0.1300439E+00
        -11   -1    0    0    0    0  0.00000000000E+00  0.00000000000E+00  0.45593999997E+02  0.45594000000E+02  0.51100000000E-03 0.  1.
         11   -1    0    0    0    0 -0.00000000000E+00 -0.00000000000E+00 -0.45593999997E+02  0.45594000000E+02  0.51100000000E-03 0. -1.
    9900012    2    1    2    0    0  0.38468819925E+02  0.15869204093E+00 -0.13163983981E+02  0.50528858791E+02  0.29999996781E+02 0.  0.
        -12    1    1    2    0    0 -0.38468819925E+02 -0.15869204093E+00  0.13163983981E+02  0.40659141209E+02  0.00000000000E+00 0.  1.
         11    1    3    3    0    0  0.65481015962E+01  0.71819866228E+01 -0.97369937798E+00  0.97676331372E+01  0.51100000000E-03 0. -1.
        -11    1    3    3    0    0  0.93644309418E+01  0.70885714887E+01 -0.69374451441E+01  0.13640694924E+02  0.51100000000E-03 0.  1.
        -12    1    3    3    0    0  0.22556287387E+02 -0.14111866071E+02 -0.52528394589E+01  0.27120530730E+02  0.00000000000E+00 0.  1.
</event>
<event>
 7    1  0.5913457E-013  0.5052884E+02  0.7816164E-02  0.1300439E+00
        -11   -1    0    0    0    0  0.00000000000E+00  0.00000000000E+00  0.45593999997E+02  0.45594000000E+02  0.51100000000E-03 0.  1.
         11   -1    0    0    0    0 -0.00000000000E+00 -0.00000000000E+00 -0.45593999997E+02  0.45594000000E+02  0.51100000000E-03 0. -1.
    9900012    2    1    2    0    0 -0.21939420389E+02 -0.18139114681E+02 -0.29031051452E+02  0.50528836250E+02  0.29999928267E+02 0.  0.
        -12    1    1    2    0    0  0.21939420389E+02  0.18139114681E+02  0.29031051452E+02  0.40659163750E+02  0.00000000000E+00 0.  1.
         11    1    3    3    0    0 -0.12803961927E+02 -0.11304632529E+01 -0.77950994138E+00  0.12877384214E+02  0.51100000000E-03 0.  1.
        -11    1    3    3    0    0 -0.85787343628E+01 -0.71966501001E+01 -0.24841952089E+02  0.27249019061E+02  0.51100000000E-03 0. -1.
        -12    1    3    3    0    0 -0.55672409967E+00 -0.98120013278E+01 -0.34095894213E+01  0.10402432975E+02  0.00000000000E+00 0.  1.
</event>
<event>
 7    1  0.5913457E-013  0.5052885E+02  0.7816164E-02  0.1300439E+00
        -11   -1    0    0    0    0  0.00000000000E+00  0.00000000000E+00  0.45593999997E+02  0.45594000000E+02  0.51100000000E-03 0.  1.
         11   -1    0    0    0    0 -0.00000000000E+00 -0.00000000000E+00 -0.45593999997E+02  0.45594000000E+02  0.51100000000E-03 0. -1.
    9900012    2    1    2    0    0 -0.19209851070E+02  0.46091454148E+00 -0.35832046749E+02  0.50528851035E+02  0.29999973206E+02 0.  0.
        -12    1    1    2    0    0  0.19209851070E+02 -0.46091454148E+00  0.35832046749E+02  0.40659148965E+02  0.00000000000E+00 0.  1.
         11    1    3    3    0    0 -0.15453871628E+02 -0.29688100402E+01 -0.28344839362E+02  0.32420146515E+02  0.51100000000E-03 0. -1.
        -11    1    3    3    0    0  0.16508560762E+01 -0.56650944364E+01 -0.29350547102E+01  0.65903844479E+01  0.51100000000E-03 0.  1.
         12    1    3    3    0    0 -0.54068355184E+01  0.90948190180E+01 -0.45521526773E+01  0.11518320072E+02  0.00000000000E+00 0. -1.
</event>
<event>
 7    1  0.5913457E-013  0.5052885E+02  0.7816164E-02  0.1300439E+00
        -11   -1    0    0    0    0  0.00000000000E+00  0.00000000000E+00  0.45593999997E+02  0.45594000000E+02  0.51100000000E-03 0.  1.
         11   -1    0    0    0    0 -0.00000000000E+00 -0.00000000000E+00 -0.45593999997E+02  0.45594000000E+02  0.51100000000E-03 0. -1.
    9900012    2    1    2    0    0 -0.12612897093E+01 -0.40273877966E+02 -0.54397090021E+01  0.50528849342E+02  0.29999968061E+02 0.  0.
        -12    1    1    2    0    0  0.12612897093E+01  0.40273877966E+02  0.54397090021E+01  0.40659150658E+02  0.00000000000E+00 0.  1.
         11    1    3    3    0    0  0.12012989908E+01 -0.18596760460E+02 -0.11565889679E+02  0.21932907313E+02  0.51100000000E-03 0. -1.
        -11    1    3    3    0    0 -0.97959768252E+01 -0.97586233916E+01  0.17720075387E+01  0.13940297825E+02  0.51100000000E-03 0.  1.
         12    1    3    3    0    0  0.73333881251E+01 -0.11918494115E+02  0.43541731378E+01  0.14655644205E+02  0.00000000000E+00 0. -1.
</event>
<event>
 7    1  0.5913457E-013  0.5052886E+02  0.7816164E-02  0.1300439E+00
        -11   -1    0    0    0    0  0.00000000000E+00  0.00000000000E+00  0.45593999997E+02  0.45594000000E+02  0.51100000000E-03 0.  1.
         11   -1    0    0    0    0 -0.00000000000E+00 -0.00000000000E+00 -0.45593999997E+02  0.45594000000E+02  0.51100000000E-03 0. -1.
    9900012    2    1    2    0    0  0.13593854152E+02  0.27995205687E+01  0.38216953675E+02  0.50528859154E+02  0.29999997885E+02 0.  0.
        -12    1    1    2    0    0 -0.13593854152E+02 -0.27995205687E+01 -0.38216953675E+02  0.40659140846E+02  0.00000000000E+00 0.  1.
         11    1    3    3    0    0  0.17501814055E+02 -0.36087667084E+01  0.26554758132E+02  0.32007684579E+02  0.51100000000E-03 0. -1.
        -11    1    3    3    0    0  0.10379320017E+01  0.69183714527E+01  0.14236584369E+01  0.71391855281E+01  0.51100000000E-03 0.  1.
        -12    1    3    3    0    0 -0.49458919048E+01 -0.51008417564E+00  0.10238537106E+02  0.11381989047E+02  0.00000000000E+00 0.  1.
</event>
<event>
 7    1  0.5913457E-013  0.5052886E+02  0.7816164E-02  0.1300439E+00
        -11   -1    0    0    0    0  0.00000000000E+00  0.00000000000E+00  0.45593999997E+02  0.45594000000E+02  0.51100000000E-03 0. -1.
         11   -1    0    0    0    0 -0.00000000000E+00 -0.00000000000E+00 -0.45593999997E+02  0.45594000000E+02  0.51100000000E-03 0.  1.
    9900012    2    1    2    0    0 -0.13203521145E+02  0.21272223493E+02  0.32036306917E+02  0.50528862972E+02  0.30000009490E+02 0.  0.
        -12    1    1    2    0    0  0.13203521145E+02 -0.21272223493E+02 -0.32036306917E+02  0.40659137028E+02  0.00000000000E+00 0.  1.
         11    1    3    3    0    0  0.52232194240E+00 -0.92975791086E+00  0.50706799861E-01  0.10676335631E+01  0.51100000000E-03 0. -1.
        -11    1    3    3    0    0 -0.54476705292E+01 -0.61240039133E+01  0.62996028471E+01  0.10337578750E+02  0.51100000000E-03 0.  1.
         12    1    3    3    0    0 -0.82781725584E+01  0.28325985318E+02  0.25685997270E+02  0.39123650659E+02  0.00000000000E+00 0. -1.
</event>
<event>
 7    1  0.5913457E-013  0.5052886E+02  0.7816164E-02  0.1300439E+00
        -11   -1    0    0    0    0  0.00000000000E+00  0.00000000000E+00  0.45593999997E+02  0.45594000000E+02  0.51100000000E-03 0.  1.
         11   -1    0    0    0    0 -0.00000000000E+00 -0.00000000000E+00 -0.45593999997E+02  0.45594000000E+02  0.51100000000E-03 0. -1.
    9900012    2    1    2    0    0 -0.18978644810E+01 -0.40297870476E+02 -0.50641369539E+01  0.50528859114E+02  0.29999997762E+02 0.  0.
        -12    1    1    2    0    0  0.18978644810E+01  0.40297870476E+02  0.50641369539E+01  0.40659140886E+02  0.00000000000E+00 0.  1.
         11    1    3    3    0    0  0.57535371467E+01 -0.78324866708E+01  0.49696442261E+01  0.10915511951E+02  0.51100000000E-03 0. -1.
        -11    1    3    3    0    0 -0.81140727785E+01 -0.22018697238E+02  0.21417521133E+01  0.23563707422E+02  0.51100000000E-03 0.  1.
         12    1    3    3    0    0  0.46267115071E+00 -0.10446686568E+02 -0.12175533293E+02  0.16049639741E+02  0.00000000000E+00 0. -1.
</event>
<event>
 7    1  0.5913457E-013  0.5052886E+02  0.7816164E-02  0.1300439E+00
        -11   -1    0    0    0    0  0.00000000000E+00  0.00000000000E+00  0.45593999997E+02  0.45594000000E+02  0.51100000000E-03 0. -1.
         11   -1    0    0    0    0 -0.00000000000E+00 -0.00000000000E+00 -0.45593999997E+02  0.45594000000E+02  0.51100000000E-03 0.  1.
    9900012    2    1    2    0    0 -0.29774974532E+02 -0.14482436450E+01  0.27649944633E+02  0.50528856425E+02  0.29999989589E+02 0.  0.
        -12    1    1    2    0    0  0.29774974532E+02  0.14482436450E+01 -0.27649944633E+02  0.40659143575E+02  0.00000000000E+00 0.  1.
         11    1    3    3    0    0 -0.80303616417E+01 -0.11882517639E+02  0.36326330260E+01  0.14794490748E+02  0.51100000000E-03 0. -1.
        -11    1    3    3    0    0 -0.18483836680E+02  0.75699881694E+01  0.12842444743E+02  0.23746269739E+02  0.51100000000E-03 0.  1.
        -12    1    3    3    0    0 -0.32607762105E+01  0.28642858242E+01  0.11174866864E+02  0.11988095937E+02  0.00000000000E+00 0.  1.
</event>
<event>
 7    1  0.6826223E-013  0.5052884E+02  0.7816164E-02  0.1300439E+00
        -11   -1    0    0    0    0  0.00000000000E+00  0.00000000000E+00  0.45593999997E+02  0.45594000000E+02  0.51100000000E-03 0. -1.
         11   -1    0    0    0    0 -0.00000000000E+00 -0.00000000000E+00 -0.45593999997E+02  0.45594000000E+02  0.51100000000E-03 0.  1.
    9900012    2    1    2    0    0  0.20951045402E+02 -0.42411966150E+01  0.34586599428E+02  0.50528844669E+02  0.29999953857E+02 0.  0.
        -12    1    1    2    0    0 -0.20951045402E+02  0.42411966150E+01 -0.34586599428E+02  0.40659155331E+02  0.00000000000E+00 0.  1.
         11    1    3    3    0    0  0.10085286582E+02 -0.24807918614E+01  0.17191644610E+02  0.20085317482E+02  0.51100000000E-03 0. -1.
        -11    1    3    3    0    0  0.16695721342E+02  0.20279772707E+01  0.16270215641E+02  0.23400421368E+02  0.51100000000E-03 0.  1.
        -12    1    3    3    0    0 -0.58299625214E+01 -0.37883820243E+01  0.11247391771E+01  0.70431058192E+01  0.00000000000E+00 0.  1.
</event>
<event>
 7    1  0.5913457E-013  0.5052886E+02  0.7816164E-02  0.1300439E+00
        -11   -1    0    0    0    0  0.00000000000E+00  0.00000000000E+00  0.45593999997E+02  0.45594000000E+02  0.51100000000E-03 0.  1.
         11   -1    0    0    0    0 -0.00000000000E+00 -0.00000000000E+00 -0.45593999997E+02  0.45594000000E+02  0.51100000000E-03 0. -1.
    9900012    2    1    2    0    0 -0.15944726038E+02  0.14858214196E+02 -0.34324405903E+02  0.50528860091E+02  0.30000000732E+02 0.  0.
        -12    1    1    2    0    0  0.15944726038E+02 -0.14858214196E+02  0.34324405903E+02  0.40659139909E+02  0.00000000000E+00 0.  1.
         11    1    3    3    0    0 -0.17252476193E+02  0.36489614340E+00 -0.25496143045E+02  0.30786919210E+02  0.51100000000E-03 0. -1.
        -11    1    3    3    0    0 -0.30176911472E+01  0.21855194312E+01 -0.48241868854E+01  0.60955503780E+01  0.51100000000E-03 0.  1.
        -12    1    3    3    0    0  0.43254413022E+01  0.12307798621E+02 -0.40040759725E+01  0.13646390503E+02  0.00000000000E+00 0.  1.
</event>
<event>
 7    1  0.5913457E-013  0.5052887E+02  0.7816164E-02  0.1300439E+00
        -11   -1    0    0    0    0  0.00000000000E+00  0.00000000000E+00  0.45593999997E+02  0.45594000000E+02  0.51100000000E-03 0.  1.
         11   -1    0    0    0    0 -0.00000000000E+00 -0.00000000000E+00 -0.45593999997E+02  0.45594000000E+02  0.51100000000E-03 0. -1.
    9900012    2    1    2    0    0 -0.40612723925E+02 -0.11940888331E+01 -0.15315702707E+01  0.50528869411E+02  0.30000029061E+02 0.  0.
        -12    1    1    2    0    0  0.40612723925E+02  0.11940888331E+01  0.15315702707E+01  0.40659130589E+02  0.00000000000E+00 0.  1.
         11    1    3    3    0    0  0.25608252980E+01 -0.36862383957E+01 -0.14296900547E+01  0.47106468378E+01  0.51100000000E-03 0. -1.
        -11    1    3    3    0    0 -0.40272653365E+00  0.28603330645E+01 -0.93987358581E+00  0.30376070383E+01  0.51100000000E-03 0.  1.
         12    1    3    3    0    0 -0.42770822690E+02 -0.36818350190E+00  0.83799336979E+00  0.42780615535E+02  0.00000000000E+00 0. -1.
</event>
<event>
 7    1  0.5913457E-013  0.5052886E+02  0.7816164E-02  0.1300439E+00
        -11   -1    0    0    0    0  0.00000000000E+00  0.00000000000E+00  0.45593999997E+02  0.45594000000E+02  0.51100000000E-03 0.  1.
         11   -1    0    0    0    0 -0.00000000000E+00 -0.00000000000E+00 -0.45593999997E+02  0.45594000000E+02  0.51100000000E-03 0. -1.
    9900012    2    1    2    0    0 -0.31275210245E+02 -0.25934956648E+02 -0.15507468028E+01  0.50528861202E+02  0.30000004108E+02 0.  0.
        -12    1    1    2    0    0  0.31275210245E+02  0.25934956648E+02  0.15507468028E+01  0.40659138798E+02  0.00000000000E+00 0.  1.
         11    1    3    3    0    0 -0.10658065689E+02  0.41221594741E+01  0.48281814341E+00  0.11437642964E+02  0.51100000000E-03 0. -1.
        -11    1    3    3    0    0  0.10859612997E+01 -0.62248138464E+00  0.19362308939E+01  0.23055986976E+01  0.51100000000E-03 0.  1.
         12    1    3    3    0    0 -0.21703105855E+02 -0.29434634737E+02 -0.39697958402E+01  0.36785619540E+02  0.00000000000E+00 0. -1.
</event>
<event>
 7    1  0.5913457E-013  0.5052886E+02  0.7816164E-02  0.1300439E+00
        -11   -1    0    0    0    0  0.00000000000E+00  0.00000000000E+00  0.45593999997E+02  0.45594000000E+02  0.51100000000E-03 0.  1.
         11   -1    0    0    0    0 -0.00000000000E+00 -0.00000000000E+00 -0.45593999997E+02  0.45594000000E+02  0.51100000000E-03 0. -1.
    9900012    2    1    2    0    0  0.33974909542E+02  0.14084045659E+02 -0.17335251364E+02  0.50528858834E+02  0.29999996912E+02 0.  0.
        -12    1    1    2    0    0 -0.33974909542E+02 -0.14084045659E+02  0.17335251364E+02  0.40659141166E+02  0.00000000000E+00 0.  1.
         11    1    3    3    0    0  0.28819510815E+02  0.11133901214E+02  0.64664021952E+00  0.30902202247E+02  0.51100000000E-03 0.  1.
        -11    1    3    3    0    0  0.43917336305E+01  0.32098727899E+00 -0.67013566363E+01  0.80186369255E+01  0.51100000000E-03 0. -1.
        -12    1    3    3    0    0  0.76366509685E+00  0.26291571656E+01 -0.11280534947E+02  0.11608019662E+02  0.00000000000E+00 0.  1.
</event>
<event>
 7    1  0.5913457E-013  0.5052888E+02  0.7816164E-02  0.1300439E+00
        -11   -1    0    0    0    0  0.00000000000E+00  0.00000000000E+00  0.45593999997E+02  0.45594000000E+02  0.51100000000E-03 0.  1.
         11   -1    0    0    0    0 -0.00000000000E+00 -0.00000000000E+00 -0.45593999997E+02  0.45594000000E+02  0.51100000000E-03 0. -1.
    9900012    2    1    2    0    0  0.30322965493E+01  0.37481989404E+02 -0.15461878871E+02  0.50528879863E+02  0.30000060832E+02 0.  0.
        -12    1    1    2    0    0 -0.30322965493E+01 -0.37481989404E+02  0.15461878871E+02  0.40659120137E+02  0.00000000000E+00 0.  1.
         11    1    3    3    0    0  0.10520463531E+02  0.14816426059E+02 -0.33247537964E+01  0.18473240704E+02  0.51100000000E-03 0. -1.
        -11    1    3    3    0    0  0.25096031448E+01  0.13282799122E+02  0.33314840684E+00  0.13521902550E+02  0.51100000000E-03 0.  1.
        -12    1    3    3    0    0 -0.99977701259E+01  0.93827642233E+01 -0.12470273482E+02  0.18533736608E+02  0.00000000000E+00 0.  1.
</event>
<event>
 7    1  0.5913457E-013  0.5052885E+02  0.7816164E-02  0.1300439E+00
        -11   -1    0    0    0    0  0.00000000000E+00  0.00000000000E+00  0.45593999997E+02  0.45594000000E+02  0.51100000000E-03 0. -1.
         11   -1    0    0    0    0 -0.00000000000E+00 -0.00000000000E+00 -0.45593999997E+02  0.45594000000E+02  0.51100000000E-03 0.  1.
    9900012    2    1    2    0    0  0.10370451862E+02  0.28328143115E+02  0.27260530193E+02  0.50528850101E+02  0.29999970366E+02 0.  0.
        -12    1    1    2    0    0 -0.10370451862E+02 -0.28328143115E+02 -0.27260530193E+02  0.40659149899E+02  0.00000000000E+00 0.  1.
         11    1    3    3    0    0  0.86519138599E+01  0.90332340130E+01  0.57291506887E+01  0.13757837695E+02  0.51100000000E-03 0. -1.
        -11    1    3    3    0    0  0.60280715274E+01  0.60285674500E+00 -0.20292550279E+01  0.63889716562E+01  0.51100000000E-03 0.  1.
         12    1    3    3    0    0 -0.43095335257E+01  0.18692052357E+02  0.23560634532E+02  0.30382040749E+02  0.00000000000E+00 0. -1.
</event>
<event>
 7    1  0.5913457E-013  0.5052886E+02  0.7816164E-02  0.1300439E+00
        -11   -1    0    0    0    0  0.00000000000E+00  0.00000000000E+00  0.45593999997E+02  0.45594000000E+02  0.51100000000E-03 0. -1.
         11   -1    0    0    0    0 -0.00000000000E+00 -0.00000000000E+00 -0.45593999997E+02  0.45594000000E+02  0.51100000000E-03 0.  1.
    9900012    2    1    2    0    0  0.19210284125E+02  0.33138838879E+02  0.13636276620E+02  0.50528859595E+02  0.29999999224E+02 0.  0.
        -12    1    1    2    0    0 -0.19210284125E+02 -0.33138838879E+02 -0.13636276620E+02  0.40659140405E+02  0.00000000000E+00 0.  1.
         11    1    3    3    0    0  0.67316968585E+01  0.20593663985E+02 -0.34612545888E-01  0.21666008798E+02  0.51100000000E-03 0. -1.
        -11    1    3    3    0    0  0.53330106978E+01 -0.26571152563E+01 -0.15911201584E+01  0.61670842550E+01  0.51100000000E-03 0.  1.
         12    1    3    3    0    0  0.71455765688E+01  0.15202290150E+02  0.15262009325E+02  0.22695766542E+02  0.00000000000E+00 0. -1.
</event>
<event>
 7    1  0.5913457E-013  0.5052885E+02  0.7816164E-02  0.1300439E+00
        -11   -1    0    0    0    0  0.00000000000E+00  0.00000000000E+00  0.45593999997E+02  0.45594000000E+02  0.51100000000E-03 0. -1.
         11   -1    0    0    0    0 -0.00000000000E+00 -0.00000000000E+00 -0.45593999997E+02  0.45594000000E+02  0.51100000000E-03 0.  1.
    9900012    2    1    2    0    0 -0.20579078423E+02 -0.23431342636E+02  0.26089076500E+02  0.50528853439E+02  0.29999980512E+02 0.  0.
        -12    1    1    2    0    0  0.20579078423E+02  0.23431342636E+02 -0.26089076500E+02  0.40659146561E+02  0.00000000000E+00 0.  1.
         11    1    3    3    0    0  0.29955824595E+01 -0.85692220421E+01  0.16561200338E+01  0.92275573423E+01  0.51100000000E-03 0. -1.
        -11    1    3    3    0    0 -0.17306579128E+01 -0.57059849128E+00 -0.29513847541E+01  0.34686354201E+01  0.51100000000E-03 0.  1.
         12    1    3    3    0    0 -0.21844002970E+02 -0.14291522103E+02  0.27384341221E+02  0.37832660676E+02  0.00000000000E+00 0. -1.
</event>
<event>
 7    1  0.6299464E-013  0.5052885E+02  0.7816164E-02  0.1300439E+00
        -11   -1    0    0    0    0  0.00000000000E+00  0.00000000000E+00  0.45593999997E+02  0.45594000000E+02  0.51100000000E-03 0. -1.
         11   -1    0    0    0    0 -0.00000000000E+00 -0.00000000000E+00 -0.45593999997E+02  0.45594000000E+02  0.51100000000E-03 0.  1.
    9900012    2    1    2    0    0 -0.29857026516E+02  0.24083935647E+02  0.13479190863E+02  0.50528848817E+02  0.29999966464E+02 0.  0.
        -12    1    1    2    0    0  0.29857026516E+02 -0.24083935647E+02 -0.13479190863E+02  0.40659151183E+02  0.00000000000E+00 0.  1.
         11    1    3    3    0    0 -0.18607264889E+02  0.79181512986E+01  0.50618395380E+01  0.20845854418E+02  0.51100000000E-03 0. -1.
        -11    1    3    3    0    0 -0.12083793201E+02  0.34903016378E+01  0.11012738037E+02  0.16717675167E+02  0.51100000000E-03 0.  1.
        -12    1    3    3    0    0  0.83403157458E+00  0.12675482710E+02 -0.25953867115E+01  0.12965319232E+02  0.00000000000E+00 0.  1.
</event>
<event>
 7    1  0.5913457E-013  0.5052885E+02  0.7816164E-02  0.1300439E+00
        -11   -1    0    0    0    0  0.00000000000E+00  0.00000000000E+00  0.45593999997E+02  0.45594000000E+02  0.51100000000E-03 0.  1.
         11   -1    0    0    0    0 -0.00000000000E+00 -0.00000000000E+00 -0.45593999997E+02  0.45594000000E+02  0.51100000000E-03 0. -1.
    9900012    2    1    2    0    0  0.15201350039E+02  0.13912863760E+02 -0.35050217749E+02  0.50528848690E+02  0.29999966077E+02 0.  0.
        -12    1    1    2    0    0 -0.15201350039E+02 -0.13912863760E+02  0.35050217749E+02  0.40659151310E+02  0.00000000000E+00 0.  1.
         11    1    3    3    0    0  0.80861483282E+01  0.40932522283E+01 -0.15643332641E+02  0.18079114053E+02  0.51100000000E-03 0. -1.
        -11    1    3    3    0    0 -0.34766000379E+01 -0.24412598257E+01 -0.15097971348E+02  0.15684235284E+02  0.51100000000E-03 0.  1.
         12    1    3    3    0    0  0.10591801749E+02  0.12260871358E+02 -0.43089137608E+01  0.16765499352E+02  0.00000000000E+00 0. -1.
</event>
<event>
 7    1  0.5913457E-013  0.5052887E+02  0.7816164E-02  0.1300439E+00
        -11   -1    0    0    0    0  0.00000000000E+00  0.00000000000E+00  0.45593999997E+02  0.45594000000E+02  0.51100000000E-03 0.  1.
         11   -1    0    0    0    0 -0.00000000000E+00 -0.00000000000E+00 -0.45593999997E+02  0.45594000000E+02  0.51100000000E-03 0. -1.
    9900012    2    1    2    0    0 -0.12378862939E+02  0.14391696710E+02 -0.35955633924E+02  0.50528870734E+02  0.30000033082E+02 0.  0.
        -12    1    1    2    0    0  0.12378862939E+02 -0.14391696710E+02  0.35955633924E+02  0.40659129266E+02  0.00000000000E+00 0.  1.
         11    1    3    3    0    0  0.67559566914E+01  0.86347621454E+00 -0.61255069602E+01  0.91602607915E+01  0.51100000000E-03 0.  1.
        -11    1    3    3    0    0  0.18977812397E+01  0.35913616681E-01  0.60253966820E+00  0.19914612059E+01  0.51100000000E-03 0. -1.
         12    1    3    3    0    0 -0.21032600870E+02  0.13492306879E+02 -0.30432666632E+02  0.39377148736E+02  0.00000000000E+00 0. -1.
</event>
<event>
 7    1  0.5913457E-013  0.5052886E+02  0.7816164E-02  0.1300439E+00
        -11   -1    0    0    0    0  0.00000000000E+00  0.00000000000E+00  0.45593999997E+02  0.45594000000E+02  0.51100000000E-03 0. -1.
         11   -1    0    0    0    0 -0.00000000000E+00 -0.00000000000E+00 -0.45593999997E+02  0.45594000000E+02  0.51100000000E-03 0.  1.
    9900012    2    1    2    0    0  0.90751441325E+01  0.39296690488E+02 -0.51553398963E+01  0.50528860144E+02  0.30000000895E+02 0.  0.
        -12    1    1    2    0    0 -0.90751441325E+01 -0.39296690488E+02  0.51553398963E+01  0.40659139856E+02  0.00000000000E+00 0.  1.
         11    1    3    3    0    0 -0.46826489458E+01  0.89527020528E+01 -0.76653732067E+01  0.12682114250E+02  0.51100000000E-03 0. -1.
        -11    1    3    3    0    0 -0.22070085875E+01  0.12701573835E+02 -0.33950765354E+01  0.13331444398E+02  0.51100000000E-03 0.  1.
        -12    1    3    3    0    0  0.15964801666E+02  0.17642414600E+02  0.59051098458E+01  0.24515301496E+02  0.00000000000E+00 0.  1.
</event>
<event>
 7    1  0.5913457E-013  0.5052886E+02  0.7816164E-02  0.1300439E+00
        -11   -1    0    0    0    0  0.00000000000E+00  0.00000000000E+00  0.45593999997E+02  0.45594000000E+02  0.51100000000E-03 0. -1.
         11   -1    0    0    0    0 -0.00000000000E+00 -0.00000000000E+00 -0.45593999997E+02  0.45594000000E+02  0.51100000000E-03 0.  1.
    9900012    2    1    2    0    0 -0.31732749091E+01 -0.34429112517E+02  0.21394673491E+02  0.50528861837E+02  0.30000006041E+02 0.  0.
        -12    1    1    2    0    0  0.31732749091E+01  0.34429112517E+02 -0.21394673491E+02  0.40659138163E+02  0.00000000000E+00 0.  1.
         11    1    3    3    0    0 -0.89758730935E+01 -0.15859062575E+02  0.10117685687E+02  0.20843313735E+02  0.51100000000E-03 0. -1.
        -11    1    3    3    0    0  0.79256516232E+01 -0.34720682584E+01  0.11555976297E+02  0.14436474642E+02  0.51100000000E-03 0.  1.
         12    1    3    3    0    0 -0.21230534388E+01 -0.15097981683E+02 -0.27898849282E+00  0.15249073460E+02  0.00000000000E+00 0. -1.
</event>
<event>
 7    1  0.5913457E-013  0.5052885E+02  0.7816164E-02  0.1300439E+00
        -11   -1    0    0    0    0  0.00000000000E+00  0.00000000000E+00  0.45593999997E+02  0.45594000000E+02  0.51100000000E-03 0.  1.
         11   -1    0    0    0    0 -0.00000000000E+00 -0.00000000000E+00 -0.45593999997E+02  0.45594000000E+02  0.51100000000E-03 0. -1.
    9900012    2    1    2    0    0  0.17350549838E+02 -0.27497128235E+02 -0.24413776684E+02  0.50528854253E+02  0.29999982989E+02 0.  0.
        -12    1    1    2    0    0 -0.17350549838E+02  0.27497128235E+02  0.24413776684E+02  0.40659145747E+02  0.00000000000E+00 0.  1.
         11    1    3    3    0    0  0.26540085467E+00 -0.70534619751E+01 -0.47978520789E+01  0.85347025888E+01  0.51100000000E-03 0. -1.
        -11    1    3    3    0    0 -0.56255493346E+01  0.42842161512E+00 -0.40633041106E+00  0.56564525155E+01  0.51100000000E-03 0.  1.
         12    1    3    3    0    0  0.22710698317E+02 -0.20872087875E+02 -0.19209594194E+02  0.36337699149E+02  0.00000000000E+00 0. -1.
</event>
<event>
 7    1  0.5913457E-013  0.5052887E+02  0.7816164E-02  0.1300439E+00
        -11   -1    0    0    0    0  0.00000000000E+00  0.00000000000E+00  0.45593999997E+02  0.45594000000E+02  0.51100000000E-03 0.  1.
         11   -1    0    0    0    0 -0.00000000000E+00 -0.00000000000E+00 -0.45593999997E+02  0.45594000000E+02  0.51100000000E-03 0. -1.
    9900012    2    1    2    0    0  0.28161290222E+02 -0.21432442759E+02 -0.20018914689E+02  0.50528870461E+02  0.30000032252E+02 0.  0.
        -12    1    1    2    0    0 -0.28161290222E+02  0.21432442759E+02  0.20018914689E+02  0.40659129539E+02  0.00000000000E+00 0.  1.
         11    1    3    3    0    0  0.63614095733E+01 -0.96575610004E+01 -0.10236011119E+02  0.15443831783E+02  0.51100000000E-03 0. -1.
        -11    1    3    3    0    0  0.80902740004E+01 -0.26002437526E+01 -0.15458031631E+02  0.17639856664E+02  0.51100000000E-03 0.  1.
        -12    1    3    3    0    0  0.13709606648E+02 -0.91746380061E+01  0.56751280613E+01  0.17445182014E+02  0.00000000000E+00 0.  1.
</event>
<event>
 7    1  0.5913457E-013  0.5052886E+02  0.7816164E-02  0.1300439E+00
        -11   -1    0    0    0    0  0.00000000000E+00  0.00000000000E+00  0.45593999997E+02  0.45594000000E+02  0.51100000000E-03 0.  1.
         11   -1    0    0    0    0 -0.00000000000E+00 -0.00000000000E+00 -0.45593999997E+02  0.45594000000E+02  0.51100000000E-03 0. -1.
    9900012    2    1    2    0    0 -0.11052538899E+01 -0.30255847640E+02 -0.27139048477E+02  0.50528857672E+02  0.29999993381E+02 0.  0.
        -12    1    1    2    0    0  0.11052538899E+01  0.30255847640E+02  0.27139048477E+02  0.40659142328E+02  0.00000000000E+00 0.  1.
         11    1    3    3    0    0 -0.41673727859E+01 -0.10567769444E+02 -0.11092864771E+02  0.15877543766E+02  0.51100000000E-03 0. -1.
        -11    1    3    3    0    0 -0.86948957062E+01 -0.13443009963E+01 -0.60630978920E+01  0.10685013468E+02  0.51100000000E-03 0.  1.
        -12    1    3    3    0    0  0.11757014602E+02 -0.18343777200E+02 -0.99830858136E+01  0.23966300438E+02  0.00000000000E+00 0.  1.
</event>
<event>
 7    1  0.5913457E-013  0.5052886E+02  0.7816164E-02  0.1300439E+00
        -11   -1    0    0    0    0  0.00000000000E+00  0.00000000000E+00  0.45593999997E+02  0.45594000000E+02  0.51100000000E-03 0.  1.
         11   -1    0    0    0    0 -0.00000000000E+00 -0.00000000000E+00 -0.45593999997E+02  0.45594000000E+02  0.51100000000E-03 0. -1.
    9900012    2    1    2    0    0  0.25007729107E+02  0.19986628077E+02 -0.25066186216E+02  0.50528861932E+02  0.30000006328E+02 0.  0.
        -12    1    1    2    0    0 -0.25007729107E+02 -0.19986628077E+02  0.25066186216E+02  0.40659138068E+02  0.00000000000E+00 0.  1.
         11    1    3    3    0    0  0.92365090097E+01  0.10436005370E+02 -0.83707142341E+01  0.16257065043E+02  0.51100000000E-03 0. -1.
        -11    1    3    3    0    0  0.18504486343E+02  0.12031679963E+02 -0.19643777015E+02  0.29547509425E+02  0.51100000000E-03 0.  1.
        -12    1    3    3    0    0 -0.27332662454E+01 -0.24810572560E+01  0.29483050325E+01  0.47242874637E+01  0.00000000000E+00 0.  1.
</event>
<event>
 7    1  0.5913457E-013  0.5052887E+02  0.7816164E-02  0.1300439E+00
        -11   -1    0    0    0    0  0.00000000000E+00  0.00000000000E+00  0.45593999997E+02  0.45594000000E+02  0.51100000000E-03 0.  1.
         11   -1    0    0    0    0 -0.00000000000E+00 -0.00000000000E+00 -0.45593999997E+02  0.45594000000E+02  0.51100000000E-03 0. -1.
    9900012    2    1    2    0    0  0.32958686626E+02 -0.14770683882E+02 -0.18673966181E+02  0.50528866470E+02  0.30000020121E+02 0.  0.
        -12    1    1    2    0    0 -0.32958686626E+02  0.14770683882E+02  0.18673966181E+02  0.40659133530E+02  0.00000000000E+00 0.  1.
         11    1    3    3    0    0  0.24518617489E+02 -0.89515753787E+01 -0.17391892652E+02  0.31365127699E+02  0.51100000000E-03 0. -1.
        -11    1    3    3    0    0  0.69454718593E+01  0.47619289274E+01 -0.92386357694E+00  0.84716628019E+01  0.51100000000E-03 0.  1.
         12    1    3    3    0    0  0.14945972784E+01 -0.10581037431E+02 -0.35820995234E+00  0.10692075968E+02  0.00000000000E+00 0. -1.
</event>
<event>
 7    1  0.5913457E-013  0.5052884E+02  0.7816164E-02  0.1300439E+00
        -11   -1    0    0    0    0  0.00000000000E+00  0.00000000000E+00  0.45593999997E+02  0.45594000000E+02  0.51100000000E-03 0. -1.
         11   -1    0    0    0    0 -0.00000000000E+00 -0.00000000000E+00 -0.45593999997E+02  0.45594000000E+02  0.51100000000E-03 0.  1.
    9900012    2    1    2    0    0  0.91913634541E+01  0.25407996570E+02  0.30382888691E+02  0.50528838953E+02  0.29999936482E+02 0.  0.
        -12    1    1    2    0    0 -0.91913634541E+01 -0.25407996570E+02 -0.30382888691E+02  0.40659161047E+02  0.00000000000E+00 0.  1.
         11    1    3    3    0    0  0.62886126799E+01  0.19246182209E+02  0.29438753386E+02  0.35729572908E+02  0.51100000000E-03 0. -1.
        -11    1    3    3    0    0 -0.33277708223E+01 -0.10080354547E+01  0.35299260821E+01  0.49548534317E+01  0.51100000000E-03 0.  1.
         12    1    3    3    0    0  0.62305215965E+01  0.71698498161E+01 -0.25857907774E+01  0.98444126130E+01  0.00000000000E+00 0. -1.
</event>
<event>
 7    1  0.5913457E-013  0.5052886E+02  0.7816164E-02  0.1300439E+00
        -11   -1    0    0    0    0  0.00000000000E+00  0.00000000000E+00  0.45593999997E+02  0.45594000000E+02  0.51100000000E-03 0.  1.
         11   -1    0    0    0    0 -0.00000000000E+00 -0.00000000000E+00 -0.45593999997E+02  0.45594000000E+02  0.51100000000E-03 0. -1.
    9900012    2    1    2    0    0 -0.10329886160E+02 -0.31645571022E+02 -0.23345592223E+02  0.50528863393E+02  0.30000010770E+02 0.  0.
        -12    1    1    2    0    0  0.10329886160E+02  0.31645571022E+02  0.23345592223E+02  0.40659136607E+02  0.00000000000E+00 0.  1.
         11    1    3    3    0    0  0.20433485838E+01 -0.71082034784E+01 -0.29336931692E+01  0.79566567098E+01  0.51100000000E-03 0. -1.
        -11    1    3    3    0    0  0.32105603252E+01  0.11601530246E+01  0.29458596454E+01  0.45090732922E+01  0.51100000000E-03 0.  1.
         12    1    3    3    0    0 -0.15583795069E+02 -0.25697520568E+02 -0.23357758700E+02  0.38063133391E+02  0.00000000000E+00 0. -1.
</event>
<event>
 7    1  0.5913457E-013  0.5052885E+02  0.7816164E-02  0.1300439E+00
        -11   -1    0    0    0    0  0.00000000000E+00  0.00000000000E+00  0.45593999997E+02  0.45594000000E+02  0.51100000000E-03 0. -1.
         11   -1    0    0    0    0 -0.00000000000E+00 -0.00000000000E+00 -0.45593999997E+02  0.45594000000E+02  0.51100000000E-03 0.  1.
    9900012    2    1    2    0    0  0.12500423875E+01 -0.38657903192E+02  0.12536752132E+02  0.50528852945E+02  0.29999979012E+02 0.  0.
        -12    1    1    2    0    0 -0.12500423875E+01  0.38657903192E+02 -0.12536752132E+02  0.40659147055E+02  0.00000000000E+00 0.  1.
         11    1    3    3    0    0 -0.59134877884E+01 -0.50231943118E+01  0.34571462550E+00  0.77666812592E+01  0.51100000000E-03 0. -1.
        -11    1    3    3    0    0 -0.46707885395E+01 -0.30059473581E+01 -0.32947815650E+01  0.64581398965E+01  0.51100000000E-03 0.  1.
         12    1    3    3    0    0  0.11834318715E+02 -0.30628761522E+02  0.15485819072E+02  0.36304031790E+02  0.00000000000E+00 0. -1.
</event>
<event>
 7    1  0.5913457E-013  0.5052886E+02  0.7816164E-02  0.1300439E+00
        -11   -1    0    0    0    0  0.00000000000E+00  0.00000000000E+00  0.45593999997E+02  0.45594000000E+02  0.51100000000E-03 0. -1.
         11   -1    0    0    0    0 -0.00000000000E+00 -0.00000000000E+00 -0.45593999997E+02  0.45594000000E+02  0.51100000000E-03 0.  1.
    9900012    2    1    2    0    0 -0.18805888272E+02 -0.29566380439E+02 -0.20623606533E+02  0.50528862867E+02  0.30000009170E+02 0.  0.
        -12    1    1    2    0    0  0.18805888272E+02  0.29566380439E+02  0.20623606533E+02  0.40659137133E+02  0.00000000000E+00 0.  1.
         11    1    3    3    0    0 -0.13037240440E+02 -0.75818213063E+01 -0.10144905714E+02  0.18176159243E+02  0.51100000000E-03 0. -1.
        -11    1    3    3    0    0 -0.11354261840E+02 -0.49686835607E+01 -0.20614940464E+01  0.12564109050E+02  0.51100000000E-03 0.  1.
         12    1    3    3    0    0  0.55856140085E+01 -0.17015875572E+02 -0.84172067724E+01  0.19788594574E+02  0.00000000000E+00 0. -1.
</event>
<event>
 7    1  0.5913457E-013  0.5052885E+02  0.7816164E-02  0.1300439E+00
        -11   -1    0    0    0    0  0.00000000000E+00  0.00000000000E+00  0.45593999997E+02  0.45594000000E+02  0.51100000000E-03 0.  1.
         11   -1    0    0    0    0 -0.00000000000E+00 -0.00000000000E+00 -0.45593999997E+02  0.45594000000E+02  0.51100000000E-03 0. -1.
    9900012    2    1    2    0    0 -0.87679037635E+00  0.26544563681E+02 -0.30786102552E+02  0.50528846876E+02  0.29999960565E+02 0.  0.
        -12    1    1    2    0    0  0.87679037635E+00 -0.26544563681E+02  0.30786102552E+02  0.40659153124E+02  0.00000000000E+00 0.  1.
         11    1    3    3    0    0 -0.66220310504E+01  0.11378504562E+02 -0.11390444334E+02  0.17408730100E+02  0.51100000000E-03 0. -1.
        -11    1    3    3    0    0  0.85544618969E-01  0.19591932299E+02 -0.13108729776E+02  0.23573076288E+02  0.51100000000E-03 0.  1.
         12    1    3    3    0    0  0.56596960551E+01 -0.44258731801E+01 -0.62869284423E+01  0.95470404880E+01  0.00000000000E+00 0. -1.
</event>
<event>
 7    1  0.5913457E-013  0.5052886E+02  0.7816164E-02  0.1300439E+00
        -11   -1    0    0    0    0  0.00000000000E+00  0.00000000000E+00  0.45593999997E+02  0.45594000000E+02  0.51100000000E-03 0.  1.
         11   -1    0    0    0    0 -0.00000000000E+00 -0.00000000000E+00 -0.45593999997E+02  0.45594000000E+02  0.51100000000E-03 0. -1.
    9900012    2    1    2    0    0  0.35994162734E+02  0.15339054852E+02 -0.11058884545E+02  0.50528864716E+02  0.30000014790E+02 0.  0.
        -12    1    1    2    0    0 -0.35994162734E+02 -0.15339054852E+02  0.11058884545E+02  0.40659135284E+02  0.00000000000E+00 0.  1.
         11    1    3    3    0    0  0.98307093831E+01 -0.50725925570E+00 -0.90561589210E+01  0.13375880292E+02  0.51100000000E-03 0. -1.
        -11    1    3    3    0    0  0.45985993845E+01  0.11039315158E+02 -0.78414216404E+01  0.14300401710E+02  0.51100000000E-03 0.  1.
         12    1    3    3    0    0  0.21564853967E+02  0.48069989496E+01  0.58386960166E+01  0.22852582713E+02  0.00000000000E+00 0. -1.
</event>
<event>
 7    1  0.5913457E-013  0.5052884E+02  0.7816164E-02  0.1300439E+00
        -11   -1    0    0    0    0  0.00000000000E+00  0.00000000000E+00  0.45593999997E+02  0.45594000000E+02  0.51100000000E-03 0. -1.
         11   -1    0    0    0    0 -0.00000000000E+00 -0.00000000000E+00 -0.45593999997E+02  0.45594000000E+02  0.51100000000E-03 0.  1.
    9900012    2    1    2    0    0  0.28635506689E+02 -0.28796106126E+02 -0.19897210673E+01  0.50528844066E+02  0.29999952023E+02 0.  0.
        -12    1    1    2    0    0 -0.28635506689E+02  0.28796106126E+02  0.19897210673E+01  0.40659155934E+02  0.00000000000E+00 0.  1.
         11    1    3    3    0    0  0.13073539221E+00  0.10034031686E+00 -0.56227795028E+01  0.56251941762E+01  0.51100000000E-03 0. -1.
        -11    1    3    3    0    0  0.19610591187E+02 -0.29905865735E+02  0.36910038452E+01  0.35952184937E+02  0.51100000000E-03 0.  1.
         12    1    3    3    0    0  0.88941801098E+01  0.10094192929E+01 -0.57945409730E-01  0.89514649530E+01  0.00000000000E+00 0. -1.
</event>
<event>
 7    1  0.5913457E-013  0.5052886E+02  0.7816164E-02  0.1300439E+00
        -11   -1    0    0    0    0  0.00000000000E+00  0.00000000000E+00  0.45593999997E+02  0.45594000000E+02  0.51100000000E-03 0.  1.
         11   -1    0    0    0    0 -0.00000000000E+00 -0.00000000000E+00 -0.45593999997E+02  0.45594000000E+02  0.51100000000E-03 0. -1.
    9900012    2    1    2    0    0 -0.17049719608E+02 -0.32630088929E+02 -0.17255439991E+02  0.50528857713E+02  0.29999993505E+02 0.  0.
        -12    1    1    2    0    0  0.17049719608E+02  0.32630088929E+02  0.17255439991E+02  0.40659142287E+02  0.00000000000E+00 0.  1.
         11    1    3    3    0    0 -0.29947119555E+01 -0.14995836589E+02 -0.58822577174E+01  0.16384272057E+02  0.51100000000E-03 0. -1.
        -11    1    3    3    0    0 -0.31977499514E+01 -0.18360593686E+02 -0.13556802759E+02  0.23046125630E+02  0.51100000000E-03 0.  1.
        -12    1    3    3    0    0 -0.10857257701E+02  0.72634134622E+00  0.21836204854E+01  0.11098460026E+02  0.00000000000E+00 0.  1.
</event>
<event>
 7    1  0.5913457E-013  0.5052885E+02  0.7816164E-02  0.1300439E+00
        -11   -1    0    0    0    0  0.00000000000E+00  0.00000000000E+00  0.45593999997E+02  0.45594000000E+02  0.51100000000E-03 0. -1.
         11   -1    0    0    0    0 -0.00000000000E+00 -0.00000000000E+00 -0.45593999997E+02  0.45594000000E+02  0.51100000000E-03 0.  1.
    9900012    2    1    2    0    0 -0.28753254075E+01  0.34833288813E+02  0.20773561522E+02  0.50528851411E+02  0.29999974348E+02 0.  0.
        -12    1    1    2    0    0  0.28753254075E+01 -0.34833288813E+02 -0.20773561522E+02  0.40659148589E+02  0.00000000000E+00 0.  1.
         11    1    3    3    0    0  0.64033231937E+01  0.24821307604E+02  0.10542272530E+02  0.27717131335E+02  0.51100000000E-03 0. -1.
        -11    1    3    3    0    0  0.58456654134E+00  0.98294041322E+01  0.80258945055E+01  0.12703302189E+02  0.51100000000E-03 0.  1.
        -12    1    3    3    0    0 -0.98632151425E+01  0.18257707687E+00  0.22053944862E+01  0.10108417887E+02  0.00000000000E+00 0.  1.
</event>
<event>
 7    1  0.5913457E-013  0.5052886E+02  0.7816164E-02  0.1300439E+00
        -11   -1    0    0    0    0  0.00000000000E+00  0.00000000000E+00  0.45593999997E+02  0.45594000000E+02  0.51100000000E-03 0. -1.
         11   -1    0    0    0    0 -0.00000000000E+00 -0.00000000000E+00 -0.45593999997E+02  0.45594000000E+02  0.51100000000E-03 0.  1.
    9900012    2    1    2    0    0  0.14303122741E+02 -0.37838959933E+02 -0.40987106901E+01  0.50528860335E+02  0.30000001474E+02 0.  0.
        -12    1    1    2    0    0 -0.14303122741E+02  0.37838959933E+02  0.40987106901E+01  0.40659139665E+02  0.00000000000E+00 0.  1.
         11    1    3    3    0    0  0.23668192457E+01 -0.31584083431E+02 -0.80439883769E+01  0.32678156447E+02  0.51100000000E-03 0. -1.
        -11    1    3    3    0    0  0.25974539249E+01 -0.35353491368E+01 -0.34914322150E+01  0.56067423326E+01  0.51100000000E-03 0.  1.
         12    1    3    3    0    0  0.93388495709E+01 -0.27195273656E+01  0.74367099018E+01  0.12243961555E+02  0.00000000000E+00 0. -1.
</event>
<event>
 7    1  0.5913457E-013  0.5052888E+02  0.7816164E-02  0.1300439E+00
        -11   -1    0    0    0    0  0.00000000000E+00  0.00000000000E+00  0.45593999997E+02  0.45594000000E+02  0.51100000000E-03 0.  1.
         11   -1    0    0    0    0 -0.00000000000E+00 -0.00000000000E+00 -0.45593999997E+02  0.45594000000E+02  0.51100000000E-03 0. -1.
    9900012    2    1    2    0    0  0.60441242989E+01 -0.32776035462E+02 -0.23288715065E+02  0.50528878163E+02  0.30000055664E+02 0.  0.
        -12    1    1    2    0    0 -0.60441242989E+01  0.32776035462E+02  0.23288715065E+02  0.40659121837E+02  0.00000000000E+00 0.  1.
         11    1    3    3    0    0  0.10496796957E+02 -0.15379138073E+02 -0.16454034544E+02  0.24848257228E+02  0.51100000000E-03 0. -1.
        -11    1    3    3    0    0 -0.35347129600E+01 -0.20547934869E+02 -0.77977626932E+01  0.22260209486E+02  0.51100000000E-03 0.  1.
        -12    1    3    3    0    0 -0.91795969852E+00  0.31510374798E+01  0.96308217219E+00  0.34204114486E+01  0.00000000000E+00 0.  1.
</event>
<event>
 7    1  0.5913457E-013  0.5052885E+02  0.7816164E-02  0.1300439E+00
        -11   -1    0    0    0    0  0.00000000000E+00  0.00000000000E+00  0.45593999997E+02  0.45594000000E+02  0.51100000000E-03 0.  1.
         11   -1    0    0    0    0 -0.00000000000E+00 -0.00000000000E+00 -0.45593999997E+02  0.45594000000E+02  0.51100000000E-03 0. -1.
    9900012    2    1    2    0    0 -0.36861889992E+02 -0.16561680209E+02 -0.44808384152E+01  0.50528854682E+02  0.29999984291E+02 0.  0.
        -12    1    1    2    0    0  0.36861889992E+02  0.16561680209E+02  0.44808384152E+01  0.40659145318E+02  0.00000000000E+00 0.  1.
         11    1    3    3    0    0 -0.19903857708E+02 -0.16458890563E+02 -0.14455886322E+01  0.25867902060E+02  0.51100000000E-03 0.  1.
        -11    1    3    3    0    0 -0.16354164367E+02 -0.50530197593E+01  0.24001264818E+01  0.17284452790E+02  0.51100000000E-03 0. -1.
        -12    1    3    3    0    0 -0.60386791640E+00  0.49502301135E+01 -0.54353762648E+01  0.73764998323E+01  0.00000000000E+00 0.  1.
</event>
<event>
 7    1  0.5913457E-013  0.5052886E+02  0.7816164E-02  0.1300439E+00
        -11   -1    0    0    0    0  0.00000000000E+00  0.00000000000E+00  0.45593999997E+02  0.45594000000E+02  0.51100000000E-03 0.  1.
         11   -1    0    0    0    0 -0.00000000000E+00 -0.00000000000E+00 -0.45593999997E+02  0.45594000000E+02  0.51100000000E-03 0. -1.
    9900012    2    1    2    0    0 -0.23085364878E+02 -0.33946880726E+01 -0.33297266683E+02  0.50528856536E+02  0.29999989926E+02 0.  0.
        -12    1    1    2    0    0  0.23085364878E+02  0.33946880726E+01  0.33297266683E+02  0.40659143464E+02  0.00000000000E+00 0.  1.
         11    1    3    3    0    0 -0.71139545182E+01  0.11336987634E+02 -0.14018650780E+02  0.19381904124E+02  0.51100000000E-03 0. -1.
        -11    1    3    3    0    0  0.21570726330E+00  0.15086047609E+01 -0.99293537249E+00  0.18188839609E+01  0.51100000000E-03 0.  1.
        -12    1    3    3    0    0 -0.16187117623E+02 -0.16240280468E+02 -0.18285680531E+02  0.29328068451E+02  0.00000000000E+00 0.  1.
</event>
<event>
 7    1  0.5913457E-013  0.5052885E+02  0.7816164E-02  0.1300439E+00
        -11   -1    0    0    0    0  0.00000000000E+00  0.00000000000E+00  0.45593999997E+02  0.45594000000E+02  0.51100000000E-03 0. -1.
         11   -1    0    0    0    0 -0.00000000000E+00 -0.00000000000E+00 -0.45593999997E+02  0.45594000000E+02  0.51100000000E-03 0.  1.
    9900012    2    1    2    0    0  0.39002283078E+02  0.11487773406E+02 -0.13889730331E+00  0.50528852006E+02  0.29999976156E+02 0.  0.
        -12    1    1    2    0    0 -0.39002283078E+02 -0.11487773406E+02  0.13889730331E+00  0.40659147994E+02  0.00000000000E+00 0.  1.
         11    1    3    3    0    0  0.97142408533E+00  0.51762348699E+01  0.43656776282E+01  0.68407758037E+01  0.51100000000E-03 0. -1.
        -11    1    3    3    0    0  0.24122191311E+01  0.18141768557E+01  0.56261632952E+01  0.63846497544E+01  0.51100000000E-03 0.  1.
         12    1    3    3    0    0  0.35618639862E+02  0.44973616808E+01 -0.10130738227E+02  0.37303426448E+02  0.00000000000E+00 0. -1.
</event>
<event>
 7    1  0.5913457E-013  0.5052885E+02  0.7816164E-02  0.1300439E+00
        -11   -1    0    0    0    0  0.00000000000E+00  0.00000000000E+00  0.45593999997E+02  0.45594000000E+02  0.51100000000E-03 0.  1.
         11   -1    0    0    0    0 -0.00000000000E+00 -0.00000000000E+00 -0.45593999997E+02  0.45594000000E+02  0.51100000000E-03 0. -1.
    9900012    2    1    2    0    0 -0.33763130898E+02  0.11331691260E+01 -0.22625948911E+02  0.50528847962E+02  0.29999963865E+02 0.  0.
        -12    1    1    2    0    0  0.33763130898E+02 -0.11331691260E+01  0.22625948911E+02  0.40659152038E+02  0.00000000000E+00 0.  1.
         11    1    3    3    0    0 -0.13245700992E+01 -0.31961675265E+01 -0.36016700755E+01  0.49941966721E+01  0.51100000000E-03 0. -1.
        -11    1    3    3    0    0 -0.24441561297E+02 -0.87115287212E+01 -0.10245856635E+02  0.27897279970E+02  0.51100000000E-03 0.  1.
        -12    1    3    3    0    0 -0.79969995026E+01  0.13040865374E+02 -0.87784222009E+01  0.17637371320E+02  0.00000000000E+00 0.  1.
</event>
<event>
 7    1  0.5913457E-013  0.5052886E+02  0.7816164E-02  0.1300439E+00
        -11   -1    0    0    0    0  0.00000000000E+00  0.00000000000E+00  0.45593999997E+02  0.45594000000E+02  0.51100000000E-03 0.  1.
         11   -1    0    0    0    0 -0.00000000000E+00 -0.00000000000E+00 -0.45593999997E+02  0.45594000000E+02  0.51100000000E-03 0. -1.
    9900012    2    1    2    0    0 -0.35147279667E+01  0.31227076606E+02 -0.25800809735E+02  0.50528863154E+02  0.30000010043E+02 0.  0.
        -12    1    1    2    0    0  0.35147279667E+01 -0.31227076606E+02  0.25800809735E+02  0.40659136846E+02  0.00000000000E+00 0.  1.
         11    1    3    3    0    0 -0.79510593727E+01  0.17608915331E+02 -0.10121499601E+02  0.21811418998E+02  0.51100000000E-03 0. -1.
        -11    1    3    3    0    0  0.18635261201E+01 -0.14593887216E+01  0.34755448841E+01  0.42049919791E+01  0.51100000000E-03 0.  1.
        -12    1    3    3    0    0  0.25728052860E+01  0.15077549997E+02 -0.19154855018E+02  0.24512452177E+02  0.00000000000E+00 0.  1.
</event>
<event>
 7    1  0.5913457E-013  0.5052887E+02  0.7816164E-02  0.1300439E+00
        -11   -1    0    0    0    0  0.00000000000E+00  0.00000000000E+00  0.45593999997E+02  0.45594000000E+02  0.51100000000E-03 0.  1.
         11   -1    0    0    0    0 -0.00000000000E+00 -0.00000000000E+00 -0.45593999997E+02  0.45594000000E+02  0.51100000000E-03 0. -1.
    9900012    2    1    2    0    0 -0.12916016280E+02  0.16764079425E+02 -0.34717534430E+02  0.50528867786E+02  0.30000024122E+02 0.  0.
        -12    1    1    2    0    0  0.12916016280E+02 -0.16764079425E+02  0.34717534430E+02  0.40659132214E+02  0.00000000000E+00 0.  1.
         11    1    3    3    0    0 -0.16932357963E+01  0.12028489166E+02 -0.27401242514E+02  0.29972982678E+02  0.51100000000E-03 0. -1.
        -11    1    3    3    0    0  0.26957391490E+01  0.29120132352E+01  0.11892884502E+01  0.41426124511E+01  0.51100000000E-03 0.  1.
         12    1    3    3    0    0 -0.13918519633E+02  0.18235770239E+01 -0.85055803662E+01  0.16413272657E+02  0.00000000000E+00 0. -1.
</event>
<event>
 7    1  0.5913457E-013  0.5052886E+02  0.7816164E-02  0.1300439E+00
        -11   -1    0    0    0    0  0.00000000000E+00  0.00000000000E+00  0.45593999997E+02  0.45594000000E+02  0.51100000000E-03 0. -1.
         11   -1    0    0    0    0 -0.00000000000E+00 -0.00000000000E+00 -0.45593999997E+02  0.45594000000E+02  0.51100000000E-03 0.  1.
    9900012    2    1    2    0    0  0.27247200808E+02  0.27645448831E+02  0.12103099427E+02  0.50528858239E+02  0.29999995104E+02 0.  0.
        -12    1    1    2    0    0 -0.27247200808E+02 -0.27645448831E+02 -0.12103099427E+02  0.40659141761E+02  0.00000000000E+00 0.  1.
         11    1    3    3    0    0  0.98183419849E+01  0.12559636305E+02  0.17728560666E+02  0.23842109114E+02  0.51100000000E-03 0. -1.
        -11    1    3    3    0    0  0.41477475501E+01  0.11280699830E+02 -0.77301908741E+00  0.12043901243E+02  0.51100000000E-03 0.  1.
        -12    1    3    3    0    0  0.13281111273E+02  0.38051126964E+01 -0.48524421507E+01  0.14642847883E+02  0.00000000000E+00 0.  1.
</event>
<event>
 7    1  0.5913457E-013  0.5052885E+02  0.7816164E-02  0.1300439E+00
        -11   -1    0    0    0    0  0.00000000000E+00  0.00000000000E+00  0.45593999997E+02  0.45594000000E+02  0.51100000000E-03 0.  1.
         11   -1    0    0    0    0 -0.00000000000E+00 -0.00000000000E+00 -0.45593999997E+02  0.45594000000E+02  0.51100000000E-03 0. -1.
    9900012    2    1    2    0    0  0.33782534516E+02  0.40034664958E+01 -0.22268343897E+02  0.50528849465E+02  0.29999968434E+02 0.  0.
        -12    1    1    2    0    0 -0.33782534516E+02 -0.40034664958E+01  0.22268343897E+02  0.40659150535E+02  0.00000000000E+00 0.  1.
         11    1    3    3    0    0  0.53248034426E+01  0.39837264098E+00  0.15816386425E+01  0.55690047154E+01  0.51100000000E-03 0. -1.
        -11    1    3    3    0    0  0.12514364156E+01  0.76588648259E+01  0.10819641612E+01  0.78354929794E+01  0.51100000000E-03 0.  1.
         12    1    3    3    0    0  0.27206294657E+02 -0.40537709710E+01 -0.24931946701E+02  0.37124351770E+02  0.00000000000E+00 0. -1.
</event>
<event>
 7    1  0.5913457E-013  0.5052882E+02  0.7816164E-02  0.1300439E+00
        -11   -1    0    0    0    0  0.00000000000E+00  0.00000000000E+00  0.45593999997E+02  0.45594000000E+02  0.51100000000E-03 0. -1.
         11   -1    0    0    0    0 -0.00000000000E+00 -0.00000000000E+00 -0.45593999997E+02  0.45594000000E+02  0.51100000000E-03 0.  1.
    9900012    2    1    2    0    0  0.28040779036E+02 -0.28973577284E+02  0.52359439050E+01  0.50528824183E+02  0.29999891585E+02 0.  0.
        -12    1    1    2    0    0 -0.28040779036E+02  0.28973577284E+02 -0.52359439050E+01  0.40659175817E+02  0.00000000000E+00 0.  1.
         11    1    3    3    0    0  0.56541110082E+01 -0.57341058973E+01  0.98168764473E+01  0.12697243999E+02  0.51100000000E-03 0. -1.
        -11    1    3    3    0    0 -0.43696119459E+00 -0.65345143998E+00  0.44157044258E+01  0.44851287281E+01  0.51100000000E-03 0.  1.
        -12    1    3    3    0    0  0.22823629222E+02 -0.22586019947E+02 -0.89966369681E+01  0.33346451455E+02  0.00000000000E+00 0.  1.
</event>
<event>
 7    1  0.5913457E-013  0.5052886E+02  0.7816164E-02  0.1300439E+00
        -11   -1    0    0    0    0  0.00000000000E+00  0.00000000000E+00  0.45593999997E+02  0.45594000000E+02  0.51100000000E-03 0. -1.
         11   -1    0    0    0    0 -0.00000000000E+00 -0.00000000000E+00 -0.45593999997E+02  0.45594000000E+02  0.51100000000E-03 0.  1.
    9900012    2    1    2    0    0 -0.16494883546E+02 -0.34812460330E+02 -0.13006816155E+02  0.50528857806E+02  0.29999993788E+02 0.  0.
        -12    1    1    2    0    0  0.16494883546E+02  0.34812460330E+02  0.13006816155E+02  0.40659142194E+02  0.00000000000E+00 0.  1.
         11    1    3    3    0    0 -0.16026047094E+02 -0.24896335533E+02 -0.16113023156E+02  0.33708919056E+02  0.51100000000E-03 0.  1.
        -11    1    3    3    0    0  0.19502779495E+01 -0.10137588833E+02 -0.25761904359E+01  0.10640068085E+02  0.51100000000E-03 0. -1.
        -12    1    3    3    0    0 -0.24191144017E+01  0.22146403575E+00  0.56823974372E+01  0.61798706655E+01  0.00000000000E+00 0.  1.
</event>
<event>
 7    1  0.5913457E-013  0.5052873E+02  0.7816164E-02  0.1300439E+00
        -11   -1    0    0    0    0  0.00000000000E+00  0.00000000000E+00  0.45593999997E+02  0.45594000000E+02  0.51100000000E-03 0. -1.
         11   -1    0    0    0    0 -0.00000000000E+00 -0.00000000000E+00 -0.45593999997E+02  0.45594000000E+02  0.51100000000E-03 0.  1.
    9900012    2    1    2    0    0  0.26596484398E+02 -0.30619689781E+02  0.28702201794E+01  0.50528726169E+02  0.29999593660E+02 0.  0.
        -12    1    1    2    0    0 -0.26596484398E+02  0.30619689781E+02 -0.28702201794E+01  0.40659273831E+02  0.00000000000E+00 0.  1.
         11    1    3    3    0    0  0.55641864683E+01  0.42415840298E+01  0.29071620835E+01  0.75764634083E+01  0.51100000000E-03 0. -1.
        -11    1    3    3    0    0  0.91272741410E+01 -0.48423170116E+01  0.22624643835E+01  0.10577046499E+02  0.51100000000E-03 0.  1.
        -12    1    3    3    0    0  0.11905023788E+02 -0.30018956799E+02 -0.22994062876E+01  0.32375216262E+02  0.00000000000E+00 0.  1.
</event>
<event>
 7    1  0.5913457E-013  0.5052886E+02  0.7816164E-02  0.1300439E+00
        -11   -1    0    0    0    0  0.00000000000E+00  0.00000000000E+00  0.45593999997E+02  0.45594000000E+02  0.51100000000E-03 0. -1.
         11   -1    0    0    0    0 -0.00000000000E+00 -0.00000000000E+00 -0.45593999997E+02  0.45594000000E+02  0.51100000000E-03 0.  1.
    9900012    2    1    2    0    0 -0.16742404169E+02 -0.36731879794E+02  0.48607073557E+01  0.50528861217E+02  0.30000004154E+02 0.  0.
        -12    1    1    2    0    0  0.16742404169E+02  0.36731879794E+02 -0.48607073557E+01  0.40659138783E+02  0.00000000000E+00 0.  1.
         11    1    3    3    0    0 -0.12594182714E+02 -0.68552936579E+01  0.16456619167E+01  0.14433180273E+02  0.51100000000E-03 0. -1.
        -11    1    3    3    0    0 -0.65067261733E+01 -0.50393543794E+01 -0.52358319756E+01  0.97543074995E+01  0.51100000000E-03 0.  1.
         12    1    3    3    0    0  0.23585047183E+01 -0.24837231757E+02  0.84508774146E+01  0.26341373444E+02  0.00000000000E+00 0. -1.
</event>
<event>
 7    1  0.5913457E-013  0.5052887E+02  0.7816164E-02  0.1300439E+00
        -11   -1    0    0    0    0  0.00000000000E+00  0.00000000000E+00  0.45593999997E+02  0.45594000000E+02  0.51100000000E-03 0. -1.
         11   -1    0    0    0    0 -0.00000000000E+00 -0.00000000000E+00 -0.45593999997E+02  0.45594000000E+02  0.51100000000E-03 0.  1.
    9900012    2    1    2    0    0  0.35079649270E+02  0.12904380560E+01  0.20516290055E+02  0.50528865960E+02  0.30000018571E+02 0.  0.
        -12    1    1    2    0    0 -0.35079649270E+02 -0.12904380560E+01 -0.20516290055E+02  0.40659134040E+02  0.00000000000E+00 0.  1.
         11    1    3    3    0    0  0.42395107031E+01  0.10262163014E+02  0.61840322484E+01  0.12709354659E+02  0.51100000000E-03 0. -1.
        -11    1    3    3    0    0  0.27005841519E+01  0.26941199102E+01 -0.65484842909E+00  0.38704345464E+01  0.51100000000E-03 0.  1.
        -12    1    3    3    0    0  0.28139554415E+02 -0.11665844868E+02  0.14987106235E+02  0.33949076755E+02  0.00000000000E+00 0.  1.
</event>
<event>
 7    1  0.5913457E-013  0.5052886E+02  0.7816164E-02  0.1300439E+00
        -11   -1    0    0    0    0  0.00000000000E+00  0.00000000000E+00  0.45593999997E+02  0.45594000000E+02  0.51100000000E-03 0. -1.
         11   -1    0    0    0    0 -0.00000000000E+00 -0.00000000000E+00 -0.45593999997E+02  0.45594000000E+02  0.51100000000E-03 0.  1.
    9900012    2    1    2    0    0  0.38252521093E+02  0.60683190765E+01  0.12372779744E+02  0.50528861483E+02  0.30000004964E+02 0.  0.
        -12    1    1    2    0    0 -0.38252521093E+02 -0.60683190765E+01 -0.12372779744E+02  0.40659138517E+02  0.00000000000E+00 0.  1.
         11    1    3    3    0    0  0.29319326336E+01 -0.29660333650E+01 -0.26665917194E+01  0.49501812643E+01  0.51100000000E-03 0. -1.
        -11    1    3    3    0    0  0.84920388190E+01 -0.48254515267E+01 -0.32271442037E+01  0.10286601271E+02  0.51100000000E-03 0.  1.
         12    1    3    3    0    0  0.26828549640E+02  0.13859803968E+02  0.18266515667E+02  0.35292078948E+02  0.00000000000E+00 0. -1.
</event>
<event>
 7    1  0.5913457E-013  0.5052887E+02  0.7816164E-02  0.1300439E+00
        -11   -1    0    0    0    0  0.00000000000E+00  0.00000000000E+00  0.45593999997E+02  0.45594000000E+02  0.51100000000E-03 0.  1.
         11   -1    0    0    0    0 -0.00000000000E+00 -0.00000000000E+00 -0.45593999997E+02  0.45594000000E+02  0.51100000000E-03 0. -1.
    9900012    2    1    2    0    0 -0.81219716008E+01 -0.14046492328E+02 -0.37281287597E+02  0.50528870959E+02  0.30000033768E+02 0.  0.
        -12    1    1    2    0    0  0.81219716008E+01  0.14046492328E+02  0.37281287597E+02  0.40659129041E+02  0.00000000000E+00 0.  1.
         11    1    3    3    0    0 -0.38313276884E+01  0.29223940049E+01 -0.19052876487E+00  0.48224226326E+01  0.51100000000E-03 0. -1.
        -11    1    3    3    0    0 -0.80951701875E+01 -0.50203473022E+01 -0.40216725930E+01  0.10339705900E+02  0.51100000000E-03 0.  1.
         12    1    3    3    0    0  0.38045262750E+01 -0.11948539031E+02 -0.33069086240E+02  0.35366742427E+02  0.00000000000E+00 0. -1.
</event>
<event>
 7    1  0.5913457E-013  0.5052888E+02  0.7816164E-02  0.1300439E+00
        -11   -1    0    0    0    0  0.00000000000E+00  0.00000000000E+00  0.45593999997E+02  0.45594000000E+02  0.51100000000E-03 0. -1.
         11   -1    0    0    0    0 -0.00000000000E+00 -0.00000000000E+00 -0.45593999997E+02  0.45594000000E+02  0.51100000000E-03 0.  1.
    9900012    2    1    2    0    0  0.20092500392E+02 -0.84939634011E+01  0.34311925029E+02  0.50528878201E+02  0.30000055780E+02 0.  0.
        -12    1    1    2    0    0 -0.20092500392E+02  0.84939634011E+01 -0.34311925029E+02  0.40659121799E+02  0.00000000000E+00 0.  1.
         11    1    3    3    0    0 -0.32909516724E+01  0.31578081337E+01  0.37508233078E+01  0.59051495211E+01  0.51100000000E-03 0. -1.
        -11    1    3    3    0    0 -0.18444960266E+01  0.28564652160E+01  0.28112034919E+01  0.44118504572E+01  0.51100000000E-03 0.  1.
        -12    1    3    3    0    0  0.25227948091E+02 -0.14508236751E+02  0.27749898229E+02  0.40211878223E+02  0.00000000000E+00 0.  1.
</event>
<event>
 7    1  0.5913457E-013  0.5052887E+02  0.7816164E-02  0.1300439E+00
        -11   -1    0    0    0    0  0.00000000000E+00  0.00000000000E+00  0.45593999997E+02  0.45594000000E+02  0.51100000000E-03 0.  1.
         11   -1    0    0    0    0 -0.00000000000E+00 -0.00000000000E+00 -0.45593999997E+02  0.45594000000E+02  0.51100000000E-03 0. -1.
    9900012    2    1    2    0    0  0.29109289059E+02  0.25764560508E+02 -0.11916437756E+02  0.50528870933E+02  0.30000033689E+02 0.  0.
        -12    1    1    2    0    0 -0.29109289059E+02 -0.25764560508E+02  0.11916437756E+02  0.40659129067E+02  0.00000000000E+00 0.  1.
         11    1    3    3    0    0  0.19506953363E+01  0.71107605906E+01 -0.13939746710E+01  0.75040851619E+01  0.51100000000E-03 0. -1.
        -11    1    3    3    0    0  0.14210336840E+02  0.23353043400E+02 -0.34894076990E+01  0.27558560839E+02  0.51100000000E-03 0.  1.
        -12    1    3    3    0    0  0.12948256882E+02 -0.46992434828E+01 -0.70330553858E+01  0.15466224933E+02  0.00000000000E+00 0.  1.
</event>
<event>
 7    1  0.5913457E-013  0.5052886E+02  0.7816164E-02  0.1300439E+00
        -11   -1    0    0    0    0  0.00000000000E+00  0.00000000000E+00  0.45593999997E+02  0.45594000000E+02  0.51100000000E-03 0. -1.
         11   -1    0    0    0    0 -0.00000000000E+00 -0.00000000000E+00 -0.45593999997E+02  0.45594000000E+02  0.51100000000E-03 0.  1.
    9900012    2    1    2    0    0 -0.68984028469E+01  0.38064977833E+02  0.12515410177E+02  0.50528855996E+02  0.29999988285E+02 0.  0.
        -12    1    1    2    0    0  0.68984028469E+01 -0.38064977833E+02 -0.12515410177E+02  0.40659144004E+02  0.00000000000E+00 0.  1.
         11    1    3    3    0    0 -0.44619935423E+01  0.20138145136E+02  0.65219574432E+01  0.21633081265E+02  0.51100000000E-03 0. -1.
        -11    1    3    3    0    0  0.87058303026E+01  0.10206380879E+02  0.73082753405E+01  0.15276536931E+02  0.51100000000E-03 0.  1.
        -12    1    3    3    0    0 -0.11142239607E+02  0.77204518184E+01 -0.13148226070E+01  0.13619237799E+02  0.00000000000E+00 0.  1.
</event>
<event>
 7    1  0.5913457E-013  0.5052886E+02  0.7816164E-02  0.1300439E+00
        -11   -1    0    0    0    0  0.00000000000E+00  0.00000000000E+00  0.45593999997E+02  0.45594000000E+02  0.51100000000E-03 0.  1.
         11   -1    0    0    0    0 -0.00000000000E+00 -0.00000000000E+00 -0.45593999997E+02  0.45594000000E+02  0.51100000000E-03 0. -1.
    9900012    2    1    2    0    0 -0.13716401611E+01 -0.20513371681E+01 -0.40584182762E+02  0.50528864847E+02  0.30000015190E+02 0.  0.
        -12    1    1    2    0    0  0.13716401611E+01  0.20513371681E+01  0.40584182762E+02  0.40659135153E+02  0.00000000000E+00 0.  1.
         11    1    3    3    0    0 -0.81063413220E+01 -0.65458587361E+01 -0.12050639313E+02  0.15930440808E+02  0.51100000000E-03 0. -1.
        -11    1    3    3    0    0  0.26169321528E+01 -0.41169747117E+01 -0.23111232420E+02  0.23620475839E+02  0.51100000000E-03 0.  1.
        -12    1    3    3    0    0  0.41177690081E+01  0.86114962797E+01 -0.54223110295E+01  0.10977948200E+02  0.00000000000E+00 0.  1.
</event>
<event>
 7    1  0.5973230E-013  0.5052887E+02  0.7816164E-02  0.1300439E+00
        -11   -1    0    0    0    0  0.00000000000E+00  0.00000000000E+00  0.45593999997E+02  0.45594000000E+02  0.51100000000E-03 0. -1.
         11   -1    0    0    0    0 -0.00000000000E+00 -0.00000000000E+00 -0.45593999997E+02  0.45594000000E+02  0.51100000000E-03 0.  1.
    9900012    2    1    2    0    0  0.19582320695E+02  0.35574717402E+02 -0.20340166800E+01  0.50528867867E+02  0.30000024367E+02 0.  0.
        -12    1    1    2    0    0 -0.19582320695E+02 -0.35574717402E+02  0.20340166800E+01  0.40659132133E+02  0.00000000000E+00 0.  1.
         11    1    3    3    0    0  0.12714595587E+02  0.19430674748E+02 -0.34221015783E+01  0.23471745601E+02  0.51100000000E-03 0. -1.
        -11    1    3    3    0    0  0.60108064824E+01  0.20731741042E+02  0.36147768255E+01  0.21886102736E+02  0.51100000000E-03 0.  1.
        -12    1    3    3    0    0  0.85691862523E+00 -0.45876983884E+01 -0.22266919272E+01  0.51710195293E+01  0.00000000000E+00 0.  1.
</event>
<event>
 7    1  0.5913457E-013  0.5052889E+02  0.7816164E-02  0.1300439E+00
        -11   -1    0    0    0    0  0.00000000000E+00  0.00000000000E+00  0.45593999997E+02  0.45594000000E+02  0.51100000000E-03 0.  1.
         11   -1    0    0    0    0 -0.00000000000E+00 -0.00000000000E+00 -0.45593999997E+02  0.45594000000E+02  0.51100000000E-03 0. -1.
    9900012    2    1    2    0    0 -0.10972828707E+02 -0.78041536421E+01 -0.38364769372E+02  0.50528888932E+02  0.30000088396E+02 0.  0.
        -12    1    1    2    0    0  0.10972828707E+02  0.78041536421E+01  0.38364769372E+02  0.40659111068E+02  0.00000000000E+00 0.  1.
         11    1    3    3    0    0 -0.14388339375E+01  0.21613184408E+01 -0.20734854333E+01  0.33227823590E+01  0.51100000000E-03 0. -1.
        -11    1    3    3    0    0 -0.54535687602E+01 -0.77114126806E+00  0.32568941869E+01  0.63987054224E+01  0.51100000000E-03 0.  1.
        -12    1    3    3    0    0 -0.40804260089E+01 -0.91943308148E+01 -0.39548178126E+02  0.40807401150E+02  0.00000000000E+00 0.  1.
</event>
<event>
 7    1  0.5913457E-013  0.5052886E+02  0.7816164E-02  0.1300439E+00
        -11   -1    0    0    0    0  0.00000000000E+00  0.00000000000E+00  0.45593999997E+02  0.45594000000E+02  0.51100000000E-03 0.  1.
         11   -1    0    0    0    0 -0.00000000000E+00 -0.00000000000E+00 -0.45593999997E+02  0.45594000000E+02  0.51100000000E-03 0. -1.
    9900012    2    1    2    0    0 -0.14853490869E+02  0.37829940828E+02 -0.11978883407E+01  0.50528861414E+02  0.30000004755E+02 0.  0.
        -12    1    1    2    0    0  0.14853490869E+02 -0.37829940828E+02  0.11978883407E+01  0.40659138586E+02  0.00000000000E+00 0.  1.
         11    1    3    3    0    0 -0.14713450307E+02  0.17531091515E+02 -0.45868464574E+01  0.23342321014E+02  0.51100000000E-03 0. -1.
        -11    1    3    3    0    0 -0.70479149484E+01  0.69187241550E+01 -0.36955930888E+01  0.10545105860E+02  0.51100000000E-03 0.  1.
        -12    1    3    3    0    0  0.69078743865E+01  0.13380125158E+02  0.70845512056E+01  0.16641434541E+02  0.00000000000E+00 0.  1.
</event>
<event>
 7    1  0.5913457E-013  0.5052886E+02  0.7816164E-02  0.1300439E+00
        -11   -1    0    0    0    0  0.00000000000E+00  0.00000000000E+00  0.45593999997E+02  0.45594000000E+02  0.51100000000E-03 0.  1.
         11   -1    0    0    0    0 -0.00000000000E+00 -0.00000000000E+00 -0.45593999997E+02  0.45594000000E+02  0.51100000000E-03 0. -1.
    9900012    2    1    2    0    0 -0.39283604337E+02 -0.51166657828E+01 -0.91533526036E+01  0.50528859548E+02  0.29999999082E+02 0.  0.
        -12    1    1    2    0    0  0.39283604337E+02  0.51166657828E+01  0.91533526036E+01  0.40659140452E+02  0.00000000000E+00 0.  1.
         11    1    3    3    0    0 -0.90218523524E+01 -0.46312714067E+01  0.94970942258E+01  0.13893786154E+02  0.51100000000E-03 0. -1.
        -11    1    3    3    0    0 -0.79157872863E+01  0.37247978977E+01 -0.60689704656E+01  0.10647356973E+02  0.51100000000E-03 0.  1.
        -12    1    3    3    0    0 -0.22345964698E+02 -0.42101922739E+01 -0.12581476364E+02  0.25987716420E+02  0.00000000000E+00 0.  1.
</event>
<event>
 7    1  0.5913457E-013  0.5052886E+02  0.7816164E-02  0.1300439E+00
        -11   -1    0    0    0    0  0.00000000000E+00  0.00000000000E+00  0.45593999997E+02  0.45594000000E+02  0.51100000000E-03 0.  1.
         11   -1    0    0    0    0 -0.00000000000E+00 -0.00000000000E+00 -0.45593999997E+02  0.45594000000E+02  0.51100000000E-03 0. -1.
    9900012    2    1    2    0    0  0.33061828057E+02  0.19363650646E+02 -0.13606270566E+02  0.50528855401E+02  0.29999986476E+02 0.  0.
        -12    1    1    2    0    0 -0.33061828057E+02 -0.19363650646E+02  0.13606270566E+02  0.40659144599E+02  0.00000000000E+00 0.  1.
         11    1    3    3    0    0  0.83939869290E+01  0.82955187848E+00 -0.79156204867E+01  0.11567377440E+02  0.51100000000E-03 0. -1.
        -11    1    3    3    0    0  0.20788435944E+02  0.52766951399E+01 -0.11071980684E+02  0.24136928908E+02  0.51100000000E-03 0.  1.
        -12    1    3    3    0    0  0.38794051840E+01  0.13257403628E+02  0.53813306048E+01  0.14824549053E+02  0.00000000000E+00 0.  1.
</event>
<event>
 7    1  0.5913457E-013  0.5052886E+02  0.7816164E-02  0.1300439E+00
        -11   -1    0    0    0    0  0.00000000000E+00  0.00000000000E+00  0.45593999997E+02  0.45594000000E+02  0.51100000000E-03 0.  1.
         11   -1    0    0    0    0 -0.00000000000E+00 -0.00000000000E+00 -0.45593999997E+02  0.45594000000E+02  0.51100000000E-03 0. -1.
    9900012    2    1    2    0    0  0.29115559112E+02  0.27904941734E+02 -0.51734018096E+01  0.50528860291E+02  0.30000001341E+02 0.  0.
        -12    1    1    2    0    0 -0.29115559112E+02 -0.27904941734E+02  0.51734018096E+01  0.40659139709E+02  0.00000000000E+00 0.  1.
         11    1    3    3    0    0  0.72439611774E+01  0.14745168828E+02 -0.13750538931E-01  0.16428486438E+02  0.51100000000E-03 0. -1.
        -11    1    3    3    0    0  0.14139662666E+02  0.15329993738E+02  0.47058253313E+01  0.21379512638E+02  0.51100000000E-03 0.  1.
        -12    1    3    3    0    0  0.77319352680E+01 -0.21702208328E+01 -0.98654766020E+01  0.12720861214E+02  0.00000000000E+00 0.  1.
</event>
<event>
 7    1  0.5913457E-013  0.5052886E+02  0.7816164E-02  0.1300439E+00
        -11   -1    0    0    0    0  0.00000000000E+00  0.00000000000E+00  0.45593999997E+02  0.45594000000E+02  0.51100000000E-03 0.  1.
         11   -1    0    0    0    0 -0.00000000000E+00 -0.00000000000E+00 -0.45593999997E+02  0.45594000000E+02  0.51100000000E-03 0. -1.
    9900012    2    1    2    0    0  0.36302932058E+02  0.16449476347E+02 -0.80422512826E+01  0.50528856455E+02  0.29999989680E+02 0.  0.
        -12    1    1    2    0    0 -0.36302932058E+02 -0.16449476347E+02  0.80422512826E+01  0.40659143545E+02  0.00000000000E+00 0.  1.
         11    1    3    3    0    0  0.12339241127E+02 -0.54879741766E+01  0.29303431993E+01  0.13818887208E+02  0.51100000000E-03 0. -1.
        -11    1    3    3    0    0  0.26689340141E+01 -0.58260274889E+00 -0.41591134408E+01  0.49760284976E+01  0.51100000000E-03 0.  1.
         12    1    3    3    0    0  0.21294756917E+02  0.22520053272E+02 -0.68134810412E+01  0.31733940749E+02  0.00000000000E+00 0. -1.
</event>
<event>
 7    1  0.5913457E-013  0.5052885E+02  0.7816164E-02  0.1300439E+00
        -11   -1    0    0    0    0  0.00000000000E+00  0.00000000000E+00  0.45593999997E+02  0.45594000000E+02  0.51100000000E-03 0. -1.
         11   -1    0    0    0    0 -0.00000000000E+00 -0.00000000000E+00 -0.45593999997E+02  0.45594000000E+02  0.51100000000E-03 0.  1.
    9900012    2    1    2    0    0 -0.46488126281E+00 -0.76637161293E+01  0.39927654325E+02  0.50528852943E+02  0.29999979005E+02 0.  0.
        -12    1    1    2    0    0  0.46488126281E+00  0.76637161293E+01 -0.39927654325E+02  0.40659147057E+02  0.00000000000E+00 0.  1.
         11    1    3    3    0    0  0.11658220516E+01 -0.49051069874E+00 -0.68600980629E+00  0.14388716124E+01  0.51100000000E-03 0.  1.
        -11    1    3    3    0    0  0.10605581253E+02 -0.61737413767E+01  0.91244925679E+01  0.15292148350E+02  0.51100000000E-03 0. -1.
         12    1    3    3    0    0 -0.12236284567E+02 -0.99946405387E+00  0.31489171564E+02  0.33797832980E+02  0.00000000000E+00 0. -1.
</event>
<event>
 7    1  0.5913457E-013  0.5052886E+02  0.7816164E-02  0.1300439E+00
        -11   -1    0    0    0    0  0.00000000000E+00  0.00000000000E+00  0.45593999997E+02  0.45594000000E+02  0.51100000000E-03 0.  1.
         11   -1    0    0    0    0 -0.00000000000E+00 -0.00000000000E+00 -0.45593999997E+02  0.45594000000E+02  0.51100000000E-03 0. -1.
    9900012    2    1    2    0    0  0.30680523974E+02 -0.91461221778E+01 -0.25064305832E+02  0.50528861678E+02  0.30000005557E+02 0.  0.
        -12    1    1    2    0    0 -0.30680523974E+02  0.91461221778E+01  0.25064305832E+02  0.40659138322E+02  0.00000000000E+00 0.  1.
         11    1    3    3    0    0  0.18788045791E+02 -0.11720982438E+02 -0.16044111895E+02  0.27345669140E+02  0.51100000000E-03 0. -1.
        -11    1    3    3    0    0  0.56698929485E+01 -0.75318560535E+01 -0.48605352557E+01  0.10606665116E+02  0.51100000000E-03 0.  1.
        -12    1    3    3    0    0  0.62225852350E+01  0.10106716314E+02 -0.41596586815E+01  0.12576527422E+02  0.00000000000E+00 0.  1.
</event>
<event>
 7    1  0.5913457E-013  0.5052886E+02  0.7816164E-02  0.1300439E+00
        -11   -1    0    0    0    0  0.00000000000E+00  0.00000000000E+00  0.45593999997E+02  0.45594000000E+02  0.51100000000E-03 0.  1.
         11   -1    0    0    0    0 -0.00000000000E+00 -0.00000000000E+00 -0.45593999997E+02  0.45594000000E+02  0.51100000000E-03 0. -1.
    9900012    2    1    2    0    0 -0.24985198747E+02  0.21459374983E+02 -0.23841153545E+02  0.50528861624E+02  0.30000005393E+02 0.  0.
        -12    1    1    2    0    0  0.24985198747E+02 -0.21459374983E+02  0.23841153545E+02  0.40659138376E+02  0.00000000000E+00 0.  1.
         11    1    3    3    0    0 -0.13702010003E+02  0.64365906065E+01 -0.12158951054E+02  0.19416870699E+02  0.51100000000E-03 0. -1.
        -11    1    3    3    0    0 -0.17124922812E+02  0.15329227627E+02 -0.94595225989E+01  0.24854190170E+02  0.51100000000E-03 0.  1.
        -12    1    3    3    0    0  0.58417340677E+01 -0.30644325073E+00 -0.22226798920E+01  0.62578007547E+01  0.00000000000E+00 0.  1.
</event>
<event>
 7    1  0.5913457E-013  0.5052886E+02  0.7816164E-02  0.1300439E+00
        -11   -1    0    0    0    0  0.00000000000E+00  0.00000000000E+00  0.45593999997E+02  0.45594000000E+02  0.51100000000E-03 0. -1.
         11   -1    0    0    0    0 -0.00000000000E+00 -0.00000000000E+00 -0.45593999997E+02  0.45594000000E+02  0.51100000000E-03 0.  1.
    9900012    2    1    2    0    0  0.37560160936E+02  0.23974755749E+01  0.15383499096E+02  0.50528860522E+02  0.30000002043E+02 0.  0.
        -12    1    1    2    0    0 -0.37560160936E+02 -0.23974755749E+01 -0.15383499096E+02  0.40659139478E+02  0.00000000000E+00 0.  1.
         11    1    3    3    0    0  0.10542253935E+01  0.10211730763E+02  0.51108679614E+01  0.11467859780E+02  0.51100000000E-03 0.  1.
        -11    1    3    3    0    0  0.14832389265E+02 -0.16348098194E+01  0.20105873011E+01  0.15057052700E+02  0.51100000000E-03 0. -1.
        -12    1    3    3    0    0  0.21673546277E+02 -0.61794453688E+01  0.82620438330E+01  0.24003948042E+02  0.00000000000E+00 0.  1.
</event>
