<event>
 7    1  0.2941727E-013  0.7246158E+02  0.7816164E-02  0.1226708E+00
        -11   -1    0    0    0    0  0.00000000000E+00  0.00000000000E+00  0.45593999997E+02  0.45594000000E+02  0.51100000000E-03 0. -1.
         11   -1    0    0    0    0 -0.00000000000E+00 -0.00000000000E+00 -0.45593999997E+02  0.45594000000E+02  0.51100000000E-03 0.  1.
    9900012    2    1    2    0    0 -0.16019613631E+02 -0.95648194162E+01  0.16015808227E+01  0.72461578759E+02  0.70000011027E+02 0.  0.
         12    1    1    2    0    0  0.16019613631E+02  0.95648194162E+01 -0.16015808227E+01  0.18726421241E+02  0.00000000000E+00 0. -1.
         11    1    3    3    0    0  0.53780450716E+01  0.18934334870E+01 -0.12026200917E+02  0.13309318837E+02  0.51100000000E-03 0. -1.
        -11    1    3    3    0    0 -0.28332672667E+02  0.11655647932E+02 -0.14957896440E+01  0.30672982511E+02  0.51100000000E-03 0.  1.
         12    1    3    3    0    0  0.69350139646E+01 -0.23113900835E+02  0.15123571383E+02  0.28479277412E+02  0.00000000000E+00 0. -1.
</event>
<event>
 7    1  0.2941727E-013  0.7246154E+02  0.7816164E-02  0.1226708E+00
        -11   -1    0    0    0    0  0.00000000000E+00  0.00000000000E+00  0.45593999997E+02  0.45594000000E+02  0.51100000000E-03 0. -1.
         11   -1    0    0    0    0 -0.00000000000E+00 -0.00000000000E+00 -0.45593999997E+02  0.45594000000E+02  0.51100000000E-03 0.  1.
    9900012    2    1    2    0    0 -0.47609633619E+01 -0.23106574170E+01 -0.17963135461E+02  0.72461544238E+02  0.69999966057E+02 0.  0.
         12    1    1    2    0    0  0.47609633619E+01  0.23106574170E+01  0.17963135461E+02  0.18726455762E+02  0.00000000000E+00 0. -1.
         11    1    3    3    0    0  0.44566373291E+01  0.28568554371E+01  0.87286403291E+01  0.10208447557E+02  0.51100000000E-03 0. -1.
        -11    1    3    3    0    0 -0.96761106960E+01  0.17021227701E+02  0.79336322052E+01  0.21125620249E+02  0.51100000000E-03 0.  1.
         12    1    3    3    0    0  0.45851000506E+00 -0.22188740555E+02 -0.34625407995E+02  0.41127476432E+02  0.00000000000E+00 0. -1.
</event>
<event>
 7    1  0.2941727E-013  0.7246155E+02  0.7816164E-02  0.1226708E+00
        -11   -1    0    0    0    0  0.00000000000E+00  0.00000000000E+00  0.45593999997E+02  0.45594000000E+02  0.51100000000E-03 0. -1.
         11   -1    0    0    0    0 -0.00000000000E+00 -0.00000000000E+00 -0.45593999997E+02  0.45594000000E+02  0.51100000000E-03 0.  1.
    9900012    2    1    2    0    0 -0.42358241500E+01  0.17824030913E+02  0.38783406135E+01  0.72461553190E+02  0.69999977718E+02 0.  0.
         12    1    1    2    0    0  0.42358241500E+01 -0.17824030913E+02 -0.38783406135E+01  0.18726446810E+02  0.00000000000E+00 0. -1.
         11    1    3    3    0    0  0.63494162756E+00  0.78613959235E+01  0.15742720593E+02  0.17607894498E+02  0.51100000000E-03 0. -1.
        -11    1    3    3    0    0  0.42482477767E+01  0.11118799603E+02  0.19126827993E+02  0.22528001756E+02  0.51100000000E-03 0.  1.
        -12    1    3    3    0    0 -0.91190135543E+01 -0.11561646136E+01 -0.30991207972E+02  0.32325656936E+02  0.00000000000E+00 0.  1.
</event>
<event>
 7    1  0.2941727E-013  0.7246163E+02  0.7816164E-02  0.1226708E+00
        -11   -1    0    0    0    0  0.00000000000E+00  0.00000000000E+00  0.45593999997E+02  0.45594000000E+02  0.51100000000E-03 0.  1.
         11   -1    0    0    0    0 -0.00000000000E+00 -0.00000000000E+00 -0.45593999997E+02  0.45594000000E+02  0.51100000000E-03 0. -1.
    9900012    2    1    2    0    0  0.24516500591E+00 -0.12293140113E+02  0.14124284610E+02  0.72461633148E+02  0.70000081878E+02 0.  0.
         12    1    1    2    0    0 -0.24516500591E+00  0.12293140113E+02 -0.14124284610E+02  0.18726366852E+02  0.00000000000E+00 0. -1.
         11    1    3    3    0    0  0.92239557366E+01 -0.77521899991E+01 -0.32658924325E+01  0.12483743944E+02  0.51100000000E-03 0. -1.
        -11    1    3    3    0    0 -0.84670258241E+01 -0.29527783155E+02  0.16727594761E+02  0.34977034338E+02  0.51100000000E-03 0.  1.
        -12    1    3    3    0    0 -0.51176490656E+00  0.24986833041E+02  0.66258228173E+00  0.25000854866E+02  0.00000000000E+00 0.  1.
</event>
<event>
 7    1  0.2941727E-013  0.7246159E+02  0.7816164E-02  0.1226708E+00
        -11   -1    0    0    0    0  0.00000000000E+00  0.00000000000E+00  0.45593999997E+02  0.45594000000E+02  0.51100000000E-03 0.  1.
         11   -1    0    0    0    0 -0.00000000000E+00 -0.00000000000E+00 -0.45593999997E+02  0.45594000000E+02  0.51100000000E-03 0. -1.
    9900012    2    1    2    0    0  0.51276545553E+00  0.18719386574E+02 -0.13728010253E-01  0.72461586820E+02  0.70000021528E+02 0.  0.
         12    1    1    2    0    0 -0.51276545553E+00 -0.18719386574E+02  0.13728010253E-01  0.18726413180E+02  0.00000000000E+00 0. -1.
         11    1    3    3    0    0 -0.23228468262E+02  0.12464285257E+01  0.70669195772E+01  0.24311657172E+02  0.51100000000E-03 0. -1.
        -11    1    3    3    0    0  0.66622165247E+01 -0.97867192641E+01  0.61809523568E+01  0.13355492326E+02  0.51100000000E-03 0.  1.
         12    1    3    3    0    0  0.17079017193E+02  0.27259677312E+02 -0.13261599944E+02  0.34794437322E+02  0.00000000000E+00 0. -1.
</event>
<event>
 7    1  0.2941727E-013  0.7246157E+02  0.7816164E-02  0.1226708E+00
        -11   -1    0    0    0    0  0.00000000000E+00  0.00000000000E+00  0.45593999997E+02  0.45594000000E+02  0.51100000000E-03 0.  1.
         11   -1    0    0    0    0 -0.00000000000E+00 -0.00000000000E+00 -0.45593999997E+02  0.45594000000E+02  0.51100000000E-03 0. -1.
    9900012    2    1    2    0    0 -0.48751994896E+01 -0.13034075524E+02  0.12530947906E+02  0.72461565469E+02  0.69999993714E+02 0.  0.
         12    1    1    2    0    0  0.48751994896E+01  0.13034075524E+02 -0.12530947906E+02  0.18726434531E+02  0.00000000000E+00 0. -1.
         11    1    3    3    0    0  0.73637213118E+01 -0.55996916332E+01 -0.31190095210E+01  0.97626409643E+01  0.51100000000E-03 0. -1.
        -11    1    3    3    0    0  0.68130598699E+01  0.72109550368E+01  0.32086395531E+02  0.33585003138E+02  0.51100000000E-03 0.  1.
         12    1    3    3    0    0 -0.19051980671E+02 -0.14645338928E+02 -0.16436438104E+02  0.29113921367E+02  0.00000000000E+00 0. -1.
</event>
<event>
 7    1  0.2941727E-013  0.7246150E+02  0.7816164E-02  0.1226708E+00
        -11   -1    0    0    0    0  0.00000000000E+00  0.00000000000E+00  0.45593999997E+02  0.45594000000E+02  0.51100000000E-03 0. -1.
         11   -1    0    0    0    0 -0.00000000000E+00 -0.00000000000E+00 -0.45593999997E+02  0.45594000000E+02  0.51100000000E-03 0.  1.
    9900012    2    1    2    0    0  0.13852067319E+02 -0.97724009612E+01  0.79562603984E+01  0.72461503555E+02  0.69999913060E+02 0.  0.
         12    1    1    2    0    0 -0.13852067319E+02  0.97724009612E+01 -0.79562603984E+01  0.18726496445E+02  0.00000000000E+00 0. -1.
         11    1    3    3    0    0  0.12367563543E+02 -0.16846905077E+02  0.49497147382E+01  0.21477302319E+02  0.51100000000E-03 0.  1.
        -11    1    3    3    0    0  0.25456244706E+02  0.43747043399E+00  0.52976889574E+01  0.26005331828E+02  0.51100000000E-03 0. -1.
         12    1    3    3    0    0 -0.23971740930E+02  0.66370336813E+01 -0.22911432972E+01  0.24978869408E+02  0.00000000000E+00 0. -1.
</event>
<event>
 7    1  0.2941727E-013  0.7246160E+02  0.7816164E-02  0.1226708E+00
        -11   -1    0    0    0    0  0.00000000000E+00  0.00000000000E+00  0.45593999997E+02  0.45594000000E+02  0.51100000000E-03 0. -1.
         11   -1    0    0    0    0 -0.00000000000E+00 -0.00000000000E+00 -0.45593999997E+02  0.45594000000E+02  0.51100000000E-03 0.  1.
    9900012    2    1    2    0    0 -0.92519631083E+01 -0.12107116670E+01 -0.16236176166E+02  0.72461599903E+02  0.70000038571E+02 0.  0.
         12    1    1    2    0    0  0.92519631083E+01  0.12107116670E+01  0.16236176166E+02  0.18726400097E+02  0.00000000000E+00 0. -1.
         11    1    3    3    0    0  0.59121685088E+01  0.76697112543E+01  0.11975904697E+02  0.15401314904E+02  0.51100000000E-03 0. -1.
        -11    1    3    3    0    0  0.13623766425E+02 -0.14779696839E+02 -0.95980879994E+01  0.22274867986E+02  0.51100000000E-03 0.  1.
        -12    1    3    3    0    0 -0.28787898042E+02  0.58992739182E+01 -0.18613992864E+02  0.34785417013E+02  0.00000000000E+00 0.  1.
</event>
<event>
 7    1  0.2941727E-013  0.7246163E+02  0.7816164E-02  0.1226708E+00
        -11   -1    0    0    0    0  0.00000000000E+00  0.00000000000E+00  0.45593999997E+02  0.45594000000E+02  0.51100000000E-03 0.  1.
         11   -1    0    0    0    0 -0.00000000000E+00 -0.00000000000E+00 -0.45593999997E+02  0.45594000000E+02  0.51100000000E-03 0. -1.
    9900012    2    1    2    0    0  0.81889727481E+01  0.24772773922E+01  0.16657758011E+02  0.72461626088E+02  0.70000072682E+02 0.  0.
         12    1    1    2    0    0 -0.81889727481E+01 -0.24772773922E+01 -0.16657758011E+02  0.18726373912E+02  0.00000000000E+00 0. -1.
         11    1    3    3    0    0  0.32751638931E+01  0.37529012269E+01 -0.48292125457E+01  0.69377417232E+01  0.51100000000E-03 0. -1.
        -11    1    3    3    0    0  0.11482911792E+02 -0.26911420273E+02 -0.30723816940E+01  0.29419743946E+02  0.51100000000E-03 0.  1.
         12    1    3    3    0    0 -0.65691029366E+01  0.25635796438E+02  0.24559352250E+02  0.36104140419E+02  0.00000000000E+00 0. -1.
</event>
<event>
 7    1  0.2941727E-013  0.7246160E+02  0.7816164E-02  0.1226708E+00
        -11   -1    0    0    0    0  0.00000000000E+00  0.00000000000E+00  0.45593999997E+02  0.45594000000E+02  0.51100000000E-03 0.  1.
         11   -1    0    0    0    0 -0.00000000000E+00 -0.00000000000E+00 -0.45593999997E+02  0.45594000000E+02  0.51100000000E-03 0. -1.
    9900012    2    1    2    0    0 -0.96457771143E+01  0.98440045648E+01  0.12678040047E+02  0.72461597744E+02  0.70000035759E+02 0.  0.
         12    1    1    2    0    0  0.96457771143E+01 -0.98440045648E+01 -0.12678040047E+02  0.18726402256E+02  0.00000000000E+00 0. -1.
         11    1    3    3    0    0  0.15093269862E+02  0.54993167104E+00 -0.14856257621E+02  0.21185315923E+02  0.51100000000E-03 0. -1.
        -11    1    3    3    0    0  0.77946293194E+01  0.19030057860E+01  0.74234187262E-02  0.80235735565E+01  0.51100000000E-03 0.  1.
         12    1    3    3    0    0 -0.32533676296E+02  0.73910671077E+01  0.27526874249E+02  0.43252708265E+02  0.00000000000E+00 0. -1.
</event>
<event>
 7    1  0.2941727E-013  0.7246165E+02  0.7816164E-02  0.1226708E+00
        -11   -1    0    0    0    0  0.00000000000E+00  0.00000000000E+00  0.45593999997E+02  0.45594000000E+02  0.51100000000E-03 0.  1.
         11   -1    0    0    0    0 -0.00000000000E+00 -0.00000000000E+00 -0.45593999997E+02  0.45594000000E+02  0.51100000000E-03 0. -1.
    9900012    2    1    2    0    0  0.16825168471E+02 -0.49523402551E+01  0.65623453323E+01  0.72461645728E+02  0.70000098266E+02 0.  0.
         12    1    1    2    0    0 -0.16825168471E+02  0.49523402551E+01 -0.65623453323E+01  0.18726354272E+02  0.00000000000E+00 0. -1.
         11    1    3    3    0    0  0.30863601941E+01  0.78169742496E+01 -0.20014737984E+01  0.86392478431E+01  0.51100000000E-03 0. -1.
        -11    1    3    3    0    0 -0.53508178627E+01  0.21459382350E+02 -0.43843772235E+01  0.22546820320E+02  0.51100000000E-03 0.  1.
         12    1    3    3    0    0  0.19089626139E+02 -0.34228696854E+02  0.12948196354E+02  0.41275577565E+02  0.00000000000E+00 0. -1.
</event>
<event>
 7    1  0.2941727E-013  0.7246204E+02  0.7816164E-02  0.1226707E+00
        -11   -1    0    0    0    0  0.00000000000E+00  0.00000000000E+00  0.45593999997E+02  0.45594000000E+02  0.51100000000E-03 0.  1.
         11   -1    0    0    0    0 -0.00000000000E+00 -0.00000000000E+00 -0.45593999997E+02  0.45594000000E+02  0.51100000000E-03 0. -1.
    9900012    2    1    2    0    0 -0.12935734634E+02  0.11694788309E+02  0.68235066587E+01  0.72462040820E+02  0.70000612944E+02 0.  0.
         12    1    1    2    0    0  0.12935734634E+02 -0.11694788309E+02 -0.68235066587E+01  0.18725959180E+02  0.00000000000E+00 0. -1.
         11    1    3    3    0    0  0.13404512801E+02  0.59640363493E+01 -0.93208588374E+01  0.17381861314E+02  0.51100000000E-03 0. -1.
        -11    1    3    3    0    0  0.97491065955E+01  0.43581885062E+01 -0.64535486983E+01  0.12477466791E+02  0.51100000000E-03 0.  1.
        -12    1    3    3    0    0 -0.36089354030E+02  0.13725634533E+01  0.22597914194E+02  0.42602712715E+02  0.00000000000E+00 0.  1.
</event>
<event>
 7    1  0.2941727E-013  0.7246156E+02  0.7816164E-02  0.1226708E+00
        -11   -1    0    0    0    0  0.00000000000E+00  0.00000000000E+00  0.45593999997E+02  0.45594000000E+02  0.51100000000E-03 0.  1.
         11   -1    0    0    0    0 -0.00000000000E+00 -0.00000000000E+00 -0.45593999997E+02  0.45594000000E+02  0.51100000000E-03 0. -1.
    9900012    2    1    2    0    0  0.44827459462E+01 -0.16295677883E+02  0.80644648232E+01  0.72461555549E+02  0.69999980792E+02 0.  0.
         12    1    1    2    0    0 -0.44827459462E+01  0.16295677883E+02 -0.80644648232E+01  0.18726444451E+02  0.00000000000E+00 0. -1.
         11    1    3    3    0    0  0.18506330950E+02 -0.18510317496E+02 -0.22067194171E+02  0.34235613006E+02  0.51100000000E-03 0. -1.
        -11    1    3    3    0    0  0.45638905863E+01  0.18092357045E+01  0.69691475204E+01  0.85247550429E+01  0.51100000000E-03 0.  1.
        -12    1    3    3    0    0 -0.18587475591E+02  0.40540390863E+00  0.23162511474E+02  0.29701187501E+02  0.00000000000E+00 0.  1.
</event>
<event>
 7    1  0.2941727E-013  0.7246158E+02  0.7816164E-02  0.1226708E+00
        -11   -1    0    0    0    0  0.00000000000E+00  0.00000000000E+00  0.45593999997E+02  0.45594000000E+02  0.51100000000E-03 0. -1.
         11   -1    0    0    0    0 -0.00000000000E+00 -0.00000000000E+00 -0.45593999997E+02  0.45594000000E+02  0.51100000000E-03 0.  1.
    9900012    2    1    2    0    0 -0.14811685906E+02  0.10003024322E+02 -0.55885782705E+01  0.72461581708E+02  0.70000014869E+02 0.  0.
         12    1    1    2    0    0  0.14811685906E+02 -0.10003024322E+02  0.55885782705E+01  0.18726418292E+02  0.00000000000E+00 0. -1.
         11    1    3    3    0    0 -0.10949126540E+02 -0.24390000138E+01 -0.21068864208E+02  0.23868999400E+02  0.51100000000E-03 0. -1.
        -11    1    3    3    0    0  0.11204815898E+02 -0.61622012996E+01 -0.79802634007E+01  0.15073328377E+02  0.51100000000E-03 0.  1.
         12    1    3    3    0    0 -0.15067375264E+02  0.18604225635E+02  0.23460549339E+02  0.33519253931E+02  0.00000000000E+00 0. -1.
</event>
<event>
 7    1  0.2941727E-013  0.7246157E+02  0.7816164E-02  0.1226708E+00
        -11   -1    0    0    0    0  0.00000000000E+00  0.00000000000E+00  0.45593999997E+02  0.45594000000E+02  0.51100000000E-03 0.  1.
         11   -1    0    0    0    0 -0.00000000000E+00 -0.00000000000E+00 -0.45593999997E+02  0.45594000000E+02  0.51100000000E-03 0. -1.
    9900012    2    1    2    0    0  0.18457106871E+02  0.29911831197E+01  0.10329712709E+01  0.72461574816E+02  0.70000005891E+02 0.  0.
         12    1    1    2    0    0 -0.18457106871E+02 -0.29911831197E+01 -0.10329712709E+01  0.18726425184E+02  0.00000000000E+00 0. -1.
         11    1    3    3    0    0 -0.78181057578E+01  0.84209469578E+01 -0.20264664792E+01  0.11667977201E+02  0.51100000000E-03 0. -1.
        -11    1    3    3    0    0 -0.41866947905E+01 -0.22370837437E+02  0.10639121471E+02  0.25123170318E+02  0.51100000000E-03 0.  1.
         12    1    3    3    0    0  0.30461907420E+02  0.16941073599E+02 -0.75796837205E+01  0.35670427298E+02  0.00000000000E+00 0. -1.
</event>
<event>
 7    1  0.2941727E-013  0.7246152E+02  0.7816164E-02  0.1226708E+00
        -11   -1    0    0    0    0  0.00000000000E+00  0.00000000000E+00  0.45593999997E+02  0.45594000000E+02  0.51100000000E-03 0.  1.
         11   -1    0    0    0    0 -0.00000000000E+00 -0.00000000000E+00 -0.45593999997E+02  0.45594000000E+02  0.51100000000E-03 0. -1.
    9900012    2    1    2    0    0 -0.19150396221E+01 -0.35249216162E+01  0.18291766290E+02  0.72461517064E+02  0.69999930657E+02 0.  0.
         12    1    1    2    0    0  0.19150396221E+01  0.35249216162E+01 -0.18291766290E+02  0.18726482936E+02  0.00000000000E+00 0. -1.
         11    1    3    3    0    0  0.22309639459E+01 -0.56721428249E+01  0.16166524380E+01  0.63058678800E+01  0.51100000000E-03 0. -1.
        -11    1    3    3    0    0  0.59945600021E+01  0.20149402455E+02  0.33473157165E+02  0.39527021388E+02  0.51100000000E-03 0.  1.
         12    1    3    3    0    0 -0.10140563570E+02 -0.18002181247E+02 -0.16798043313E+02  0.26628627796E+02  0.00000000000E+00 0. -1.
</event>
<event>
 7    1  0.2941727E-013  0.7246161E+02  0.7816164E-02  0.1226708E+00
        -11   -1    0    0    0    0  0.00000000000E+00  0.00000000000E+00  0.45593999997E+02  0.45594000000E+02  0.51100000000E-03 0.  1.
         11   -1    0    0    0    0 -0.00000000000E+00 -0.00000000000E+00 -0.45593999997E+02  0.45594000000E+02  0.51100000000E-03 0. -1.
    9900012    2    1    2    0    0 -0.97898834776E+01  0.15500592587E+02 -0.38167271977E+01  0.72461612320E+02  0.70000054746E+02 0.  0.
         12    1    1    2    0    0  0.97898834776E+01 -0.15500592587E+02  0.38167271977E+01  0.18726387680E+02  0.00000000000E+00 0. -1.
         11    1    3    3    0    0 -0.82926081804E+01 -0.10820239441E+02  0.10207242400E+02  0.17030347315E+02  0.51100000000E-03 0. -1.
        -11    1    3    3    0    0 -0.14437738266E+02  0.83880275889E+01  0.12529055140E+02  0.20875452474E+02  0.51100000000E-03 0.  1.
         12    1    3    3    0    0  0.12940462969E+02  0.17932804440E+02 -0.26553024737E+02  0.34555812530E+02  0.00000000000E+00 0. -1.
</event>
<event>
 7    1  0.2941727E-013  0.7246143E+02  0.7816164E-02  0.1226708E+00
        -11   -1    0    0    0    0  0.00000000000E+00  0.00000000000E+00  0.45593999997E+02  0.45594000000E+02  0.51100000000E-03 0. -1.
         11   -1    0    0    0    0 -0.00000000000E+00 -0.00000000000E+00 -0.45593999997E+02  0.45594000000E+02  0.51100000000E-03 0.  1.
    9900012    2    1    2    0    0 -0.56465616997E+01 -0.17673219783E+02  0.25412931068E+01  0.72461427244E+02  0.69999813650E+02 0.  0.
         12    1    1    2    0    0  0.56465616997E+01  0.17673219783E+02 -0.25412931068E+01  0.18726572756E+02  0.00000000000E+00 0. -1.
         11    1    3    3    0    0 -0.48340106118E+01  0.83800761519E+00  0.17814518061E+02  0.18477742539E+02  0.51100000000E-03 0. -1.
        -11    1    3    3    0    0  0.83839011285E+01 -0.31827887739E+02 -0.18634344081E+01  0.32966295274E+02  0.51100000000E-03 0.  1.
         12    1    3    3    0    0 -0.91964522164E+01  0.13316660340E+02 -0.13409790546E+02  0.21017389430E+02  0.00000000000E+00 0. -1.
</event>
<event>
 7    1  0.2941727E-013  0.7246159E+02  0.7816164E-02  0.1226708E+00
        -11   -1    0    0    0    0  0.00000000000E+00  0.00000000000E+00  0.45593999997E+02  0.45594000000E+02  0.51100000000E-03 0. -1.
         11   -1    0    0    0    0 -0.00000000000E+00 -0.00000000000E+00 -0.45593999997E+02  0.45594000000E+02  0.51100000000E-03 0.  1.
    9900012    2    1    2    0    0 -0.11111226196E+02 -0.62430936501E+01 -0.13720169542E+02  0.72461585016E+02  0.70000019177E+02 0.  0.
         12    1    1    2    0    0  0.11111226196E+02  0.62430936501E+01  0.13720169542E+02  0.18726414984E+02  0.00000000000E+00 0. -1.
         11    1    3    3    0    0  0.10620323493E+02  0.13850332956E+02  0.10031551947E+00  0.17453740503E+02  0.51100000000E-03 0. -1.
        -11    1    3    3    0    0  0.23685008421E+01  0.12460304743E+02 -0.43801797183E+01  0.13418456139E+02  0.51100000000E-03 0.  1.
        -12    1    3    3    0    0 -0.24100050531E+02 -0.32553731349E+02 -0.94403053433E+01  0.41589388374E+02  0.00000000000E+00 0.  1.
</event>
<event>
 7    1  0.2941727E-013  0.7246157E+02  0.7816164E-02  0.1226708E+00
        -11   -1    0    0    0    0  0.00000000000E+00  0.00000000000E+00  0.45593999997E+02  0.45594000000E+02  0.51100000000E-03 0.  1.
         11   -1    0    0    0    0 -0.00000000000E+00 -0.00000000000E+00 -0.45593999997E+02  0.45594000000E+02  0.51100000000E-03 0. -1.
    9900012    2    1    2    0    0 -0.11264049086E+02 -0.25380461983E+01  0.14743087415E+02  0.72461571968E+02  0.70000002181E+02 0.  0.
         12    1    1    2    0    0  0.11264049086E+02  0.25380461983E+01 -0.14743087415E+02  0.18726428032E+02  0.00000000000E+00 0. -1.
         11    1    3    3    0    0  0.14496651319E+02 -0.17100054708E+01 -0.19342541275E+02  0.24232435317E+02  0.51100000000E-03 0. -1.
        -11    1    3    3    0    0 -0.11227528765E+01 -0.72351076558E+00 -0.32403153894E+01  0.35048089724E+01  0.51100000000E-03 0.  1.
        -12    1    3    3    0    0 -0.24637947528E+02 -0.10452996192E+00  0.37325944079E+02  0.44724327679E+02  0.00000000000E+00 0.  1.
</event>
<event>
 7    1  0.2941727E-013  0.7246155E+02  0.7816164E-02  0.1226708E+00
        -11   -1    0    0    0    0  0.00000000000E+00  0.00000000000E+00  0.45593999997E+02  0.45594000000E+02  0.51100000000E-03 0.  1.
         11   -1    0    0    0    0 -0.00000000000E+00 -0.00000000000E+00 -0.45593999997E+02  0.45594000000E+02  0.51100000000E-03 0. -1.
    9900012    2    1    2    0    0 -0.16617051054E+02  0.86325976474E+01 -0.17884328010E+00  0.72461545109E+02  0.69999967192E+02 0.  0.
         12    1    1    2    0    0  0.16617051054E+02 -0.86325976474E+01  0.17884328010E+00  0.18726454891E+02  0.00000000000E+00 0. -1.
         11    1    3    3    0    0 -0.32495082564E+01 -0.30161638505E+01  0.14303552667E+02  0.14974917945E+02  0.51100000000E-03 0. -1.
        -11    1    3    3    0    0 -0.86765207444E+01  0.10647010174E+02  0.19121002776E+02  0.23542590879E+02  0.51100000000E-03 0.  1.
         12    1    3    3    0    0 -0.46910220528E+01  0.10017513238E+01 -0.33603398723E+02  0.33944036286E+02  0.00000000000E+00 0. -1.
</event>
<event>
 7    1  0.2941727E-013  0.7246170E+02  0.7816164E-02  0.1226708E+00
        -11   -1    0    0    0    0  0.00000000000E+00  0.00000000000E+00  0.45593999997E+02  0.45594000000E+02  0.51100000000E-03 0.  1.
         11   -1    0    0    0    0 -0.00000000000E+00 -0.00000000000E+00 -0.45593999997E+02  0.45594000000E+02  0.51100000000E-03 0. -1.
    9900012    2    1    2    0    0  0.10844950811E+02 -0.88654273819E+01  0.12428419319E+02  0.72461698509E+02  0.70000167023E+02 0.  0.
         12    1    1    2    0    0 -0.10844950811E+02  0.88654273819E+01 -0.12428419319E+02  0.18726301491E+02  0.00000000000E+00 0. -1.
         11    1    3    3    0    0 -0.12113086912E+02 -0.61794977848E+01 -0.67892621944E+01  0.15198919331E+02  0.51100000000E-03 0. -1.
        -11    1    3    3    0    0  0.58473524087E+01 -0.23891212138E+02  0.17051968771E+02  0.29929102674E+02  0.51100000000E-03 0.  1.
         12    1    3    3    0    0  0.17110685314E+02  0.21205282541E+02  0.21657127423E+01  0.27333676505E+02  0.00000000000E+00 0. -1.
</event>
<event>
 7    1  0.2941727E-013  0.7246154E+02  0.7816164E-02  0.1226708E+00
        -11   -1    0    0    0    0  0.00000000000E+00  0.00000000000E+00  0.45593999997E+02  0.45594000000E+02  0.51100000000E-03 0.  1.
         11   -1    0    0    0    0 -0.00000000000E+00 -0.00000000000E+00 -0.45593999997E+02  0.45594000000E+02  0.51100000000E-03 0. -1.
    9900012    2    1    2    0    0  0.48674490379E+01 -0.13976265886E+02  0.11473981757E+02  0.72461539427E+02  0.69999959790E+02 0.  0.
         12    1    1    2    0    0 -0.48674490379E+01  0.13976265886E+02 -0.11473981757E+02  0.18726460573E+02  0.00000000000E+00 0. -1.
         11    1    3    3    0    0 -0.12842877281E+02  0.37261477031E+00  0.11818536602E+01  0.12902523667E+02  0.51100000000E-03 0. -1.
        -11    1    3    3    0    0 -0.10689998281E+02  0.76835755389E+01  0.18483866017E+02  0.22692877727E+02  0.51100000000E-03 0.  1.
         12    1    3    3    0    0  0.28400324600E+02 -0.22032456195E+02 -0.81917379212E+01  0.36866138034E+02  0.00000000000E+00 0. -1.
</event>
<event>
 7    1  0.2941727E-013  0.7246160E+02  0.7816164E-02  0.1226708E+00
        -11   -1    0    0    0    0  0.00000000000E+00  0.00000000000E+00  0.45593999997E+02  0.45594000000E+02  0.51100000000E-03 0.  1.
         11   -1    0    0    0    0 -0.00000000000E+00 -0.00000000000E+00 -0.45593999997E+02  0.45594000000E+02  0.51100000000E-03 0. -1.
    9900012    2    1    2    0    0 -0.99766243981E+01  0.30031849009E+01  0.15560396448E+02  0.72461599077E+02  0.70000037495E+02 0.  0.
         12    1    1    2    0    0  0.99766243981E+01 -0.30031849009E+01 -0.15560396448E+02  0.18726400923E+02  0.00000000000E+00 0. -1.
         11    1    3    3    0    0  0.49931135713E+01  0.21471758706E+01 -0.16233048195E+02  0.17118802566E+02  0.51100000000E-03 0. -1.
        -11    1    3    3    0    0  0.10916705689E+00  0.15857651467E+02 -0.13993545115E+01  0.15919648891E+02  0.51100000000E-03 0.  1.
        -12    1    3    3    0    0 -0.15078905026E+02 -0.15001642436E+02  0.33192799154E+02  0.39423147620E+02  0.00000000000E+00 0.  1.
</event>
<event>
 7    1  0.2941727E-013  0.7246159E+02  0.7816164E-02  0.1226708E+00
        -11   -1    0    0    0    0  0.00000000000E+00  0.00000000000E+00  0.45593999997E+02  0.45594000000E+02  0.51100000000E-03 0.  1.
         11   -1    0    0    0    0 -0.00000000000E+00 -0.00000000000E+00 -0.45593999997E+02  0.45594000000E+02  0.51100000000E-03 0. -1.
    9900012    2    1    2    0    0  0.12549091091E+02  0.12162203676E+02  0.67290154226E+01  0.72461587262E+02  0.70000022104E+02 0.  0.
         12    1    1    2    0    0 -0.12549091091E+02 -0.12162203676E+02 -0.67290154226E+01  0.18726412738E+02  0.00000000000E+00 0. -1.
         11    1    3    3    0    0 -0.19710961593E+01  0.64076027198E+01  0.17092087863E+01  0.69183804189E+01  0.51100000000E-03 0. -1.
        -11    1    3    3    0    0  0.64385249461E+01 -0.15683243494E+02  0.28230456273E+02  0.32929885994E+02  0.51100000000E-03 0.  1.
         12    1    3    3    0    0  0.80816623039E+01  0.21437844451E+02 -0.23210649636E+02  0.32613320849E+02  0.00000000000E+00 0. -1.
</event>
<event>
 7    1  0.2941727E-013  0.7246156E+02  0.7816164E-02  0.1226708E+00
        -11   -1    0    0    0    0  0.00000000000E+00  0.00000000000E+00  0.45593999997E+02  0.45594000000E+02  0.51100000000E-03 0.  1.
         11   -1    0    0    0    0 -0.00000000000E+00 -0.00000000000E+00 -0.45593999997E+02  0.45594000000E+02  0.51100000000E-03 0. -1.
    9900012    2    1    2    0    0  0.92557419689E+01  0.50017873497E+01  0.15491706184E+02  0.72461558892E+02  0.69999985146E+02 0.  0.
         12    1    1    2    0    0 -0.92557419689E+01 -0.50017873497E+01 -0.15491706184E+02  0.18726441108E+02  0.00000000000E+00 0. -1.
         11    1    3    3    0    0 -0.15270964461E+02 -0.90489617130E+01  0.30986773781E+02  0.35710869680E+02  0.51100000000E-03 0. -1.
        -11    1    3    3    0    0 -0.18993201448E+01 -0.14261580901E+01  0.11333623832E+00  0.23778539220E+01  0.51100000000E-03 0.  1.
        -12    1    3    3    0    0  0.26426026575E+02  0.15476907153E+02 -0.15608403836E+02  0.34372835290E+02  0.00000000000E+00 0.  1.
</event>
<event>
 7    1  0.2941727E-013  0.7246176E+02  0.7816164E-02  0.1226708E+00
        -11   -1    0    0    0    0  0.00000000000E+00  0.00000000000E+00  0.45593999997E+02  0.45594000000E+02  0.51100000000E-03 0. -1.
         11   -1    0    0    0    0 -0.00000000000E+00 -0.00000000000E+00 -0.45593999997E+02  0.45594000000E+02  0.51100000000E-03 0.  1.
    9900012    2    1    2    0    0  0.10255577380E+02  0.10355715268E+02  0.11758161267E+02  0.72461760055E+02  0.70000247198E+02 0.  0.
         12    1    1    2    0    0 -0.10255577380E+02 -0.10355715268E+02 -0.11758161267E+02  0.18726239945E+02  0.00000000000E+00 0. -1.
         11    1    3    3    0    0 -0.28825092802E+01  0.85117969413E+01  0.34364313181E+02  0.35519931976E+02  0.51100000000E-03 0. -1.
        -11    1    3    3    0    0  0.25189816643E+01  0.36109923151E+00  0.59326132563E+01  0.64553513917E+01  0.51100000000E-03 0.  1.
        -12    1    3    3    0    0  0.10619104996E+02  0.14828190953E+01 -0.28538765170E+02  0.30486476687E+02  0.00000000000E+00 0.  1.
</event>
<event>
 7    1  0.2941727E-013  0.7246152E+02  0.7816164E-02  0.1226708E+00
        -11   -1    0    0    0    0  0.00000000000E+00  0.00000000000E+00  0.45593999997E+02  0.45594000000E+02  0.51100000000E-03 0.  1.
         11   -1    0    0    0    0 -0.00000000000E+00 -0.00000000000E+00 -0.45593999997E+02  0.45594000000E+02  0.51100000000E-03 0. -1.
    9900012    2    1    2    0    0  0.44812993357E+01 -0.81968886996E+00 -0.18163892654E+02  0.72461523291E+02  0.69999938770E+02 0.  0.
         12    1    1    2    0    0 -0.44812993357E+01  0.81968886996E+00  0.18163892654E+02  0.18726476709E+02  0.00000000000E+00 0. -1.
         11    1    3    3    0    0 -0.49019242802E+00  0.30853742929E-01 -0.22068629166E+01  0.22608592976E+01  0.51100000000E-03 0. -1.
        -11    1    3    3    0    0 -0.57020703181E+01  0.25213811867E+02 -0.29267123824E+02  0.39048872608E+02  0.51100000000E-03 0.  1.
         12    1    3    3    0    0  0.10673562082E+02 -0.26064354480E+02  0.13310094086E+02  0.31151791386E+02  0.00000000000E+00 0. -1.
</event>
<event>
 7    1  0.2941727E-013  0.7246158E+02  0.7816164E-02  0.1226708E+00
        -11   -1    0    0    0    0  0.00000000000E+00  0.00000000000E+00  0.45593999997E+02  0.45594000000E+02  0.51100000000E-03 0. -1.
         11   -1    0    0    0    0 -0.00000000000E+00 -0.00000000000E+00 -0.45593999997E+02  0.45594000000E+02  0.51100000000E-03 0.  1.
    9900012    2    1    2    0    0 -0.14231821691E+02  0.81888681957E+01  0.90042443280E+01  0.72461582113E+02  0.70000015396E+02 0.  0.
         12    1    1    2    0    0  0.14231821691E+02 -0.81888681957E+01 -0.90042443280E+01  0.18726417887E+02  0.00000000000E+00 0. -1.
         11    1    3    3    0    0 -0.11383797632E+02 -0.78216759118E+01 -0.11756422716E+02  0.18137886810E+02  0.51100000000E-03 0.  1.
        -11    1    3    3    0    0 -0.23401456805E+02  0.61027026441E+01  0.20182886671E+02  0.31499524993E+02  0.51100000000E-03 0. -1.
         12    1    3    3    0    0  0.20553432747E+02  0.99078414634E+01  0.57778037361E+00  0.22824170309E+02  0.00000000000E+00 0. -1.
</event>
<event>
 7    1  0.2941727E-013  0.7246156E+02  0.7816164E-02  0.1226708E+00
        -11   -1    0    0    0    0  0.00000000000E+00  0.00000000000E+00  0.45593999997E+02  0.45594000000E+02  0.51100000000E-03 0.  1.
         11   -1    0    0    0    0 -0.00000000000E+00 -0.00000000000E+00 -0.45593999997E+02  0.45594000000E+02  0.51100000000E-03 0. -1.
    9900012    2    1    2    0    0  0.16257378687E+02 -0.62520453544E+01 -0.68767118151E+01  0.72461558847E+02  0.69999985087E+02 0.  0.
         12    1    1    2    0    0 -0.16257378687E+02  0.62520453544E+01  0.68767118151E+01  0.18726441153E+02  0.00000000000E+00 0. -1.
         11    1    3    3    0    0  0.37997781910E+02  0.11962572448E+01 -0.35227506811E+01  0.38179473989E+02  0.51100000000E-03 0. -1.
        -11    1    3    3    0    0 -0.78557719471E+01 -0.14222741832E+02 -0.80528396525E+01  0.18134160164E+02  0.51100000000E-03 0.  1.
        -12    1    3    3    0    0 -0.13884631276E+02  0.67744392332E+01  0.46988785184E+01  0.16147924694E+02  0.00000000000E+00 0.  1.
</event>
<event>
 7    1  0.2941727E-013  0.7246152E+02  0.7816164E-02  0.1226708E+00
        -11   -1    0    0    0    0  0.00000000000E+00  0.00000000000E+00  0.45593999997E+02  0.45594000000E+02  0.51100000000E-03 0. -1.
         11   -1    0    0    0    0 -0.00000000000E+00 -0.00000000000E+00 -0.45593999997E+02  0.45594000000E+02  0.51100000000E-03 0.  1.
    9900012    2    1    2    0    0  0.14014914730E+02 -0.31018870697E+01  0.12026693320E+02  0.72461524344E+02  0.69999940142E+02 0.  0.
         12    1    1    2    0    0 -0.14014914730E+02  0.31018870697E+01 -0.12026693320E+02  0.18726475656E+02  0.00000000000E+00 0. -1.
         11    1    3    3    0    0  0.76864966166E+01 -0.15071669724E+02  0.17911488928E+02  0.24638565185E+02  0.51100000000E-03 0. -1.
        -11    1    3    3    0    0 -0.18679353327E+02 -0.77020696911E+00  0.16364735844E+01  0.18766712700E+02  0.51100000000E-03 0.  1.
        -12    1    3    3    0    0  0.25007771440E+02  0.12739989623E+02 -0.75212691930E+01  0.29056246459E+02  0.00000000000E+00 0.  1.
</event>
<event>
 7    1  0.2941727E-013  0.7246145E+02  0.7816164E-02  0.1226708E+00
        -11   -1    0    0    0    0  0.00000000000E+00  0.00000000000E+00  0.45593999997E+02  0.45594000000E+02  0.51100000000E-03 0. -1.
         11   -1    0    0    0    0 -0.00000000000E+00 -0.00000000000E+00 -0.45593999997E+02  0.45594000000E+02  0.51100000000E-03 0.  1.
    9900012    2    1    2    0    0 -0.10299256322E+02 -0.32971733615E+01 -0.15288475182E+02  0.72461454500E+02  0.69999849157E+02 0.  0.
         12    1    1    2    0    0  0.10299256322E+02  0.32971733615E+01  0.15288475182E+02  0.18726545500E+02  0.00000000000E+00 0. -1.
         11    1    3    3    0    0 -0.32854207174E+01 -0.85390652943E+01 -0.21746445482E+02  0.23592742884E+02  0.51100000000E-03 0. -1.
        -11    1    3    3    0    0 -0.14750218737E+02 -0.16778943273E+02 -0.49610798154E+01  0.22884802891E+02  0.51100000000E-03 0.  1.
         12    1    3    3    0    0  0.77363831323E+01  0.22020835206E+02  0.11419050116E+02  0.25983908726E+02  0.00000000000E+00 0. -1.
</event>
<event>
 7    1  0.2941727E-013  0.7246145E+02  0.7816164E-02  0.1226708E+00
        -11   -1    0    0    0    0  0.00000000000E+00  0.00000000000E+00  0.45593999997E+02  0.45594000000E+02  0.51100000000E-03 0.  1.
         11   -1    0    0    0    0 -0.00000000000E+00 -0.00000000000E+00 -0.45593999997E+02  0.45594000000E+02  0.51100000000E-03 0. -1.
    9900012    2    1    2    0    0  0.87859985697E+01 -0.16437567251E+02  0.18155500404E+01  0.72461451734E+02  0.69999845553E+02 0.  0.
         12    1    1    2    0    0 -0.87859985697E+01  0.16437567251E+02 -0.18155500404E+01  0.18726548266E+02  0.00000000000E+00 0. -1.
         11    1    3    3    0    0  0.18858058139E+02 -0.41398191407E+01 -0.13619295085E+02  0.23627307467E+02  0.51100000000E-03 0. -1.
        -11    1    3    3    0    0  0.66297384385E+01  0.35995666933E+01 -0.11263865529E+02  0.13556731872E+02  0.51100000000E-03 0.  1.
        -12    1    3    3    0    0 -0.16701798007E+02 -0.15897314804E+02  0.26698710654E+02  0.35277412394E+02  0.00000000000E+00 0.  1.
</event>
<event>
 7    1  0.2941727E-013  0.7246167E+02  0.7816164E-02  0.1226708E+00
        -11   -1    0    0    0    0  0.00000000000E+00  0.00000000000E+00  0.45593999997E+02  0.45594000000E+02  0.51100000000E-03 0.  1.
         11   -1    0    0    0    0 -0.00000000000E+00 -0.00000000000E+00 -0.45593999997E+02  0.45594000000E+02  0.51100000000E-03 0. -1.
    9900012    2    1    2    0    0  0.97631646012E+01 -0.40933577392E+01  0.15446699040E+02  0.72461669023E+02  0.70000128613E+02 0.  0.
         12    1    1    2    0    0 -0.97631646012E+01  0.40933577392E+01 -0.15446699040E+02  0.18726330977E+02  0.00000000000E+00 0. -1.
         11    1    3    3    0    0  0.19539819082E+01 -0.11712355242E+01 -0.11407293914E+01  0.25477640699E+01  0.51100000000E-03 0. -1.
        -11    1    3    3    0    0  0.17870748344E+02 -0.30816131438E+02  0.18611255872E+02  0.40191746025E+02  0.51100000000E-03 0.  1.
         12    1    3    3    0    0 -0.10061565651E+02  0.27894009223E+02 -0.20238274402E+01  0.29722158928E+02  0.00000000000E+00 0. -1.
</event>
<event>
 7    1  0.2941727E-013  0.7246157E+02  0.7816164E-02  0.1226708E+00
        -11   -1    0    0    0    0  0.00000000000E+00  0.00000000000E+00  0.45593999997E+02  0.45594000000E+02  0.51100000000E-03 0.  1.
         11   -1    0    0    0    0 -0.00000000000E+00 -0.00000000000E+00 -0.45593999997E+02  0.45594000000E+02  0.51100000000E-03 0. -1.
    9900012    2    1    2    0    0 -0.10748261171E+02  0.80454657889E+01  0.13054668901E+02  0.72461574338E+02  0.70000005267E+02 0.  0.
         12    1    1    2    0    0  0.10748261171E+02 -0.80454657889E+01 -0.13054668901E+02  0.18726425662E+02  0.00000000000E+00 0. -1.
         11    1    3    3    0    0  0.17319894084E+02 -0.11898003322E+02  0.83840429475E+01  0.22623735115E+02  0.51100000000E-03 0. -1.
        -11    1    3    3    0    0 -0.37676722302E+01  0.30498774538E+01  0.17073517248E+02  0.17748298453E+02  0.51100000000E-03 0.  1.
        -12    1    3    3    0    0 -0.24300483025E+02  0.16893591657E+02 -0.12402891294E+02  0.32089540770E+02  0.00000000000E+00 0.  1.
</event>
<event>
 7    1  0.2941727E-013  0.7246161E+02  0.7816164E-02  0.1226708E+00
        -11   -1    0    0    0    0  0.00000000000E+00  0.00000000000E+00  0.45593999997E+02  0.45594000000E+02  0.51100000000E-03 0. -1.
         11   -1    0    0    0    0 -0.00000000000E+00 -0.00000000000E+00 -0.45593999997E+02  0.45594000000E+02  0.51100000000E-03 0.  1.
    9900012    2    1    2    0    0 -0.17510829086E+02 -0.45906773424E+01 -0.47931452826E+01  0.72461609653E+02  0.70000051271E+02 0.  0.
         12    1    1    2    0    0  0.17510829086E+02  0.45906773424E+01  0.47931452826E+01  0.18726390347E+02  0.00000000000E+00 0. -1.
         11    1    3    3    0    0  0.51332587011E+01  0.13835189670E+02  0.50801701401E+00  0.14765530794E+02  0.51100000000E-03 0. -1.
        -11    1    3    3    0    0  0.37350028194E+00 -0.18269478260E+02 -0.22483021345E+02  0.28972393539E+02  0.51100000000E-03 0.  1.
        -12    1    3    3    0    0 -0.23017588069E+02 -0.15638875234E+00  0.17181859048E+02  0.28723685319E+02  0.00000000000E+00 0.  1.
</event>
<event>
 7    1  0.2941727E-013  0.7246150E+02  0.7816164E-02  0.1226708E+00
        -11   -1    0    0    0    0  0.00000000000E+00  0.00000000000E+00  0.45593999997E+02  0.45594000000E+02  0.51100000000E-03 0.  1.
         11   -1    0    0    0    0 -0.00000000000E+00 -0.00000000000E+00 -0.45593999997E+02  0.45594000000E+02  0.51100000000E-03 0. -1.
    9900012    2    1    2    0    0  0.12907574972E+02 -0.43443332883E+01  0.12853133549E+02  0.72461500983E+02  0.69999909710E+02 0.  0.
         12    1    1    2    0    0 -0.12907574972E+02  0.43443332883E+01 -0.12853133549E+02  0.18726499017E+02  0.00000000000E+00 0. -1.
         11    1    3    3    0    0  0.27455138919E+01  0.54602988361E+01  0.67473976947E+01  0.91038500548E+01  0.51100000000E-03 0. -1.
        -11    1    3    3    0    0  0.21683299640E+02  0.15317878570E+02  0.19210741471E+02  0.32769734135E+02  0.51100000000E-03 0.  1.
         12    1    3    3    0    0 -0.11521238560E+02 -0.25122510694E+02 -0.13105005617E+02  0.30587916793E+02  0.00000000000E+00 0. -1.
</event>
<event>
 7    1  0.2941727E-013  0.7246154E+02  0.7816164E-02  0.1226708E+00
        -11   -1    0    0    0    0  0.00000000000E+00  0.00000000000E+00  0.45593999997E+02  0.45594000000E+02  0.51100000000E-03 0.  1.
         11   -1    0    0    0    0 -0.00000000000E+00 -0.00000000000E+00 -0.45593999997E+02  0.45594000000E+02  0.51100000000E-03 0. -1.
    9900012    2    1    2    0    0 -0.96832781409E+01 -0.88328688911E+01  0.13375153694E+02  0.72461543188E+02  0.69999964689E+02 0.  0.
         12    1    1    2    0    0  0.96832781409E+01  0.88328688911E+01 -0.13375153694E+02  0.18726456812E+02  0.00000000000E+00 0. -1.
         11    1    3    3    0    0  0.38603064689E+01  0.11594288250E+02  0.21375559318E+02  0.24622023119E+02  0.51100000000E-03 0. -1.
        -11    1    3    3    0    0 -0.22429868641E+02 -0.10856666842E+01  0.48529479911E+01  0.22974524671E+02  0.51100000000E-03 0.  1.
        -12    1    3    3    0    0  0.88862840308E+01 -0.19341490457E+02 -0.12853353615E+02  0.24864995398E+02  0.00000000000E+00 0.  1.
</event>
<event>
 7    1  0.2941727E-013  0.7246154E+02  0.7816164E-02  0.1226708E+00
        -11   -1    0    0    0    0  0.00000000000E+00  0.00000000000E+00  0.45593999997E+02  0.45594000000E+02  0.51100000000E-03 0. -1.
         11   -1    0    0    0    0 -0.00000000000E+00 -0.00000000000E+00 -0.45593999997E+02  0.45594000000E+02  0.51100000000E-03 0.  1.
    9900012    2    1    2    0    0 -0.40183921156E+01 -0.39018643886E+01 -0.17869199764E+02  0.72461539547E+02  0.69999959946E+02 0.  0.
         12    1    1    2    0    0  0.40183921156E+01  0.39018643886E+01  0.17869199764E+02  0.18726460453E+02  0.00000000000E+00 0. -1.
         11    1    3    3    0    0  0.10993851389E+02 -0.13413107628E+02  0.20069930950E+02  0.26525051427E+02  0.51100000000E-03 0. -1.
        -11    1    3    3    0    0 -0.14903919020E+01 -0.18304161186E+01  0.14528084271E+01  0.27717041285E+01  0.51100000000E-03 0.  1.
        -12    1    3    3    0    0 -0.13521851602E+02  0.11341659358E+02 -0.39391939141E+02  0.43164783991E+02  0.00000000000E+00 0.  1.
</event>
<event>
 7    1  0.2941727E-013  0.7246154E+02  0.7816164E-02  0.1226708E+00
        -11   -1    0    0    0    0  0.00000000000E+00  0.00000000000E+00  0.45593999997E+02  0.45594000000E+02  0.51100000000E-03 0.  1.
         11   -1    0    0    0    0 -0.00000000000E+00 -0.00000000000E+00 -0.45593999997E+02  0.45594000000E+02  0.51100000000E-03 0. -1.
    9900012    2    1    2    0    0 -0.81579022555E+01 -0.14297219742E+02 -0.89285269422E+01  0.72461535974E+02  0.69999955291E+02 0.  0.
         12    1    1    2    0    0  0.81579022555E+01  0.14297219742E+02  0.89285269422E+01  0.18726464026E+02  0.00000000000E+00 0. -1.
         11    1    3    3    0    0  0.54806427310E+01 -0.29517907885E+01 -0.12917953529E+02  0.14339596830E+02  0.51100000000E-03 0. -1.
        -11    1    3    3    0    0  0.46468068552E+01  0.19337134081E+02 -0.64537695546E+01  0.20908579822E+02  0.51100000000E-03 0.  1.
        -12    1    3    3    0    0 -0.18285351842E+02 -0.30682563035E+02  0.10443196142E+02  0.37213359322E+02  0.00000000000E+00 0.  1.
</event>
<event>
 7    1  0.2941727E-013  0.7246151E+02  0.7816164E-02  0.1226708E+00
        -11   -1    0    0    0    0  0.00000000000E+00  0.00000000000E+00  0.45593999997E+02  0.45594000000E+02  0.51100000000E-03 0.  1.
         11   -1    0    0    0    0 -0.00000000000E+00 -0.00000000000E+00 -0.45593999997E+02  0.45594000000E+02  0.51100000000E-03 0. -1.
    9900012    2    1    2    0    0 -0.72590244272E+01  0.17262325268E+02 -0.46438372471E-02  0.72461512586E+02  0.69999924825E+02 0.  0.
         12    1    1    2    0    0  0.72590244272E+01 -0.17262325268E+02  0.46438372471E-02  0.18726487414E+02  0.00000000000E+00 0. -1.
         11    1    3    3    0    0 -0.11280266990E+02 -0.23184598396E+01 -0.76574406986E+01  0.13829536424E+02  0.51100000000E-03 0. -1.
        -11    1    3    3    0    0  0.85522230238E+01  0.37269984039E+02  0.11581176512E+02  0.39953921942E+02  0.51100000000E-03 0.  1.
         12    1    3    3    0    0 -0.45309804612E+01 -0.17689198931E+02 -0.39283796507E+01  0.18678054220E+02  0.00000000000E+00 0. -1.
</event>
<event>
 7    1  0.2941727E-013  0.7246151E+02  0.7816164E-02  0.1226708E+00
        -11   -1    0    0    0    0  0.00000000000E+00  0.00000000000E+00  0.45593999997E+02  0.45594000000E+02  0.51100000000E-03 0.  1.
         11   -1    0    0    0    0 -0.00000000000E+00 -0.00000000000E+00 -0.45593999997E+02  0.45594000000E+02  0.51100000000E-03 0. -1.
    9900012    2    1    2    0    0  0.68265658790E+01  0.16576655869E+02  0.54123824813E+01  0.72461510590E+02  0.69999922224E+02 0.  0.
         12    1    1    2    0    0 -0.68265658790E+01 -0.16576655869E+02 -0.54123824813E+01  0.18726489410E+02  0.00000000000E+00 0. -1.
         11    1    3    3    0    0 -0.89745823173E+00  0.80505081427E+01 -0.22126655893E+00  0.81033987798E+01  0.51100000000E-03 0. -1.
        -11    1    3    3    0    0  0.31720533807E+02  0.13779931479E+02  0.15483284435E+02  0.37892095134E+02  0.51100000000E-03 0.  1.
         12    1    3    3    0    0 -0.23996509696E+02 -0.52537837525E+01 -0.98496353942E+01  0.26466016676E+02  0.00000000000E+00 0. -1.
</event>
<event>
 7    1  0.2941727E-013  0.7246152E+02  0.7816164E-02  0.1226708E+00
        -11   -1    0    0    0    0  0.00000000000E+00  0.00000000000E+00  0.45593999997E+02  0.45594000000E+02  0.51100000000E-03 0.  1.
         11   -1    0    0    0    0 -0.00000000000E+00 -0.00000000000E+00 -0.45593999997E+02  0.45594000000E+02  0.51100000000E-03 0. -1.
    9900012    2    1    2    0    0  0.34052743162E+00  0.64874563676E+01  0.17563538374E+02  0.72461523309E+02  0.69999938793E+02 0.  0.
         12    1    1    2    0    0 -0.34052743162E+00 -0.64874563676E+01 -0.17563538374E+02  0.18726476691E+02  0.00000000000E+00 0. -1.
         11    1    3    3    0    0  0.76559836828E+01 -0.62231198082E+01  0.18298905135E+02  0.20789209598E+02  0.51100000000E-03 0. -1.
        -11    1    3    3    0    0 -0.13295262331E+02 -0.16809453253E+02 -0.20093793852E+01  0.21525782793E+02  0.51100000000E-03 0.  1.
         12    1    3    3    0    0  0.59798060796E+01  0.29520029428E+02  0.12740126232E+01  0.30146530918E+02  0.00000000000E+00 0. -1.
</event>
<event>
 7    1  0.2941727E-013  0.7246157E+02  0.7816164E-02  0.1226708E+00
        -11   -1    0    0    0    0  0.00000000000E+00  0.00000000000E+00  0.45593999997E+02  0.45594000000E+02  0.51100000000E-03 0.  1.
         11   -1    0    0    0    0 -0.00000000000E+00 -0.00000000000E+00 -0.45593999997E+02  0.45594000000E+02  0.51100000000E-03 0. -1.
    9900012    2    1    2    0    0 -0.16206283111E+02  0.68305857265E+01  0.64326276437E+01  0.72461569159E+02  0.69999998521E+02 0.  0.
         12    1    1    2    0    0  0.16206283111E+02 -0.68305857265E+01 -0.64326276437E+01  0.18726430841E+02  0.00000000000E+00 0. -1.
         11    1    3    3    0    0  0.13622493619E+02  0.16063300787E+01  0.79218700363E+01  0.15840096397E+02  0.51100000000E-03 0. -1.
        -11    1    3    3    0    0 -0.18516923494E+02  0.20872428217E+02  0.14597193897E+02  0.31489883857E+02  0.51100000000E-03 0.  1.
         12    1    3    3    0    0 -0.11311853236E+02 -0.15648172570E+02 -0.16086436290E+02  0.25131588906E+02  0.00000000000E+00 0. -1.
</event>
<event>
 7    1  0.2941727E-013  0.7246097E+02  0.7816164E-02  0.1226710E+00
        -11   -1    0    0    0    0  0.00000000000E+00  0.00000000000E+00  0.45593999997E+02  0.45594000000E+02  0.51100000000E-03 0. -1.
         11   -1    0    0    0    0 -0.00000000000E+00 -0.00000000000E+00 -0.45593999997E+02  0.45594000000E+02  0.51100000000E-03 0.  1.
    9900012    2    1    2    0    0 -0.34635329569E+01 -0.85753043585E+01 -0.16284032100E+02  0.72460971223E+02  0.69999219594E+02 0.  0.
         12    1    1    2    0    0  0.34635329569E+01  0.85753043585E+01  0.16284032100E+02  0.18727028777E+02  0.00000000000E+00 0. -1.
         11    1    3    3    0    0  0.25006346512E+01  0.52369940633E+00  0.19599195409E+02  0.19765016966E+02  0.51100000000E-03 0. -1.
        -11    1    3    3    0    0  0.11728220718E+02 -0.80839664049E+00  0.93028667308E-01  0.11756416160E+02  0.51100000000E-03 0.  1.
        -12    1    3    3    0    0 -0.17692388326E+02 -0.82906071244E+01 -0.35976256176E+02  0.40939538097E+02  0.00000000000E+00 0.  1.
</event>
<event>
 7    1  0.2941727E-013  0.7246153E+02  0.7816164E-02  0.1226708E+00
        -11   -1    0    0    0    0  0.00000000000E+00  0.00000000000E+00  0.45593999997E+02  0.45594000000E+02  0.51100000000E-03 0.  1.
         11   -1    0    0    0    0 -0.00000000000E+00 -0.00000000000E+00 -0.45593999997E+02  0.45594000000E+02  0.51100000000E-03 0. -1.
    9900012    2    1    2    0    0 -0.86499106509E+01  0.42103978940E+01  0.16066494792E+02  0.72461530509E+02  0.69999948172E+02 0.  0.
         12    1    1    2    0    0  0.86499106509E+01 -0.42103978940E+01 -0.16066494792E+02  0.18726469491E+02  0.00000000000E+00 0. -1.
         11    1    3    3    0    0 -0.13209706441E+02 -0.13437299346E+02  0.86710275038E+01  0.20742325718E+02  0.51100000000E-03 0. -1.
        -11    1    3    3    0    0 -0.15323846262E+02  0.82757743078E+01 -0.13000330706E+02  0.21732862291E+02  0.51100000000E-03 0.  1.
         12    1    3    3    0    0  0.19883642051E+02  0.93719229326E+01  0.20395797994E+02  0.29986342500E+02  0.00000000000E+00 0. -1.
</event>
<event>
 7    1  0.2941727E-013  0.7246164E+02  0.7816164E-02  0.1226708E+00
        -11   -1    0    0    0    0  0.00000000000E+00  0.00000000000E+00  0.45593999997E+02  0.45594000000E+02  0.51100000000E-03 0. -1.
         11   -1    0    0    0    0 -0.00000000000E+00 -0.00000000000E+00 -0.45593999997E+02  0.45594000000E+02  0.51100000000E-03 0.  1.
    9900012    2    1    2    0    0 -0.56265715105E+01  0.45349275717E+01 -0.17275779583E+02  0.72461643301E+02  0.70000095104E+02 0.  0.
         12    1    1    2    0    0  0.56265715105E+01 -0.45349275717E+01  0.17275779583E+02  0.18726356699E+02  0.00000000000E+00 0. -1.
         11    1    3    3    0    0  0.16519617240E+02 -0.23819681489E+02 -0.10258577260E+02  0.30749201415E+02  0.51100000000E-03 0. -1.
        -11    1    3    3    0    0  0.14746701286E+01  0.57973120583E+01  0.40531894175E+01  0.72257749622E+01  0.51100000000E-03 0.  1.
        -12    1    3    3    0    0 -0.23620858879E+02  0.22557297003E+02 -0.11070391740E+02  0.34486666924E+02  0.00000000000E+00 0.  1.
</event>
<event>
 7    1  0.2941727E-013  0.7246168E+02  0.7816164E-02  0.1226708E+00
        -11   -1    0    0    0    0  0.00000000000E+00  0.00000000000E+00  0.45593999997E+02  0.45594000000E+02  0.51100000000E-03 0. -1.
         11   -1    0    0    0    0 -0.00000000000E+00 -0.00000000000E+00 -0.45593999997E+02  0.45594000000E+02  0.51100000000E-03 0.  1.
    9900012    2    1    2    0    0  0.98201021473E+01  0.47295753470E+01 -0.15227336894E+02  0.72461679538E+02  0.70000142310E+02 0.  0.
         12    1    1    2    0    0 -0.98201021473E+01 -0.47295753470E+01  0.15227336894E+02  0.18726320462E+02  0.00000000000E+00 0. -1.
         11    1    3    3    0    0  0.31398064364E+01  0.11622660998E+02  0.24121286201E+01  0.12278558461E+02  0.51100000000E-03 0. -1.
        -11    1    3    3    0    0  0.28303555081E+01  0.16063733453E+02 -0.29761708476E+02  0.33938381464E+02  0.51100000000E-03 0.  1.
         12    1    3    3    0    0  0.38499402028E+01 -0.22956819104E+02  0.12122242961E+02  0.26244739613E+02  0.00000000000E+00 0. -1.
</event>
<event>
 7    1  0.2941727E-013  0.7246153E+02  0.7816164E-02  0.1226708E+00
        -11   -1    0    0    0    0  0.00000000000E+00  0.00000000000E+00  0.45593999997E+02  0.45594000000E+02  0.51100000000E-03 0. -1.
         11   -1    0    0    0    0 -0.00000000000E+00 -0.00000000000E+00 -0.45593999997E+02  0.45594000000E+02  0.51100000000E-03 0.  1.
    9900012    2    1    2    0    0 -0.13990752377E+02  0.11509679306E+02 -0.47399157604E+01  0.72461530199E+02  0.69999947768E+02 0.  0.
         12    1    1    2    0    0  0.13990752377E+02 -0.11509679306E+02  0.47399157604E+01  0.18726469801E+02  0.00000000000E+00 0. -1.
         11    1    3    3    0    0 -0.84100784384E+00 -0.25631789048E+01 -0.12388008834E+02  0.12678325734E+02  0.51100000000E-03 0. -1.
        -11    1    3    3    0    0 -0.26333723330E+02 -0.11167547121E+02 -0.42564052615E+01  0.28918784191E+02  0.51100000000E-03 0.  1.
         12    1    3    3    0    0  0.13183978796E+02  0.25240405331E+02  0.11904498335E+02  0.30864420273E+02  0.00000000000E+00 0. -1.
</event>
<event>
 7    1  0.2941727E-013  0.7246162E+02  0.7816164E-02  0.1226708E+00
        -11   -1    0    0    0    0  0.00000000000E+00  0.00000000000E+00  0.45593999997E+02  0.45594000000E+02  0.51100000000E-03 0. -1.
         11   -1    0    0    0    0 -0.00000000000E+00 -0.00000000000E+00 -0.45593999997E+02  0.45594000000E+02  0.51100000000E-03 0.  1.
    9900012    2    1    2    0    0  0.16416872456E+02 -0.81668525211E+01  0.38034564560E+01  0.72461615876E+02  0.70000059378E+02 0.  0.
         12    1    1    2    0    0 -0.16416872456E+02  0.81668525211E+01 -0.38034564560E+01  0.18726384124E+02  0.00000000000E+00 0. -1.
         11    1    3    3    0    0  0.45412836562E+01  0.11047827211E+02 -0.47994988356E+01  0.12872953533E+02  0.51100000000E-03 0. -1.
        -11    1    3    3    0    0 -0.54363060214E+01 -0.20030630517E+01 -0.20673371149E+02  0.21469838371E+02  0.51100000000E-03 0.  1.
         12    1    3    3    0    0  0.17311894822E+02 -0.17211616681E+02  0.29276326441E+02  0.38118823971E+02  0.00000000000E+00 0. -1.
</event>
<event>
 7    1  0.2941727E-013  0.7246155E+02  0.7816164E-02  0.1226708E+00
        -11   -1    0    0    0    0  0.00000000000E+00  0.00000000000E+00  0.45593999997E+02  0.45594000000E+02  0.51100000000E-03 0.  1.
         11   -1    0    0    0    0 -0.00000000000E+00 -0.00000000000E+00 -0.45593999997E+02  0.45594000000E+02  0.51100000000E-03 0. -1.
    9900012    2    1    2    0    0  0.92670517979E+00 -0.90089799539E+01  0.16390831457E+02  0.72461551908E+02  0.69999976048E+02 0.  0.
         12    1    1    2    0    0 -0.92670517979E+00  0.90089799539E+01 -0.16390831457E+02  0.18726448092E+02  0.00000000000E+00 0. -1.
         11    1    3    3    0    0  0.25898188589E+02 -0.33828289816E+01  0.39317237566E+01  0.26412462135E+02  0.51100000000E-03 0. -1.
        -11    1    3    3    0    0 -0.10228334629E+02  0.14483265488E+02  0.11424528410E+02  0.21092739465E+02  0.51100000000E-03 0.  1.
         12    1    3    3    0    0 -0.14743148780E+02 -0.20109416461E+02  0.10345792901E+01  0.24956350307E+02  0.00000000000E+00 0. -1.
</event>
<event>
 7    1  0.2941727E-013  0.7246155E+02  0.7816164E-02  0.1226708E+00
        -11   -1    0    0    0    0  0.00000000000E+00  0.00000000000E+00  0.45593999997E+02  0.45594000000E+02  0.51100000000E-03 0.  1.
         11   -1    0    0    0    0 -0.00000000000E+00 -0.00000000000E+00 -0.45593999997E+02  0.45594000000E+02  0.51100000000E-03 0. -1.
    9900012    2    1    2    0    0 -0.26157461861E+01 -0.13862455783E+02  0.12315440770E+02  0.72461551062E+02  0.69999974947E+02 0.  0.
         12    1    1    2    0    0  0.26157461861E+01  0.13862455783E+02 -0.12315440770E+02  0.18726448938E+02  0.00000000000E+00 0. -1.
         11    1    3    3    0    0  0.84078231302E+01  0.64296414978E+01  0.52802770736E+01  0.11828487047E+02  0.51100000000E-03 0. -1.
        -11    1    3    3    0    0 -0.14155596055E+02  0.14256461944E+02  0.14960736768E+02  0.25048977059E+02  0.51100000000E-03 0.  1.
        -12    1    3    3    0    0  0.31320267387E+01 -0.34548559225E+02 -0.79255730713E+01  0.35584086956E+02  0.00000000000E+00 0.  1.
</event>
<event>
 7    1  0.2941727E-013  0.7246153E+02  0.7816164E-02  0.1226708E+00
        -11   -1    0    0    0    0  0.00000000000E+00  0.00000000000E+00  0.45593999997E+02  0.45594000000E+02  0.51100000000E-03 0.  1.
         11   -1    0    0    0    0 -0.00000000000E+00 -0.00000000000E+00 -0.45593999997E+02  0.45594000000E+02  0.51100000000E-03 0. -1.
    9900012    2    1    2    0    0  0.17240166090E+02 -0.40288001616E+01 -0.61013294958E+01  0.72461527317E+02  0.69999944014E+02 0.  0.
         12    1    1    2    0    0 -0.17240166090E+02  0.40288001616E+01  0.61013294958E+01  0.18726472683E+02  0.00000000000E+00 0. -1.
         11    1    3    3    0    0 -0.41268686092E+01 -0.21396786001E+02 -0.33101475905E+01  0.22041110975E+02  0.51100000000E-03 0. -1.
        -11    1    3    3    0    0 -0.11192688570E+02  0.51066162814E+00  0.60095190461E+01  0.12714219290E+02  0.51100000000E-03 0.  1.
         12    1    3    3    0    0  0.32559723269E+02  0.16857324211E+02 -0.88007009514E+01  0.37706197052E+02  0.00000000000E+00 0. -1.
</event>
<event>
 7    1  0.2941727E-013  0.7246157E+02  0.7816164E-02  0.1226708E+00
        -11   -1    0    0    0    0  0.00000000000E+00  0.00000000000E+00  0.45593999997E+02  0.45594000000E+02  0.51100000000E-03 0. -1.
         11   -1    0    0    0    0 -0.00000000000E+00 -0.00000000000E+00 -0.45593999997E+02  0.45594000000E+02  0.51100000000E-03 0.  1.
    9900012    2    1    2    0    0 -0.15692542630E+02 -0.89399788235E+01 -0.49497523410E+01  0.72461570447E+02  0.70000000199E+02 0.  0.
         12    1    1    2    0    0  0.15692542630E+02  0.89399788235E+01  0.49497523410E+01  0.18726429553E+02  0.00000000000E+00 0. -1.
         11    1    3    3    0    0  0.13848208592E+02  0.17574999877E+02  0.11882226632E+02  0.25334577397E+02  0.51100000000E-03 0. -1.
        -11    1    3    3    0    0 -0.65206941419E+01 -0.17424743605E+02 -0.32217771067E+01  0.18881763418E+02  0.51100000000E-03 0.  1.
        -12    1    3    3    0    0 -0.23020057081E+02 -0.90902350955E+01 -0.13610201866E+02  0.28245229631E+02  0.00000000000E+00 0.  1.
</event>
<event>
 7    1  0.2941727E-013  0.7246158E+02  0.7816164E-02  0.1226708E+00
        -11   -1    0    0    0    0  0.00000000000E+00  0.00000000000E+00  0.45593999997E+02  0.45594000000E+02  0.51100000000E-03 0.  1.
         11   -1    0    0    0    0 -0.00000000000E+00 -0.00000000000E+00 -0.45593999997E+02  0.45594000000E+02  0.51100000000E-03 0. -1.
    9900012    2    1    2    0    0  0.67059095968E+01  0.16042239804E+02 -0.69538682659E+01  0.72461575746E+02  0.70000007102E+02 0.  0.
         12    1    1    2    0    0 -0.67059095968E+01 -0.16042239804E+02  0.69538682659E+01  0.18726424254E+02  0.00000000000E+00 0. -1.
         11    1    3    3    0    0 -0.22110906957E+01 -0.15697324740E+02 -0.72560767728E+01  0.17434035002E+02  0.51100000000E-03 0. -1.
        -11    1    3    3    0    0 -0.16596287354E+02  0.77850093211E+01  0.65719927276E+01  0.19473936755E+02  0.51100000000E-03 0.  1.
        -12    1    3    3    0    0  0.25513287647E+02  0.23954555223E+02 -0.62697842207E+01  0.35553603990E+02  0.00000000000E+00 0.  1.
</event>
<event>
 7    1  0.2941727E-013  0.7246158E+02  0.7816164E-02  0.1226708E+00
        -11   -1    0    0    0    0  0.00000000000E+00  0.00000000000E+00  0.45593999997E+02  0.45594000000E+02  0.51100000000E-03 0.  1.
         11   -1    0    0    0    0 -0.00000000000E+00 -0.00000000000E+00 -0.45593999997E+02  0.45594000000E+02  0.51100000000E-03 0. -1.
    9900012    2    1    2    0    0 -0.29810575509E+01 -0.14763154399E+02  0.11128396409E+02  0.72461584471E+02  0.70000018468E+02 0.  0.
         12    1    1    2    0    0  0.29810575509E+01  0.14763154399E+02 -0.11128396409E+02  0.18726415529E+02  0.00000000000E+00 0. -1.
         11    1    3    3    0    0 -0.86008372637E+01 -0.18194173921E+02  0.10607754611E+02  0.22749215908E+02  0.51100000000E-03 0. -1.
        -11    1    3    3    0    0  0.69245021986E+01 -0.10627190496E+02  0.21181111658E+02  0.24688568202E+02  0.51100000000E-03 0.  1.
         12    1    3    3    0    0 -0.13047224858E+01  0.14058210018E+02 -0.20660469860E+02  0.25023800361E+02  0.00000000000E+00 0. -1.
</event>
<event>
 7    1  0.2941727E-013  0.7246155E+02  0.7816164E-02  0.1226708E+00
        -11   -1    0    0    0    0  0.00000000000E+00  0.00000000000E+00  0.45593999997E+02  0.45594000000E+02  0.51100000000E-03 0.  1.
         11   -1    0    0    0    0 -0.00000000000E+00 -0.00000000000E+00 -0.45593999997E+02  0.45594000000E+02  0.51100000000E-03 0. -1.
    9900012    2    1    2    0    0 -0.18514369977E+02 -0.27035248192E+01 -0.76745818706E+00  0.72461549878E+02  0.69999973404E+02 0.  0.
         12    1    1    2    0    0  0.18514369977E+02  0.27035248192E+01  0.76745818706E+00  0.18726450122E+02  0.00000000000E+00 0. -1.
         11    1    3    3    0    0 -0.49373338017E+01 -0.86280397950E+01 -0.25303640305E+01  0.10257830090E+02  0.51100000000E-03 0.  1.
        -11    1    3    3    0    0  0.91059637216E+01 -0.84819609326E+01 -0.22685646148E+02  0.25874713100E+02  0.51100000000E-03 0. -1.
        -12    1    3    3    0    0 -0.22682999897E+02  0.14406475908E+02  0.24448551992E+02  0.36329006688E+02  0.00000000000E+00 0.  1.
</event>
<event>
 7    1  0.2941727E-013  0.7246154E+02  0.7816164E-02  0.1226708E+00
        -11   -1    0    0    0    0  0.00000000000E+00  0.00000000000E+00  0.45593999997E+02  0.45594000000E+02  0.51100000000E-03 0. -1.
         11   -1    0    0    0    0 -0.00000000000E+00 -0.00000000000E+00 -0.45593999997E+02  0.45594000000E+02  0.51100000000E-03 0.  1.
    9900012    2    1    2    0    0 -0.12636709080E+02  0.12711113973E+02 -0.54241553131E+01  0.72461540226E+02  0.69999960830E+02 0.  0.
         12    1    1    2    0    0  0.12636709080E+02 -0.12711113973E+02  0.54241553131E+01  0.18726459774E+02  0.00000000000E+00 0. -1.
         11    1    3    3    0    0  0.19990671606E+01 -0.10641156691E+02  0.27131473022E+02  0.29212109027E+02  0.51100000000E-03 0. -1.
        -11    1    3    3    0    0 -0.87906711317E+01  0.11365136190E+02 -0.11868192096E+02  0.18635884831E+02  0.51100000000E-03 0.  1.
        -12    1    3    3    0    0 -0.58451051091E+01  0.11987134474E+02 -0.20687436239E+02  0.24613546367E+02  0.00000000000E+00 0.  1.
</event>
<event>
 7    1  0.2941727E-013  0.7246158E+02  0.7816164E-02  0.1226708E+00
        -11   -1    0    0    0    0  0.00000000000E+00  0.00000000000E+00  0.45593999997E+02  0.45594000000E+02  0.51100000000E-03 0.  1.
         11   -1    0    0    0    0 -0.00000000000E+00 -0.00000000000E+00 -0.45593999997E+02  0.45594000000E+02  0.51100000000E-03 0. -1.
    9900012    2    1    2    0    0 -0.25448548111E+01  0.80542419973E+01  0.16713218514E+02  0.72461580874E+02  0.70000013782E+02 0.  0.
         12    1    1    2    0    0  0.25448548111E+01 -0.80542419973E+01 -0.16713218514E+02  0.18726419126E+02  0.00000000000E+00 0. -1.
         11    1    3    3    0    0 -0.11243149602E+02 -0.64830876068E+01 -0.17101131610E+02  0.21468291513E+02  0.51100000000E-03 0. -1.
        -11    1    3    3    0    0 -0.13033219459E+02  0.61754540528E+01  0.16877764062E+02  0.22200449595E+02  0.51100000000E-03 0.  1.
        -12    1    3    3    0    0  0.21731514250E+02  0.83618755514E+01  0.16936586062E+02  0.28792839766E+02  0.00000000000E+00 0.  1.
</event>
<event>
 7    1  0.2941727E-013  0.7246151E+02  0.7816164E-02  0.1226708E+00
        -11   -1    0    0    0    0  0.00000000000E+00  0.00000000000E+00  0.45593999997E+02  0.45594000000E+02  0.51100000000E-03 0. -1.
         11   -1    0    0    0    0 -0.00000000000E+00 -0.00000000000E+00 -0.45593999997E+02  0.45594000000E+02  0.51100000000E-03 0.  1.
    9900012    2    1    2    0    0  0.75695248989E+01  0.70004227156E+01 -0.15632586543E+02  0.72461511076E+02  0.69999922857E+02 0.  0.
         12    1    1    2    0    0 -0.75695248989E+01 -0.70004227156E+01  0.15632586543E+02  0.18726488924E+02  0.00000000000E+00 0. -1.
         11    1    3    3    0    0  0.10066014475E+01 -0.12507857299E+02 -0.52804365527E+01  0.13614064461E+02  0.51100000000E-03 0. -1.
        -11    1    3    3    0    0 -0.16618237063E+02 -0.50133396719E+00  0.12363869733E+02  0.20719131591E+02  0.51100000000E-03 0.  1.
         12    1    3    3    0    0  0.23181160514E+02  0.20009613982E+02 -0.22716019724E+02  0.38128315024E+02  0.00000000000E+00 0. -1.
</event>
<event>
 7    1  0.2941727E-013  0.7246156E+02  0.7816164E-02  0.1226708E+00
        -11   -1    0    0    0    0  0.00000000000E+00  0.00000000000E+00  0.45593999997E+02  0.45594000000E+02  0.51100000000E-03 0. -1.
         11   -1    0    0    0    0 -0.00000000000E+00 -0.00000000000E+00 -0.45593999997E+02  0.45594000000E+02  0.51100000000E-03 0.  1.
    9900012    2    1    2    0    0  0.33928030181E+01 -0.72079396464E+01 -0.16947395666E+02  0.72461555433E+02  0.69999980640E+02 0.  0.
         12    1    1    2    0    0 -0.33928030181E+01  0.72079396464E+01  0.16947395666E+02  0.18726444567E+02  0.00000000000E+00 0. -1.
         11    1    3    3    0    0 -0.14862800615E+01 -0.18094183277E+02  0.15675391190E+02  0.23985962272E+02  0.51100000000E-03 0. -1.
        -11    1    3    3    0    0  0.22752717062E+01  0.81203482087E+01  0.55621327025E+01  0.10102189705E+02  0.51100000000E-03 0.  1.
        -12    1    3    3    0    0  0.26038113734E+01  0.27658954218E+01 -0.38184919558E+02  0.38373403457E+02  0.00000000000E+00 0.  1.
</event>
<event>
 7    1  0.2941727E-013  0.7246149E+02  0.7816164E-02  0.1226708E+00
        -11   -1    0    0    0    0  0.00000000000E+00  0.00000000000E+00  0.45593999997E+02  0.45594000000E+02  0.51100000000E-03 0.  1.
         11   -1    0    0    0    0 -0.00000000000E+00 -0.00000000000E+00 -0.45593999997E+02  0.45594000000E+02  0.51100000000E-03 0. -1.
    9900012    2    1    2    0    0 -0.46874308907E+01  0.14048534918E+02  0.11460758865E+02  0.72461485763E+02  0.69999889883E+02 0.  0.
         12    1    1    2    0    0  0.46874308907E+01 -0.14048534918E+02 -0.11460758865E+02  0.18726514237E+02  0.00000000000E+00 0. -1.
         11    1    3    3    0    0 -0.96819029938E+00 -0.22189827164E+02  0.23515139697E+02  0.32346369460E+02  0.51100000000E-03 0. -1.
        -11    1    3    3    0    0  0.11414125402E+01  0.94062758029E+00  0.13924172972E+01  0.20313613717E+01  0.51100000000E-03 0.  1.
        -12    1    3    3    0    0 -0.48606531316E+01  0.35297734501E+02 -0.13446798129E+02  0.38083754932E+02  0.00000000000E+00 0.  1.
</event>
<event>
 7    1  0.2941727E-013  0.7246160E+02  0.7816164E-02  0.1226708E+00
        -11   -1    0    0    0    0  0.00000000000E+00  0.00000000000E+00  0.45593999997E+02  0.45594000000E+02  0.51100000000E-03 0.  1.
         11   -1    0    0    0    0 -0.00000000000E+00 -0.00000000000E+00 -0.45593999997E+02  0.45594000000E+02  0.51100000000E-03 0. -1.
    9900012    2    1    2    0    0  0.13360014617E+02  0.10698815261E+02 -0.75975977038E+01  0.72461598065E+02  0.70000036177E+02 0.  0.
         12    1    1    2    0    0 -0.13360014617E+02 -0.10698815261E+02  0.75975977038E+01  0.18726401935E+02  0.00000000000E+00 0. -1.
         11    1    3    3    0    0 -0.46994529767E+00  0.22515578791E+02 -0.78291102497E+01  0.23842548195E+02  0.51100000000E-03 0. -1.
        -11    1    3    3    0    0  0.21770476387E+01  0.17038164838E+02 -0.25960972550E+01  0.17371767863E+02  0.51100000000E-03 0.  1.
         12    1    3    3    0    0  0.11652912276E+02 -0.28854928368E+02  0.28276098008E+01  0.31247282007E+02  0.00000000000E+00 0. -1.
</event>
<event>
 7    1  0.2941727E-013  0.7246160E+02  0.7816164E-02  0.1226708E+00
        -11   -1    0    0    0    0  0.00000000000E+00  0.00000000000E+00  0.45593999997E+02  0.45594000000E+02  0.51100000000E-03 0. -1.
         11   -1    0    0    0    0 -0.00000000000E+00 -0.00000000000E+00 -0.45593999997E+02  0.45594000000E+02  0.51100000000E-03 0.  1.
    9900012    2    1    2    0    0 -0.79464011026E+01  0.74572550475E+00 -0.16940384908E+02  0.72461600510E+02  0.70000039362E+02 0.  0.
         12    1    1    2    0    0  0.79464011026E+01 -0.74572550475E+00  0.16940384908E+02  0.18726399490E+02  0.00000000000E+00 0. -1.
         11    1    3    3    0    0 -0.26937475087E+02 -0.20403806465E+02 -0.14074428033E+02  0.36606453079E+02  0.51100000000E-03 0. -1.
        -11    1    3    3    0    0  0.25979117166E+01 -0.26890219217E+01 -0.56663353903E+01  0.67887658083E+01  0.51100000000E-03 0.  1.
        -12    1    3    3    0    0  0.16393162268E+02  0.23838553892E+02  0.28003785151E+01  0.29066381623E+02  0.00000000000E+00 0.  1.
</event>
<event>
 7    1  0.2941727E-013  0.7246155E+02  0.7816164E-02  0.1226708E+00
        -11   -1    0    0    0    0  0.00000000000E+00  0.00000000000E+00  0.45593999997E+02  0.45594000000E+02  0.51100000000E-03 0. -1.
         11   -1    0    0    0    0 -0.00000000000E+00 -0.00000000000E+00 -0.45593999997E+02  0.45594000000E+02  0.51100000000E-03 0.  1.
    9900012    2    1    2    0    0 -0.94635293700E+01  0.15303693129E+02 -0.51882897117E+01  0.72461554484E+02  0.69999979405E+02 0.  0.
         12    1    1    2    0    0  0.94635293700E+01 -0.15303693129E+02  0.51882897117E+01  0.18726445516E+02  0.00000000000E+00 0. -1.
         11    1    3    3    0    0 -0.54375339946E+01  0.18509891905E+02  0.14844944235E+02  0.24342457639E+02  0.51100000000E-03 0. -1.
        -11    1    3    3    0    0 -0.21335846288E+02 -0.11262358712E+02 -0.14870654436E+02  0.28340702606E+02  0.51100000000E-03 0.  1.
         12    1    3    3    0    0  0.17309850912E+02  0.80561599349E+01 -0.51625795109E+01  0.19778394240E+02  0.00000000000E+00 0. -1.
</event>
<event>
 7    1  0.2941727E-013  0.7246162E+02  0.7816164E-02  0.1226708E+00
        -11   -1    0    0    0    0  0.00000000000E+00  0.00000000000E+00  0.45593999997E+02  0.45594000000E+02  0.51100000000E-03 0.  1.
         11   -1    0    0    0    0 -0.00000000000E+00 -0.00000000000E+00 -0.45593999997E+02  0.45594000000E+02  0.51100000000E-03 0. -1.
    9900012    2    1    2    0    0 -0.25818707586E+00 -0.14526130936E+02  0.11815332884E+02  0.72461622035E+02  0.70000067401E+02 0.  0.
         12    1    1    2    0    0  0.25818707586E+00  0.14526130936E+02 -0.11815332884E+02  0.18726377965E+02  0.00000000000E+00 0. -1.
         11    1    3    3    0    0 -0.40824806567E+01 -0.93366676432E+01  0.26604937841E+01  0.10531772806E+02  0.51100000000E-03 0. -1.
        -11    1    3    3    0    0  0.85605772936E+01 -0.28870005544E+02  0.19266796266E+02  0.35748708261E+02  0.51100000000E-03 0.  1.
         12    1    3    3    0    0 -0.47362837128E+01  0.23680542250E+02 -0.10111957167E+02  0.26181140968E+02  0.00000000000E+00 0. -1.
</event>
<event>
 7    1  0.2941727E-013  0.7246159E+02  0.7816164E-02  0.1226708E+00
        -11   -1    0    0    0    0  0.00000000000E+00  0.00000000000E+00  0.45593999997E+02  0.45594000000E+02  0.51100000000E-03 0.  1.
         11   -1    0    0    0    0 -0.00000000000E+00 -0.00000000000E+00 -0.45593999997E+02  0.45594000000E+02  0.51100000000E-03 0. -1.
    9900012    2    1    2    0    0 -0.94123264020E+00  0.18565071068E+02 -0.22650712776E+01  0.72461592695E+02  0.70000029181E+02 0.  0.
         12    1    1    2    0    0  0.94123264020E+00 -0.18565071068E+02  0.22650712776E+01  0.18726407305E+02  0.00000000000E+00 0. -1.
         11    1    3    3    0    0  0.96983146558E+01 -0.48781869112E+01  0.10490928382E+02  0.15096807387E+02  0.51100000000E-03 0. -1.
        -11    1    3    3    0    0  0.30636505460E+01  0.17863087008E+02  0.16545003193E+02  0.24540027771E+02  0.51100000000E-03 0.  1.
         12    1    3    3    0    0 -0.13703197842E+02  0.55801709718E+01 -0.29301002852E+02  0.32824757536E+02  0.00000000000E+00 0. -1.
</event>
<event>
 7    1  0.2941727E-013  0.7246158E+02  0.7816164E-02  0.1226708E+00
        -11   -1    0    0    0    0  0.00000000000E+00  0.00000000000E+00  0.45593999997E+02  0.45594000000E+02  0.51100000000E-03 0.  1.
         11   -1    0    0    0    0 -0.00000000000E+00 -0.00000000000E+00 -0.45593999997E+02  0.45594000000E+02  0.51100000000E-03 0. -1.
    9900012    2    1    2    0    0  0.93281146112E+01 -0.13012775233E+02 -0.97125078386E+01  0.72461578826E+02  0.70000011114E+02 0.  0.
         12    1    1    2    0    0 -0.93281146112E+01  0.13012775233E+02  0.97125078386E+01  0.18726421174E+02  0.00000000000E+00 0. -1.
         11    1    3    3    0    0  0.48191846539E+01  0.13142506608E+00  0.25703843674E-01  0.48210449308E+01  0.51100000000E-03 0. -1.
        -11    1    3    3    0    0  0.12990418400E+02 -0.38192249518E+02 -0.36657019613E+01  0.40507237188E+02  0.51100000000E-03 0.  1.
         12    1    3    3    0    0 -0.84814884425E+01  0.25048049219E+02 -0.60725097210E+01  0.27133296707E+02  0.00000000000E+00 0. -1.
</event>
<event>
 7    1  0.2941727E-013  0.7246160E+02  0.7816164E-02  0.1226708E+00
        -11   -1    0    0    0    0  0.00000000000E+00  0.00000000000E+00  0.45593999997E+02  0.45594000000E+02  0.51100000000E-03 0. -1.
         11   -1    0    0    0    0 -0.00000000000E+00 -0.00000000000E+00 -0.45593999997E+02  0.45594000000E+02  0.51100000000E-03 0.  1.
    9900012    2    1    2    0    0 -0.14013819569E+01  0.39710341638E+00 -0.18669671179E+02  0.72461596596E+02  0.70000034263E+02 0.  0.
         12    1    1    2    0    0  0.14013819569E+01 -0.39710341638E+00  0.18669671179E+02  0.18726403404E+02  0.00000000000E+00 0. -1.
         11    1    3    3    0    0 -0.22258408500E+01 -0.25991925120E+02 -0.18129546620E+02  0.31768144419E+02  0.51100000000E-03 0. -1.
        -11    1    3    3    0    0  0.21430924699E+01 -0.29135241027E+01 -0.93840903707E+01  0.10056968747E+02  0.51100000000E-03 0.  1.
        -12    1    3    3    0    0 -0.13186335767E+01  0.29302552639E+02  0.88439658122E+01  0.30636483430E+02  0.00000000000E+00 0.  1.
</event>
<event>
 7    1  0.2941727E-013  0.7246154E+02  0.7816164E-02  0.1226708E+00
        -11   -1    0    0    0    0  0.00000000000E+00  0.00000000000E+00  0.45593999997E+02  0.45594000000E+02  0.51100000000E-03 0.  1.
         11   -1    0    0    0    0 -0.00000000000E+00 -0.00000000000E+00 -0.45593999997E+02  0.45594000000E+02  0.51100000000E-03 0. -1.
    9900012    2    1    2    0    0 -0.92570255669E+01 -0.14411161515E+02  0.75700889149E+01  0.72461538916E+02  0.69999959123E+02 0.  0.
         12    1    1    2    0    0  0.92570255669E+01  0.14411161515E+02 -0.75700889149E+01  0.18726461084E+02  0.00000000000E+00 0. -1.
         11    1    3    3    0    0 -0.11084781581E+02  0.32033152460E+01 -0.16573311687E+02  0.20194263339E+02  0.51100000000E-03 0. -1.
        -11    1    3    3    0    0  0.20108400573E+02 -0.17631204953E+02  0.20329306570E+02  0.33592973485E+02  0.51100000000E-03 0.  1.
         12    1    3    3    0    0 -0.18280644559E+02  0.16728191763E-01  0.38140940322E+01  0.18674302091E+02  0.00000000000E+00 0. -1.
</event>
<event>
 7    1  0.2941727E-013  0.7246158E+02  0.7816164E-02  0.1226708E+00
        -11   -1    0    0    0    0  0.00000000000E+00  0.00000000000E+00  0.45593999997E+02  0.45594000000E+02  0.51100000000E-03 0.  1.
         11   -1    0    0    0    0 -0.00000000000E+00 -0.00000000000E+00 -0.45593999997E+02  0.45594000000E+02  0.51100000000E-03 0. -1.
    9900012    2    1    2    0    0 -0.11727613771E+02  0.24970090798E+01  0.14384259838E+02  0.72461577218E+02  0.70000009019E+02 0.  0.
         12    1    1    2    0    0  0.11727613771E+02 -0.24970090798E+01 -0.14384259838E+02  0.18726422782E+02  0.00000000000E+00 0. -1.
         11    1    3    3    0    0  0.22169454878E+02  0.59482690098E+01  0.14159293408E+02  0.26969468365E+02  0.51100000000E-03 0. -1.
        -11    1    3    3    0    0  0.34242821946E+01 -0.49145964438E+01 -0.49690004545E+01  0.77826687281E+01  0.51100000000E-03 0.  1.
        -12    1    3    3    0    0 -0.37321350844E+02  0.14633365139E+01  0.51939668847E+01  0.37709440125E+02  0.00000000000E+00 0.  1.
</event>
<event>
 7    1  0.2941727E-013  0.7246175E+02  0.7816164E-02  0.1226708E+00
        -11   -1    0    0    0    0  0.00000000000E+00  0.00000000000E+00  0.45593999997E+02  0.45594000000E+02  0.51100000000E-03 0. -1.
         11   -1    0    0    0    0 -0.00000000000E+00 -0.00000000000E+00 -0.45593999997E+02  0.45594000000E+02  0.51100000000E-03 0.  1.
    9900012    2    1    2    0    0  0.18481824733E+02 -0.15547283065E+01  0.25840727793E+01  0.72461749502E+02  0.70000233451E+02 0.  0.
         12    1    1    2    0    0 -0.18481824733E+02  0.15547283065E+01 -0.25840727793E+01  0.18726250498E+02  0.00000000000E+00 0. -1.
         11    1    3    3    0    0  0.11014307267E+00  0.21941376166E+01 -0.31843565981E+01  0.38686559141E+01  0.51100000000E-03 0. -1.
        -11    1    3    3    0    0  0.98875298863E+01  0.16157608404E+02 -0.24758920560E+02  0.31174279529E+02  0.51100000000E-03 0.  1.
         12    1    3    3    0    0  0.84841517741E+01 -0.19906474327E+02  0.30527349937E+02  0.37418814060E+02  0.00000000000E+00 0. -1.
</event>
<event>
 7    1  0.2941727E-013  0.7246156E+02  0.7816164E-02  0.1226708E+00
        -11   -1    0    0    0    0  0.00000000000E+00  0.00000000000E+00  0.45593999997E+02  0.45594000000E+02  0.51100000000E-03 0.  1.
         11   -1    0    0    0    0 -0.00000000000E+00 -0.00000000000E+00 -0.45593999997E+02  0.45594000000E+02  0.51100000000E-03 0. -1.
    9900012    2    1    2    0    0  0.10314662521E+02  0.90287317355E+01  0.12758112068E+02  0.72461556579E+02  0.69999982133E+02 0.  0.
         12    1    1    2    0    0 -0.10314662521E+02 -0.90287317355E+01 -0.12758112068E+02  0.18726443421E+02  0.00000000000E+00 0. -1.
         11    1    3    3    0    0 -0.28903765415E+01 -0.97947988057E+01 -0.21560584386E+02  0.23856889142E+02  0.51100000000E-03 0. -1.
        -11    1    3    3    0    0 -0.51384979176E+01  0.73408962455E+01  0.11976845363E+01  0.90403189682E+01  0.51100000000E-03 0.  1.
        -12    1    3    3    0    0  0.18343536980E+02  0.11482634296E+02  0.33121011918E+02  0.39564348469E+02  0.00000000000E+00 0.  1.
</event>
<event>
 7    1  0.2941727E-013  0.7246156E+02  0.7816164E-02  0.1226708E+00
        -11   -1    0    0    0    0  0.00000000000E+00  0.00000000000E+00  0.45593999997E+02  0.45594000000E+02  0.51100000000E-03 0. -1.
         11   -1    0    0    0    0 -0.00000000000E+00 -0.00000000000E+00 -0.45593999997E+02  0.45594000000E+02  0.51100000000E-03 0.  1.
    9900012    2    1    2    0    0  0.39254175918E+01  0.90929869000E+01 -0.15893020771E+02  0.72461563520E+02  0.69999991175E+02 0.  0.
         12    1    1    2    0    0 -0.39254175918E+01 -0.90929869000E+01  0.15893020771E+02  0.18726436480E+02  0.00000000000E+00 0. -1.
         11    1    3    3    0    0 -0.54091133909E+01 -0.22347605288E+02  0.16795346248E+01  0.23054171132E+02  0.51100000000E-03 0. -1.
        -11    1    3    3    0    0  0.11058351492E+02 -0.22537737307E+01  0.17237453479E+00  0.11286999025E+02  0.51100000000E-03 0.  1.
         12    1    3    3    0    0 -0.17238205096E+01  0.33694365919E+02 -0.17744929930E+02  0.38120393362E+02  0.00000000000E+00 0. -1.
</event>
<event>
 7    1  0.2941727E-013  0.7246156E+02  0.7816164E-02  0.1226708E+00
        -11   -1    0    0    0    0  0.00000000000E+00  0.00000000000E+00  0.45593999997E+02  0.45594000000E+02  0.51100000000E-03 0.  1.
         11   -1    0    0    0    0 -0.00000000000E+00 -0.00000000000E+00 -0.45593999997E+02  0.45594000000E+02  0.51100000000E-03 0. -1.
    9900012    2    1    2    0    0  0.11846669096E+02  0.11892081326E+02  0.83014653595E+01  0.72461561629E+02  0.69999988712E+02 0.  0.
         12    1    1    2    0    0 -0.11846669096E+02 -0.11892081326E+02 -0.83014653595E+01  0.18726438371E+02  0.00000000000E+00 0. -1.
         11    1    3    3    0    0  0.13843712094E+02  0.10203335285E+01 -0.15643134625E+02  0.20914040886E+02  0.51100000000E-03 0. -1.
        -11    1    3    3    0    0  0.39338808938E+01 -0.15927507020E+02  0.22465603975E+01  0.16559225001E+02  0.51100000000E-03 0.  1.
        -12    1    3    3    0    0 -0.59309238919E+01  0.26799254818E+02  0.21698039587E+02  0.34988295741E+02  0.00000000000E+00 0.  1.
</event>
<event>
 7    1  0.2941727E-013  0.7246178E+02  0.7816164E-02  0.1226707E+00
        -11   -1    0    0    0    0  0.00000000000E+00  0.00000000000E+00  0.45593999997E+02  0.45594000000E+02  0.51100000000E-03 0.  1.
         11   -1    0    0    0    0 -0.00000000000E+00 -0.00000000000E+00 -0.45593999997E+02  0.45594000000E+02  0.51100000000E-03 0. -1.
    9900012    2    1    2    0    0  0.20643051887E+00  0.15583380618E+02  0.10382048608E+02  0.72461780458E+02  0.70000273777E+02 0.  0.
         12    1    1    2    0    0 -0.20643051887E+00 -0.15583380618E+02 -0.10382048608E+02  0.18726219542E+02  0.00000000000E+00 0. -1.
         11    1    3    3    0    0  0.46940800998E+01  0.33839068842E+02  0.24986287532E+02  0.42325306059E+02  0.51100000000E-03 0.  1.
        -11    1    3    3    0    0  0.61783394141E+01 -0.11770391423E+02 -0.43659754968E+01  0.13991988224E+02  0.51100000000E-03 0. -1.
        -12    1    3    3    0    0 -0.10665988995E+02 -0.64852968015E+01 -0.10238263428E+02  0.16144486175E+02  0.00000000000E+00 0.  1.
</event>
<event>
 7    1  0.2941727E-013  0.7246158E+02  0.7816164E-02  0.1226708E+00
        -11   -1    0    0    0    0  0.00000000000E+00  0.00000000000E+00  0.45593999997E+02  0.45594000000E+02  0.51100000000E-03 0.  1.
         11   -1    0    0    0    0 -0.00000000000E+00 -0.00000000000E+00 -0.45593999997E+02  0.45594000000E+02  0.51100000000E-03 0. -1.
    9900012    2    1    2    0    0 -0.18670108508E+02 -0.88494395896E+00  0.11501347416E+01  0.72461577827E+02  0.70000009812E+02 0.  0.
         12    1    1    2    0    0  0.18670108508E+02  0.88494395896E+00 -0.11501347416E+01  0.18726422173E+02  0.00000000000E+00 0. -1.
         11    1    3    3    0    0  0.63819458278E+01  0.25200023731E+02 -0.97481248008E+01  0.27763219661E+02  0.51100000000E-03 0. -1.
        -11    1    3    3    0    0  0.18393526373E+01 -0.98775028380E+01 -0.28182538346E+01  0.10435077162E+02  0.51100000000E-03 0.  1.
        -12    1    3    3    0    0 -0.26891406973E+02 -0.16207464852E+02  0.13716513377E+02  0.34263281003E+02  0.00000000000E+00 0.  1.
</event>
<event>
 7    1  0.2941727E-013  0.7246154E+02  0.7816164E-02  0.1226708E+00
        -11   -1    0    0    0    0  0.00000000000E+00  0.00000000000E+00  0.45593999997E+02  0.45594000000E+02  0.51100000000E-03 0.  1.
         11   -1    0    0    0    0 -0.00000000000E+00 -0.00000000000E+00 -0.45593999997E+02  0.45594000000E+02  0.51100000000E-03 0. -1.
    9900012    2    1    2    0    0  0.13821422060E+02  0.41836682495E+01  0.11922485140E+02  0.72461536381E+02  0.69999955821E+02 0.  0.
         12    1    1    2    0    0 -0.13821422060E+02 -0.41836682495E+01 -0.11922485140E+02  0.18726463619E+02  0.00000000000E+00 0. -1.
         11    1    3    3    0    0  0.15177715794E+02  0.13941657366E+02  0.16908023482E+02  0.26657346551E+02  0.51100000000E-03 0.  1.
        -11    1    3    3    0    0  0.10065043957E+02  0.12396520682E+02 -0.11926669015E+02  0.19930485918E+02  0.51100000000E-03 0. -1.
         12    1    3    3    0    0 -0.11421337691E+02 -0.22154509799E+02  0.69411306724E+01  0.25873703911E+02  0.00000000000E+00 0. -1.
</event>
<event>
 7    1  0.2941727E-013  0.7246161E+02  0.7816164E-02  0.1226708E+00
        -11   -1    0    0    0    0  0.00000000000E+00  0.00000000000E+00  0.45593999997E+02  0.45594000000E+02  0.51100000000E-03 0.  1.
         11   -1    0    0    0    0 -0.00000000000E+00 -0.00000000000E+00 -0.45593999997E+02  0.45594000000E+02  0.51100000000E-03 0. -1.
    9900012    2    1    2    0    0  0.39499502933E+01 -0.16843855291E+02  0.71665980005E+01  0.72461609657E+02  0.70000051277E+02 0.  0.
         12    1    1    2    0    0 -0.39499502933E+01  0.16843855291E+02 -0.71665980005E+01  0.18726390343E+02  0.00000000000E+00 0. -1.
         11    1    3    3    0    0 -0.92807670210E+00 -0.53110718007E+01 -0.22442360776E+02  0.23080909157E+02  0.51100000000E-03 0. -1.
        -11    1    3    3    0    0  0.12387977469E+00  0.93346501334E+01 -0.34887884230E+01  0.99660766721E+01  0.51100000000E-03 0.  1.
         12    1    3    3    0    0  0.47541472207E+01 -0.20867433624E+02  0.33097747199E+02  0.39414623828E+02  0.00000000000E+00 0. -1.
</event>
<event>
 7    1  0.2941727E-013  0.7246155E+02  0.7816164E-02  0.1226708E+00
        -11   -1    0    0    0    0  0.00000000000E+00  0.00000000000E+00  0.45593999997E+02  0.45594000000E+02  0.51100000000E-03 0. -1.
         11   -1    0    0    0    0 -0.00000000000E+00 -0.00000000000E+00 -0.45593999997E+02  0.45594000000E+02  0.51100000000E-03 0.  1.
    9900012    2    1    2    0    0  0.17754340190E+02  0.58147358460E+01  0.12853121009E+01  0.72461554109E+02  0.69999978915E+02 0.  0.
         12    1    1    2    0    0 -0.17754340190E+02 -0.58147358460E+01 -0.12853121009E+01  0.18726445891E+02  0.00000000000E+00 0. -1.
         11    1    3    3    0    0 -0.20619645304E+01 -0.14009443130E+01  0.26528365642E+01  0.36403138313E+01  0.51100000000E-03 0. -1.
        -11    1    3    3    0    0  0.16419034121E+02 -0.20640100170E+02 -0.21710969483E+02  0.34160863757E+02  0.51100000000E-03 0.  1.
         12    1    3    3    0    0  0.33972705989E+01  0.27855780329E+02  0.20343445020E+02  0.34660376520E+02  0.00000000000E+00 0. -1.
</event>
<event>
 7    1  0.2941727E-013  0.7246150E+02  0.7816164E-02  0.1226708E+00
        -11   -1    0    0    0    0  0.00000000000E+00  0.00000000000E+00  0.45593999997E+02  0.45594000000E+02  0.51100000000E-03 0.  1.
         11   -1    0    0    0    0 -0.00000000000E+00 -0.00000000000E+00 -0.45593999997E+02  0.45594000000E+02  0.51100000000E-03 0. -1.
    9900012    2    1    2    0    0 -0.86877761219E+01 -0.13781450998E+02  0.92344955250E+01  0.72461501311E+02  0.69999910136E+02 0.  0.
         12    1    1    2    0    0  0.86877761219E+01  0.13781450998E+02 -0.92344955250E+01  0.18726498689E+02  0.00000000000E+00 0. -1.
         11    1    3    3    0    0 -0.12973803590E+02  0.11952957423E+02  0.17451338833E+02  0.24814149151E+02  0.51100000000E-03 0. -1.
        -11    1    3    3    0    0 -0.86776658046E+01 -0.29838469523E+02 -0.12344511088E+02  0.33436852447E+02  0.51100000000E-03 0.  1.
         12    1    3    3    0    0  0.12963693272E+02  0.41040611013E+01  0.41276677804E+01  0.14210499713E+02  0.00000000000E+00 0. -1.
</event>
<event>
 7    1  0.2941727E-013  0.7246158E+02  0.7816164E-02  0.1226708E+00
        -11   -1    0    0    0    0  0.00000000000E+00  0.00000000000E+00  0.45593999997E+02  0.45594000000E+02  0.51100000000E-03 0. -1.
         11   -1    0    0    0    0 -0.00000000000E+00 -0.00000000000E+00 -0.45593999997E+02  0.45594000000E+02  0.51100000000E-03 0.  1.
    9900012    2    1    2    0    0 -0.18670554308E+02 -0.24041146298E+00  0.14253224568E+01  0.72461576424E+02  0.70000007985E+02 0.  0.
         12    1    1    2    0    0  0.18670554308E+02  0.24041146298E+00 -0.14253224568E+01  0.18726423576E+02  0.00000000000E+00 0. -1.
         11    1    3    3    0    0 -0.19237637713E+02  0.78356734990E+01  0.81674270784E+01  0.22320200476E+02  0.51100000000E-03 0. -1.
        -11    1    3    3    0    0 -0.17352652629E+02 -0.64295859385E+01 -0.20405309955E+02  0.27546883730E+02  0.51100000000E-03 0.  1.
         12    1    3    3    0    0  0.17919736035E+02 -0.16464990234E+01  0.13663205333E+02  0.22594492218E+02  0.00000000000E+00 0. -1.
</event>
<event>
 7    1  0.2941727E-013  0.7246160E+02  0.7816164E-02  0.1226708E+00
        -11   -1    0    0    0    0  0.00000000000E+00  0.00000000000E+00  0.45593999997E+02  0.45594000000E+02  0.51100000000E-03 0. -1.
         11   -1    0    0    0    0 -0.00000000000E+00 -0.00000000000E+00 -0.45593999997E+02  0.45594000000E+02  0.51100000000E-03 0.  1.
    9900012    2    1    2    0    0 -0.17986085097E+02  0.42159552070E+01  0.30666644356E+01  0.72461602424E+02  0.70000041854E+02 0.  0.
         12    1    1    2    0    0  0.17986085097E+02 -0.42159552070E+01 -0.30666644356E+01  0.18726397576E+02  0.00000000000E+00 0. -1.
         11    1    3    3    0    0 -0.14084836591E+02  0.97931200314E+01 -0.93816976812E+01  0.19552597612E+02  0.51100000000E-03 0. -1.
        -11    1    3    3    0    0 -0.26657927068E+02 -0.22904749598E+01 -0.13703862116E-01  0.26756149558E+02  0.51100000000E-03 0.  1.
         12    1    3    3    0    0  0.22756678562E+02 -0.32866898646E+01  0.12462065979E+02  0.26152855253E+02  0.00000000000E+00 0. -1.
</event>
<event>
 7    1  0.2941727E-013  0.7246155E+02  0.7816164E-02  0.1226708E+00
        -11   -1    0    0    0    0  0.00000000000E+00  0.00000000000E+00  0.45593999997E+02  0.45594000000E+02  0.51100000000E-03 0. -1.
         11   -1    0    0    0    0 -0.00000000000E+00 -0.00000000000E+00 -0.45593999997E+02  0.45594000000E+02  0.51100000000E-03 0.  1.
    9900012    2    1    2    0    0 -0.13306316041E+02  0.11845174969E+02  0.57717907922E+01  0.72461553845E+02  0.69999978572E+02 0.  0.
         12    1    1    2    0    0  0.13306316041E+02 -0.11845174969E+02 -0.57717907922E+01  0.18726446155E+02  0.00000000000E+00 0. -1.
         11    1    3    3    0    0  0.17506355556E+02  0.94247322128E+01  0.11602847819E+02  0.23020081231E+02  0.51100000000E-03 0. -1.
        -11    1    3    3    0    0 -0.23812022669E+01  0.12924940631E+02  0.87680619396E+01  0.15798833026E+02  0.51100000000E-03 0.  1.
        -12    1    3    3    0    0 -0.28431469330E+02 -0.10504497875E+02 -0.14599118966E+02  0.33642639588E+02  0.00000000000E+00 0.  1.
</event>
<event>
 7    1  0.2941727E-013  0.7246156E+02  0.7816164E-02  0.1226708E+00
        -11   -1    0    0    0    0  0.00000000000E+00  0.00000000000E+00  0.45593999997E+02  0.45594000000E+02  0.51100000000E-03 0. -1.
         11   -1    0    0    0    0 -0.00000000000E+00 -0.00000000000E+00 -0.45593999997E+02  0.45594000000E+02  0.51100000000E-03 0.  1.
    9900012    2    1    2    0    0  0.84789482003E+01 -0.68073616403E+01 -0.15246211951E+02  0.72461555758E+02  0.69999981064E+02 0.  0.
         12    1    1    2    0    0 -0.84789482003E+01  0.68073616403E+01  0.15246211951E+02  0.18726444242E+02  0.00000000000E+00 0. -1.
         11    1    3    3    0    0 -0.23869207344E+01 -0.16044960901E+01  0.20838349174E+01  0.35516427916E+01  0.51100000000E-03 0. -1.
        -11    1    3    3    0    0 -0.27465237730E+02  0.12929923446E+01 -0.38620108845E+01  0.27765558541E+02  0.51100000000E-03 0.  1.
         12    1    3    3    0    0  0.38331106664E+02 -0.64958578948E+01 -0.13468035984E+02  0.41144354426E+02  0.00000000000E+00 0. -1.
</event>
<event>
 7    1  0.2941727E-013  0.7246156E+02  0.7816164E-02  0.1226708E+00
        -11   -1    0    0    0    0  0.00000000000E+00  0.00000000000E+00  0.45593999997E+02  0.45594000000E+02  0.51100000000E-03 0.  1.
         11   -1    0    0    0    0 -0.00000000000E+00 -0.00000000000E+00 -0.45593999997E+02  0.45594000000E+02  0.51100000000E-03 0. -1.
    9900012    2    1    2    0    0  0.32844069580E+01  0.58200393392E+01  0.17493411022E+02  0.72461558369E+02  0.69999984465E+02 0.  0.
         12    1    1    2    0    0 -0.32844069580E+01 -0.58200393392E+01 -0.17493411022E+02  0.18726441631E+02  0.00000000000E+00 0. -1.
         11    1    3    3    0    0 -0.83343634397E+01 -0.15211806271E+02  0.68871486264E+01  0.18662622550E+02  0.51100000000E-03 0. -1.
        -11    1    3    3    0    0  0.29759113770E+02  0.12962020742E+02  0.98859100828E+01  0.33931549515E+02  0.51100000000E-03 0.  1.
         12    1    3    3    0    0 -0.18140343372E+02  0.80698248688E+01  0.72035231261E+00  0.19867386304E+02  0.00000000000E+00 0. -1.
</event>
<event>
 7    1  0.2941727E-013  0.7246157E+02  0.7816164E-02  0.1226708E+00
        -11   -1    0    0    0    0  0.00000000000E+00  0.00000000000E+00  0.45593999997E+02  0.45594000000E+02  0.51100000000E-03 0.  1.
         11   -1    0    0    0    0 -0.00000000000E+00 -0.00000000000E+00 -0.45593999997E+02  0.45594000000E+02  0.51100000000E-03 0. -1.
    9900012    2    1    2    0    0  0.72425468194E+01 -0.15794491285E+02 -0.69827476635E+01  0.72461569366E+02  0.69999998790E+02 0.  0.
         12    1    1    2    0    0 -0.72425468194E+01  0.15794491285E+02  0.69827476635E+01  0.18726430634E+02  0.00000000000E+00 0. -1.
         11    1    3    3    0    0  0.57290366578E+00 -0.11274740079E+02  0.21921136910E+01  0.11500145441E+02  0.51100000000E-03 0. -1.
        -11    1    3    3    0    0 -0.31372161291E+01 -0.31446628122E+02 -0.43414680770E+01  0.31899543737E+02  0.51100000000E-03 0.  1.
         12    1    3    3    0    0  0.98068592826E+01  0.26926876917E+02 -0.48333932775E+01  0.29061880188E+02  0.00000000000E+00 0. -1.
</event>
<event>
 7    1  0.2941727E-013  0.7246148E+02  0.7816164E-02  0.1226708E+00
        -11   -1    0    0    0    0  0.00000000000E+00  0.00000000000E+00  0.45593999997E+02  0.45594000000E+02  0.51100000000E-03 0.  1.
         11   -1    0    0    0    0 -0.00000000000E+00 -0.00000000000E+00 -0.45593999997E+02  0.45594000000E+02  0.51100000000E-03 0. -1.
    9900012    2    1    2    0    0  0.16440465118E+02 -0.55552304977E+01  0.70379742028E+01  0.72461479766E+02  0.69999882070E+02 0.  0.
         12    1    1    2    0    0 -0.16440465118E+02  0.55552304977E+01 -0.70379742028E+01  0.18726520234E+02  0.00000000000E+00 0. -1.
         11    1    3    3    0    0 -0.19122259332E+01  0.51922116285E+00 -0.61674492379E+01  0.64779340070E+01  0.51100000000E-03 0. -1.
        -11    1    3    3    0    0 -0.19640004505E+02 -0.27086436127E+01 -0.90826914339E+01  0.21807379740E+02  0.51100000000E-03 0.  1.
        -12    1    3    3    0    0  0.37992695557E+02 -0.33658080479E+01  0.22288114875E+02  0.44176166019E+02  0.00000000000E+00 0.  1.
</event>
<event>
 7    1  0.2941727E-013  0.7246156E+02  0.7816164E-02  0.1226708E+00
        -11   -1    0    0    0    0  0.00000000000E+00  0.00000000000E+00  0.45593999997E+02  0.45594000000E+02  0.51100000000E-03 0.  1.
         11   -1    0    0    0    0 -0.00000000000E+00 -0.00000000000E+00 -0.45593999997E+02  0.45594000000E+02  0.51100000000E-03 0. -1.
    9900012    2    1    2    0    0 -0.51694735424E+01  0.17428078536E+02  0.44964467104E+01  0.72461563842E+02  0.69999991594E+02 0.  0.
         12    1    1    2    0    0  0.51694735424E+01 -0.17428078536E+02 -0.44964467104E+01  0.18726436158E+02  0.00000000000E+00 0. -1.
         11    1    3    3    0    0 -0.31086672024E+01 -0.11549183032E+02  0.22191726255E+02  0.25209525084E+02  0.51100000000E-03 0. -1.
        -11    1    3    3    0    0 -0.12491843073E+02  0.94679641844E+01  0.40943259711E+01  0.16200370199E+02  0.51100000000E-03 0.  1.
         12    1    3    3    0    0  0.10431036733E+02  0.19509297384E+02 -0.21789605516E+02  0.31051668559E+02  0.00000000000E+00 0. -1.
</event>
<event>
 7    1  0.2941727E-013  0.7246155E+02  0.7816164E-02  0.1226708E+00
        -11   -1    0    0    0    0  0.00000000000E+00  0.00000000000E+00  0.45593999997E+02  0.45594000000E+02  0.51100000000E-03 0.  1.
         11   -1    0    0    0    0 -0.00000000000E+00 -0.00000000000E+00 -0.45593999997E+02  0.45594000000E+02  0.51100000000E-03 0. -1.
    9900012    2    1    2    0    0  0.68895776966E+01  0.17101707695E+02  0.32780002827E+01  0.72461548847E+02  0.69999972061E+02 0.  0.
         12    1    1    2    0    0 -0.68895776966E+01 -0.17101707695E+02 -0.32780002827E+01  0.18726451153E+02  0.00000000000E+00 0. -1.
         11    1    3    3    0    0 -0.60091740054E+01  0.34864377894E+01 -0.30968928331E+02  0.31738619109E+02  0.51100000000E-03 0.  1.
        -11    1    3    3    0    0  0.10860794080E+02  0.79611713236E+01  0.13284792993E+02  0.18916205275E+02  0.51100000000E-03 0. -1.
        -12    1    3    3    0    0  0.20379576224E+01  0.56540985820E+01  0.20962135621E+02  0.21806724464E+02  0.00000000000E+00 0.  1.
</event>
<event>
 7    1  0.2941727E-013  0.7246160E+02  0.7816164E-02  0.1226708E+00
        -11   -1    0    0    0    0  0.00000000000E+00  0.00000000000E+00  0.45593999997E+02  0.45594000000E+02  0.51100000000E-03 0. -1.
         11   -1    0    0    0    0 -0.00000000000E+00 -0.00000000000E+00 -0.45593999997E+02  0.45594000000E+02  0.51100000000E-03 0.  1.
    9900012    2    1    2    0    0  0.31881824455E+01  0.18167358996E+02  0.32342997198E+01  0.72461597920E+02  0.70000035987E+02 0.  0.
         12    1    1    2    0    0 -0.31881824455E+01 -0.18167358996E+02 -0.32342997198E+01  0.18726402080E+02  0.00000000000E+00 0. -1.
         11    1    3    3    0    0 -0.17586575447E+02  0.91404264547E+01  0.15078242450E+02  0.24903582621E+02  0.51100000000E-03 0. -1.
        -11    1    3    3    0    0  0.23726525500E+02  0.86354076338E+01  0.87709737912E+01  0.26729164948E+02  0.51100000000E-03 0.  1.
        -12    1    3    3    0    0 -0.29517676079E+01  0.39152490738E+00 -0.20614916521E+02  0.20828850351E+02  0.00000000000E+00 0.  1.
</event>
<event>
 7    1  0.2941727E-013  0.7246158E+02  0.7816164E-02  0.1226708E+00
        -11   -1    0    0    0    0  0.00000000000E+00  0.00000000000E+00  0.45593999997E+02  0.45594000000E+02  0.51100000000E-03 0.  1.
         11   -1    0    0    0    0 -0.00000000000E+00 -0.00000000000E+00 -0.45593999997E+02  0.45594000000E+02  0.51100000000E-03 0. -1.
    9900012    2    1    2    0    0 -0.96833851528E+01 -0.99458944472E+01  0.12569407286E+02  0.72461581125E+02  0.70000014109E+02 0.  0.
         12    1    1    2    0    0  0.96833851528E+01  0.99458944472E+01 -0.12569407286E+02  0.18726418875E+02  0.00000000000E+00 0. -1.
         11    1    3    3    0    0 -0.15913837594E+01  0.15681906355E+02 -0.14641185327E+02  0.21513228425E+02  0.51100000000E-03 0. -1.
        -11    1    3    3    0    0  0.73279877382E+01  0.42206740270E+01  0.10328956051E+02  0.13349188248E+02  0.51100000000E-03 0.  1.
         12    1    3    3    0    0 -0.15419989132E+02 -0.29848474829E+02  0.16881636562E+02  0.37599164452E+02  0.00000000000E+00 0. -1.
</event>
<event>
 7    1  0.2941727E-013  0.7246156E+02  0.7816164E-02  0.1226708E+00
        -11   -1    0    0    0    0  0.00000000000E+00  0.00000000000E+00  0.45593999997E+02  0.45594000000E+02  0.51100000000E-03 0.  1.
         11   -1    0    0    0    0 -0.00000000000E+00 -0.00000000000E+00 -0.45593999997E+02  0.45594000000E+02  0.51100000000E-03 0. -1.
    9900012    2    1    2    0    0 -0.14847075942E+02 -0.10197705872E+02  0.51235360958E+01  0.72461561706E+02  0.69999988811E+02 0.  0.
         12    1    1    2    0    0  0.14847075942E+02  0.10197705872E+02 -0.51235360958E+01  0.18726438294E+02  0.00000000000E+00 0. -1.
         11    1    3    3    0    0 -0.30429840759E+02  0.17621387648E+02  0.71357085548E+01  0.35880452172E+02  0.51100000000E-03 0. -1.
        -11    1    3    3    0    0  0.48490579648E+01 -0.35270501455E+00  0.42230770831E+01  0.64398869776E+01  0.51100000000E-03 0.  1.
        -12    1    3    3    0    0  0.10733706852E+02 -0.27466388505E+02 -0.62352495421E+01  0.30141222556E+02  0.00000000000E+00 0.  1.
</event>
<event>
 7    1  0.2941727E-013  0.7246158E+02  0.7816164E-02  0.1226708E+00
        -11   -1    0    0    0    0  0.00000000000E+00  0.00000000000E+00  0.45593999997E+02  0.45594000000E+02  0.51100000000E-03 0.  1.
         11   -1    0    0    0    0 -0.00000000000E+00 -0.00000000000E+00 -0.45593999997E+02  0.45594000000E+02  0.51100000000E-03 0. -1.
    9900012    2    1    2    0    0  0.66175212902E+01 -0.52981263319E+01  0.16697814387E+02  0.72461581871E+02  0.70000015080E+02 0.  0.
         12    1    1    2    0    0 -0.66175212902E+01  0.52981263319E+01 -0.16697814387E+02  0.18726418129E+02  0.00000000000E+00 0. -1.
         11    1    3    3    0    0  0.18465293547E+02  0.65892300354E+01 -0.74317100698E+01  0.20967005820E+02  0.51100000000E-03 0. -1.
        -11    1    3    3    0    0  0.10708273193E+01  0.49992602475E+01  0.29193996107E+02  0.29638297575E+02  0.51100000000E-03 0.  1.
        -12    1    3    3    0    0 -0.12918599576E+02 -0.16886616615E+02 -0.50644716502E+01  0.21856278476E+02  0.00000000000E+00 0.  1.
</event>
<event>
 7    1  0.2941727E-013  0.7246157E+02  0.7816164E-02  0.1226708E+00
        -11   -1    0    0    0    0  0.00000000000E+00  0.00000000000E+00  0.45593999997E+02  0.45594000000E+02  0.51100000000E-03 0.  1.
         11   -1    0    0    0    0 -0.00000000000E+00 -0.00000000000E+00 -0.45593999997E+02  0.45594000000E+02  0.51100000000E-03 0. -1.
    9900012    2    1    2    0    0  0.26424858531E+01  0.16962741286E+02  0.74807536435E+01  0.72461574861E+02  0.70000005949E+02 0.  0.
         12    1    1    2    0    0 -0.26424858531E+01 -0.16962741286E+02 -0.74807536435E+01  0.18726425139E+02  0.00000000000E+00 0. -1.
         11    1    3    3    0    0  0.21829105101E+02 -0.12740926493E+02 -0.76145133673E+01  0.26397383421E+02  0.51100000000E-03 0. -1.
        -11    1    3    3    0    0  0.52351721030E+00 -0.39243045857E+01  0.37863808367E+01  0.54782220521E+01  0.51100000000E-03 0.  1.
        -12    1    3    3    0    0 -0.19710136458E+02  0.33627972365E+02  0.11308886174E+02  0.40585969387E+02  0.00000000000E+00 0.  1.
</event>
<event>
 7    1  0.2941727E-013  0.7246157E+02  0.7816164E-02  0.1226708E+00
        -11   -1    0    0    0    0  0.00000000000E+00  0.00000000000E+00  0.45593999997E+02  0.45594000000E+02  0.51100000000E-03 0. -1.
         11   -1    0    0    0    0 -0.00000000000E+00 -0.00000000000E+00 -0.45593999997E+02  0.45594000000E+02  0.51100000000E-03 0.  1.
    9900012    2    1    2    0    0  0.10482157284E+02 -0.26401580400E+01 -0.15291603327E+02  0.72461569798E+02  0.69999999354E+02 0.  0.
         12    1    1    2    0    0 -0.10482157284E+02  0.26401580400E+01  0.15291603327E+02  0.18726430202E+02  0.00000000000E+00 0. -1.
         11    1    3    3    0    0  0.21986150093E+00 -0.55881064855E+01 -0.16965516393E+02  0.17863482861E+02  0.51100000000E-03 0. -1.
        -11    1    3    3    0    0  0.88833656510E+01 -0.18020760225E+02 -0.17127418006E+02  0.26400955138E+02  0.51100000000E-03 0.  1.
         12    1    3    3    0    0  0.13789301319E+01  0.20968708671E+02  0.18801331072E+02  0.28197131799E+02  0.00000000000E+00 0. -1.
</event>
<event>
 7    1  0.2941727E-013  0.7246157E+02  0.7816164E-02  0.1226708E+00
        -11   -1    0    0    0    0  0.00000000000E+00  0.00000000000E+00  0.45593999997E+02  0.45594000000E+02  0.51100000000E-03 0.  1.
         11   -1    0    0    0    0 -0.00000000000E+00 -0.00000000000E+00 -0.45593999997E+02  0.45594000000E+02  0.51100000000E-03 0. -1.
    9900012    2    1    2    0    0 -0.16340878819E+01 -0.56735030142E+01  0.17771336724E+02  0.72461567114E+02  0.69999995857E+02 0.  0.
         12    1    1    2    0    0  0.16340878819E+01  0.56735030142E+01 -0.17771336724E+02  0.18726432886E+02  0.00000000000E+00 0. -1.
         11    1    3    3    0    0  0.12297046991E+02 -0.20226357579E+02  0.85161643125E+01  0.25156469555E+02  0.51100000000E-03 0.  1.
        -11    1    3    3    0    0 -0.90039437051E+01 -0.40460862705E+01 -0.13995064030E+02  0.17126109710E+02  0.51100000000E-03 0. -1.
        -12    1    3    3    0    0 -0.49271911682E+01  0.18598940835E+02  0.23250236441E+02  0.30178987849E+02  0.00000000000E+00 0.  1.
</event>
<event>
 7    1  0.2941727E-013  0.7246156E+02  0.7816164E-02  0.1226708E+00
        -11   -1    0    0    0    0  0.00000000000E+00  0.00000000000E+00  0.45593999997E+02  0.45594000000E+02  0.51100000000E-03 0.  1.
         11   -1    0    0    0    0 -0.00000000000E+00 -0.00000000000E+00 -0.45593999997E+02  0.45594000000E+02  0.51100000000E-03 0. -1.
    9900012    2    1    2    0    0 -0.97537261378E+01  0.23206932867E+01  0.15816403388E+02  0.72461563953E+02  0.69999991739E+02 0.  0.
         12    1    1    2    0    0  0.97537261378E+01 -0.23206932867E+01 -0.15816403388E+02  0.18726436047E+02  0.00000000000E+00 0. -1.
         11    1    3    3    0    0 -0.23185954215E+02 -0.66656859931E+01  0.71823053382E+01  0.25171518684E+02  0.51100000000E-03 0. -1.
        -11    1    3    3    0    0 -0.91327209439E+01  0.14093832199E+02  0.15811922607E+02  0.23066417031E+02  0.51100000000E-03 0.  1.
        -12    1    3    3    0    0  0.22564949021E+02 -0.51074529188E+01 -0.71778245569E+01  0.24223628238E+02  0.00000000000E+00 0.  1.
</event>
<event>
 7    1  0.2941727E-013  0.7246155E+02  0.7816164E-02  0.1226708E+00
        -11   -1    0    0    0    0  0.00000000000E+00  0.00000000000E+00  0.45593999997E+02  0.45594000000E+02  0.51100000000E-03 0. -1.
         11   -1    0    0    0    0 -0.00000000000E+00 -0.00000000000E+00 -0.45593999997E+02  0.45594000000E+02  0.51100000000E-03 0.  1.
    9900012    2    1    2    0    0 -0.10378752549E+02  0.10410461105E+02 -0.11601025093E+02  0.72461548438E+02  0.69999971528E+02 0.  0.
         12    1    1    2    0    0  0.10378752549E+02 -0.10410461105E+02  0.11601025093E+02  0.18726451562E+02  0.00000000000E+00 0. -1.
         11    1    3    3    0    0  0.14523857468E+02 -0.65324059517E+01 -0.30993028594E+01  0.16224069827E+02  0.51100000000E-03 0. -1.
        -11    1    3    3    0    0 -0.66301926398E+01 -0.16306318990E+02 -0.37972421002E+01  0.18007624531E+02  0.51100000000E-03 0.  1.
        -12    1    3    3    0    0 -0.18272417378E+02  0.33249186046E+02 -0.47044801338E+01  0.38229854079E+02  0.00000000000E+00 0.  1.
</event>
<event>
 7    1  0.2941727E-013  0.7246154E+02  0.7816164E-02  0.1226708E+00
        -11   -1    0    0    0    0  0.00000000000E+00  0.00000000000E+00  0.45593999997E+02  0.45594000000E+02  0.51100000000E-03 0.  1.
         11   -1    0    0    0    0 -0.00000000000E+00 -0.00000000000E+00 -0.45593999997E+02  0.45594000000E+02  0.51100000000E-03 0. -1.
    9900012    2    1    2    0    0 -0.98678067397E+01 -0.10885755849E+02  0.11610640292E+02  0.72461541226E+02  0.69999962133E+02 0.  0.
         12    1    1    2    0    0  0.98678067397E+01  0.10885755849E+02 -0.11610640292E+02  0.18726458774E+02  0.00000000000E+00 0. -1.
         11    1    3    3    0    0 -0.16031651434E+02 -0.16236602838E+01  0.23567752643E+02  0.28549765066E+02  0.51100000000E-03 0. -1.
        -11    1    3    3    0    0 -0.74742716923E+01 -0.25184845357E+01  0.12693366157E+02  0.14944197748E+02  0.51100000000E-03 0.  1.
         12    1    3    3    0    0  0.13638116387E+02 -0.67436110290E+01 -0.24650478509E+02  0.28967578411E+02  0.00000000000E+00 0. -1.
</event>
<event>
 7    1  0.2941727E-013  0.7246153E+02  0.7816164E-02  0.1226708E+00
        -11   -1    0    0    0    0  0.00000000000E+00  0.00000000000E+00  0.45593999997E+02  0.45594000000E+02  0.51100000000E-03 0.  1.
         11   -1    0    0    0    0 -0.00000000000E+00 -0.00000000000E+00 -0.45593999997E+02  0.45594000000E+02  0.51100000000E-03 0. -1.
    9900012    2    1    2    0    0 -0.99189070213E+01 -0.25780127388E+01  0.15673214592E+02  0.72461534188E+02  0.69999952965E+02 0.  0.
         12    1    1    2    0    0  0.99189070213E+01  0.25780127388E+01 -0.15673214592E+02  0.18726465812E+02  0.00000000000E+00 0. -1.
         11    1    3    3    0    0 -0.84645542249E+01 -0.11351703016E+02  0.37151801137E+01  0.14639412663E+02  0.51100000000E-03 0. -1.
        -11    1    3    3    0    0 -0.19113666158E+02  0.19585295247E+00  0.27005934763E+02  0.33086116500E+02  0.51100000000E-03 0.  1.
         12    1    3    3    0    0  0.17659313362E+02  0.85778373243E+01 -0.15047900285E+02  0.24736005024E+02  0.00000000000E+00 0. -1.
</event>
<event>
 7    1  0.2941727E-013  0.7246170E+02  0.7816164E-02  0.1226708E+00
        -11   -1    0    0    0    0  0.00000000000E+00  0.00000000000E+00  0.45593999997E+02  0.45594000000E+02  0.51100000000E-03 0.  1.
         11   -1    0    0    0    0 -0.00000000000E+00 -0.00000000000E+00 -0.45593999997E+02  0.45594000000E+02  0.51100000000E-03 0. -1.
    9900012    2    1    2    0    0  0.93335322618E+01 -0.15704869886E+02 -0.41129533677E+01  0.72461704370E+02  0.70000174658E+02 0.  0.
         12    1    1    2    0    0 -0.93335322618E+01  0.15704869886E+02  0.41129533677E+01  0.18726295630E+02  0.00000000000E+00 0. -1.
         11    1    3    3    0    0 -0.14728226788E+02 -0.16024789551E+02 -0.12770812803E+02  0.25235059033E+02  0.51100000000E-03 0. -1.
        -11    1    3    3    0    0 -0.79022889543E+01 -0.18281655422E+01 -0.77629123619E+01  0.11227251158E+02  0.51100000000E-03 0.  1.
        -12    1    3    3    0    0  0.31964048004E+02  0.21480852073E+01  0.16420771797E+02  0.35999394179E+02  0.00000000000E+00 0.  1.
</event>
<event>
 7    1  0.2941727E-013  0.7246158E+02  0.7816164E-02  0.1226708E+00
        -11   -1    0    0    0    0  0.00000000000E+00  0.00000000000E+00  0.45593999997E+02  0.45594000000E+02  0.51100000000E-03 0. -1.
         11   -1    0    0    0    0 -0.00000000000E+00 -0.00000000000E+00 -0.45593999997E+02  0.45594000000E+02  0.51100000000E-03 0.  1.
    9900012    2    1    2    0    0 -0.12658196375E+02 -0.13552851912E+02 -0.26017695514E+01  0.72461576550E+02  0.70000008150E+02 0.  0.
         12    1    1    2    0    0  0.12658196375E+02  0.13552851912E+02  0.26017695514E+01  0.18726423450E+02  0.00000000000E+00 0. -1.
         11    1    3    3    0    0  0.39021129184E+01  0.17505818337E+02  0.11124381573E+02  0.21105260636E+02  0.51100000000E-03 0. -1.
        -11    1    3    3    0    0  0.17927205800E+01  0.68739419915E+01 -0.38303140199E+01  0.80707020347E+01  0.51100000000E-03 0.  1.
        -12    1    3    3    0    0 -0.18353029874E+02 -0.37932612240E+02 -0.98958371047E+01  0.43285613879E+02  0.00000000000E+00 0.  1.
</event>
<event>
 7    1  0.2941727E-013  0.7246161E+02  0.7816164E-02  0.1226708E+00
        -11   -1    0    0    0    0  0.00000000000E+00  0.00000000000E+00  0.45593999997E+02  0.45594000000E+02  0.51100000000E-03 0.  1.
         11   -1    0    0    0    0 -0.00000000000E+00 -0.00000000000E+00 -0.45593999997E+02  0.45594000000E+02  0.51100000000E-03 0. -1.
    9900012    2    1    2    0    0  0.12080053664E+02 -0.14021845287E+02 -0.28526935900E+01  0.72461609464E+02  0.70000051026E+02 0.  0.
         12    1    1    2    0    0 -0.12080053664E+02  0.14021845287E+02  0.28526935900E+01  0.18726390536E+02  0.00000000000E+00 0. -1.
         11    1    3    3    0    0  0.17385937690E+02  0.17529141616E+02  0.47925018829E+01  0.25149745719E+02  0.51100000000E-03 0. -1.
        -11    1    3    3    0    0  0.11324178931E+02 -0.18764533248E+02  0.54478899375E+01  0.22583716291E+02  0.51100000000E-03 0.  1.
         12    1    3    3    0    0 -0.16630062956E+02 -0.12786453655E+02 -0.13093085410E+02  0.24728147455E+02  0.00000000000E+00 0. -1.
</event>
<event>
 7    1  0.2941727E-013  0.7246118E+02  0.7816164E-02  0.1226709E+00
        -11   -1    0    0    0    0  0.00000000000E+00  0.00000000000E+00  0.45593999997E+02  0.45594000000E+02  0.51100000000E-03 0.  1.
         11   -1    0    0    0    0 -0.00000000000E+00 -0.00000000000E+00 -0.45593999997E+02  0.45594000000E+02  0.51100000000E-03 0. -1.
    9900012    2    1    2    0    0  0.51223541057E+01 -0.43238437499E+01  0.17485986747E+02  0.72461177822E+02  0.69999488730E+02 0.  0.
         12    1    1    2    0    0 -0.51223541057E+01  0.43238437499E+01 -0.17485986747E+02  0.18726822178E+02  0.00000000000E+00 0. -1.
         11    1    3    3    0    0 -0.36757320180E+01  0.39102773836E+01  0.12367369124E+02  0.13481583527E+02  0.51100000000E-03 0. -1.
        -11    1    3    3    0    0 -0.10530203643E+02  0.19985487231E+01  0.26382406912E+02  0.28476495229E+02  0.51100000000E-03 0.  1.
         12    1    3    3    0    0  0.19328289767E+02 -0.10232669857E+02 -0.21263789289E+02  0.30503099066E+02  0.00000000000E+00 0. -1.
</event>
<event>
 7    1  0.2941727E-013  0.7246151E+02  0.7816164E-02  0.1226708E+00
        -11   -1    0    0    0    0  0.00000000000E+00  0.00000000000E+00  0.45593999997E+02  0.45594000000E+02  0.51100000000E-03 0. -1.
         11   -1    0    0    0    0 -0.00000000000E+00 -0.00000000000E+00 -0.45593999997E+02  0.45594000000E+02  0.51100000000E-03 0.  1.
    9900012    2    1    2    0    0 -0.16742544754E+02  0.74105339424E+01 -0.39309626988E+01  0.72461513787E+02  0.69999926388E+02 0.  0.
         12    1    1    2    0    0  0.16742544754E+02 -0.74105339424E+01  0.39309626988E+01  0.18726486213E+02  0.00000000000E+00 0. -1.
         11    1    3    3    0    0 -0.10912431073E+02  0.16313241114E+02  0.26103072346E+01  0.19799411397E+02  0.51100000000E-03 0. -1.
        -11    1    3    3    0    0 -0.16892375902E+02  0.35877948385E+00  0.17688997945E+02  0.24461842427E+02  0.51100000000E-03 0.  1.
        -12    1    3    3    0    0  0.11062262221E+02 -0.92614866552E+01 -0.24230267879E+02  0.28200259963E+02  0.00000000000E+00 0.  1.
</event>
<event>
 7    1  0.2941727E-013  0.7246154E+02  0.7816164E-02  0.1226708E+00
        -11   -1    0    0    0    0  0.00000000000E+00  0.00000000000E+00  0.45593999997E+02  0.45594000000E+02  0.51100000000E-03 0. -1.
         11   -1    0    0    0    0 -0.00000000000E+00 -0.00000000000E+00 -0.45593999997E+02  0.45594000000E+02  0.51100000000E-03 0.  1.
    9900012    2    1    2    0    0 -0.15754472654E+02 -0.92692433374E+01 -0.40691460148E+01  0.72461541981E+02  0.69999963116E+02 0.  0.
         12    1    1    2    0    0  0.15754472654E+02  0.92692433374E+01  0.40691460148E+01  0.18726458019E+02  0.00000000000E+00 0. -1.
         11    1    3    3    0    0  0.41589726560E+01  0.38558076872E+01  0.12234412885E+02  0.13484997789E+02  0.51100000000E-03 0. -1.
        -11    1    3    3    0    0 -0.22919656817E+02  0.48723812498E+01  0.11199735890E+02  0.25970846192E+02  0.51100000000E-03 0.  1.
         12    1    3    3    0    0  0.30062115066E+01 -0.17997432274E+02 -0.27503294791E+02  0.33005697999E+02  0.00000000000E+00 0. -1.
</event>
<event>
 7    1  0.2941727E-013  0.7246158E+02  0.7816164E-02  0.1226708E+00
        -11   -1    0    0    0    0  0.00000000000E+00  0.00000000000E+00  0.45593999997E+02  0.45594000000E+02  0.51100000000E-03 0.  1.
         11   -1    0    0    0    0 -0.00000000000E+00 -0.00000000000E+00 -0.45593999997E+02  0.45594000000E+02  0.51100000000E-03 0. -1.
    9900012    2    1    2    0    0 -0.18138859840E+02  0.11377249430E+01 -0.45129023811E+01  0.72461576363E+02  0.70000007905E+02 0.  0.
         12    1    1    2    0    0  0.18138859840E+02 -0.11377249430E+01  0.45129023811E+01  0.18726423637E+02  0.00000000000E+00 0. -1.
         11    1    3    3    0    0 -0.10704849401E+02  0.28227695743E+02  0.48712382916E+01  0.30579822930E+02  0.51100000000E-03 0.  1.
        -11    1    3    3    0    0 -0.30308071104E+01 -0.30743552050E+01 -0.16010731182E+02  0.16582550012E+02  0.51100000000E-03 0. -1.
        -12    1    3    3    0    0 -0.44032033285E+01 -0.24015615595E+02  0.66265905093E+01  0.25299203421E+02  0.00000000000E+00 0.  1.
</event>
<event>
 7    1  0.2941727E-013  0.7246157E+02  0.7816164E-02  0.1226708E+00
        -11   -1    0    0    0    0  0.00000000000E+00  0.00000000000E+00  0.45593999997E+02  0.45594000000E+02  0.51100000000E-03 0.  1.
         11   -1    0    0    0    0 -0.00000000000E+00 -0.00000000000E+00 -0.45593999997E+02  0.45594000000E+02  0.51100000000E-03 0. -1.
    9900012    2    1    2    0    0 -0.36329359300E+01 -0.21862842170E+01  0.18240101412E+02  0.72461565164E+02  0.69999993316E+02 0.  0.
         12    1    1    2    0    0  0.36329359300E+01  0.21862842170E+01 -0.18240101412E+02  0.18726434836E+02  0.00000000000E+00 0. -1.
         11    1    3    3    0    0  0.13210775555E+02  0.25349294322E+02 -0.37442251362E+00  0.28587611056E+02  0.51100000000E-03 0. -1.
        -11    1    3    3    0    0  0.47848361155E+01 -0.93857911000E+01  0.95509414173E+01  0.14219993440E+02  0.51100000000E-03 0.  1.
        -12    1    3    3    0    0 -0.21628547601E+02 -0.18149787439E+02  0.90635825085E+01  0.29653960668E+02  0.00000000000E+00 0.  1.
</event>
<event>
 7    1  0.2941727E-013  0.7246161E+02  0.7816164E-02  0.1226708E+00
        -11   -1    0    0    0    0  0.00000000000E+00  0.00000000000E+00  0.45593999997E+02  0.45594000000E+02  0.51100000000E-03 0. -1.
         11   -1    0    0    0    0 -0.00000000000E+00 -0.00000000000E+00 -0.45593999997E+02  0.45594000000E+02  0.51100000000E-03 0.  1.
    9900012    2    1    2    0    0 -0.15850750912E+02  0.47382002237E+00 -0.99602647473E+01  0.72461609966E+02  0.70000051679E+02 0.  0.
         12    1    1    2    0    0  0.15850750912E+02 -0.47382002237E+00  0.99602647473E+01  0.18726390034E+02  0.00000000000E+00 0. -1.
         11    1    3    3    0    0  0.85211981748E+01  0.10233117309E+02  0.20972877580E+01  0.13480583236E+02  0.51100000000E-03 0. -1.
        -11    1    3    3    0    0 -0.91125181386E+01  0.20888677778E+02 -0.93640099900E+01  0.24638578074E+02  0.51100000000E-03 0.  1.
         12    1    3    3    0    0 -0.15259430948E+02 -0.30647975064E+02 -0.26935425153E+01  0.34342448656E+02  0.00000000000E+00 0. -1.
</event>
<event>
 7    1  0.2941727E-013  0.7246153E+02  0.7816164E-02  0.1226708E+00
        -11   -1    0    0    0    0  0.00000000000E+00  0.00000000000E+00  0.45593999997E+02  0.45594000000E+02  0.51100000000E-03 0.  1.
         11   -1    0    0    0    0 -0.00000000000E+00 -0.00000000000E+00 -0.45593999997E+02  0.45594000000E+02  0.51100000000E-03 0. -1.
    9900012    2    1    2    0    0  0.18298962455E+02  0.24834431212E+01 -0.31082299704E+01  0.72461531828E+02  0.69999949890E+02 0.  0.
         12    1    1    2    0    0 -0.18298962455E+02 -0.24834431212E+01  0.31082299704E+01  0.18726468172E+02  0.00000000000E+00 0. -1.
         11    1    3    3    0    0  0.35306182306E+02 -0.12239270983E+01  0.90385084264E+01  0.36465314223E+02  0.51100000000E-03 0. -1.
        -11    1    3    3    0    0  0.53168360247E+01 -0.24245311514E+01  0.45886489874E+01  0.74298584380E+01  0.51100000000E-03 0.  1.
         12    1    3    3    0    0 -0.22324055876E+02  0.61319013709E+01 -0.16735387384E+02  0.28566359167E+02  0.00000000000E+00 0. -1.
</event>
<event>
 7    1  0.2941727E-013  0.7246151E+02  0.7816164E-02  0.1226708E+00
        -11   -1    0    0    0    0  0.00000000000E+00  0.00000000000E+00  0.45593999997E+02  0.45594000000E+02  0.51100000000E-03 0. -1.
         11   -1    0    0    0    0 -0.00000000000E+00 -0.00000000000E+00 -0.45593999997E+02  0.45594000000E+02  0.51100000000E-03 0.  1.
    9900012    2    1    2    0    0 -0.17282425849E+02 -0.63529665891E+01  0.34116087026E+01  0.72461508026E+02  0.69999918884E+02 0.  0.
         12    1    1    2    0    0  0.17282425849E+02  0.63529665891E+01 -0.34116087026E+01  0.18726491974E+02  0.00000000000E+00 0. -1.
         11    1    3    3    0    0  0.13892311550E+01  0.21517315499E+02 -0.10256663600E+02  0.23877269064E+02  0.51100000000E-03 0. -1.
        -11    1    3    3    0    0  0.71457454561E+00 -0.33645271239E+01 -0.92270285977E+01  0.98472694973E+01  0.51100000000E-03 0.  1.
         12    1    3    3    0    0 -0.19386231549E+02 -0.24505754964E+02  0.22895300900E+02  0.38736969465E+02  0.00000000000E+00 0. -1.
</event>
<event>
 7    1  0.2941727E-013  0.7246155E+02  0.7816164E-02  0.1226708E+00
        -11   -1    0    0    0    0  0.00000000000E+00  0.00000000000E+00  0.45593999997E+02  0.45594000000E+02  0.51100000000E-03 0.  1.
         11   -1    0    0    0    0 -0.00000000000E+00 -0.00000000000E+00 -0.45593999997E+02  0.45594000000E+02  0.51100000000E-03 0. -1.
    9900012    2    1    2    0    0 -0.39830341746E+01  0.18243326793E+02  0.14129338529E+01  0.72461550369E+02  0.69999974044E+02 0.  0.
         12    1    1    2    0    0  0.39830341746E+01 -0.18243326793E+02 -0.14129338529E+01  0.18726449631E+02  0.00000000000E+00 0. -1.
         11    1    3    3    0    0  0.41966718080E+01  0.91531992721E+01 -0.38712933295E+01  0.10787957336E+02  0.51100000000E-03 0. -1.
        -11    1    3    3    0    0  0.14284853172E+02  0.23261885996E+02 -0.12173136718E+02  0.29889088779E+02  0.51100000000E-03 0.  1.
         12    1    3    3    0    0 -0.22464559154E+02 -0.14171758475E+02  0.17457363901E+02  0.31784504254E+02  0.00000000000E+00 0. -1.
</event>
<event>
 7    1  0.2941727E-013  0.7246154E+02  0.7816164E-02  0.1226708E+00
        -11   -1    0    0    0    0  0.00000000000E+00  0.00000000000E+00  0.45593999997E+02  0.45594000000E+02  0.51100000000E-03 0.  1.
         11   -1    0    0    0    0 -0.00000000000E+00 -0.00000000000E+00 -0.45593999997E+02  0.45594000000E+02  0.51100000000E-03 0. -1.
    9900012    2    1    2    0    0  0.13922845272E+02 -0.29288487689E+00  0.12519934121E+02  0.72461544051E+02  0.69999965813E+02 0.  0.
         12    1    1    2    0    0 -0.13922845272E+02  0.29288487689E+00 -0.12519934121E+02  0.18726455949E+02  0.00000000000E+00 0. -1.
         11    1    3    3    0    0  0.88101614063E+00  0.23625237953E+02  0.77839096243E+01  0.24890104602E+02  0.51100000000E-03 0. -1.
        -11    1    3    3    0    0  0.82371224450E+01  0.48358746227E+00  0.17697345946E+02  0.19526394874E+02  0.51100000000E-03 0.  1.
         12    1    3    3    0    0  0.48047066860E+01 -0.24401710292E+02 -0.12961321449E+02  0.28045044575E+02  0.00000000000E+00 0. -1.
</event>
<event>
 7    1  0.2941727E-013  0.7246156E+02  0.7816164E-02  0.1226708E+00
        -11   -1    0    0    0    0  0.00000000000E+00  0.00000000000E+00  0.45593999997E+02  0.45594000000E+02  0.51100000000E-03 0. -1.
         11   -1    0    0    0    0 -0.00000000000E+00 -0.00000000000E+00 -0.45593999997E+02  0.45594000000E+02  0.51100000000E-03 0.  1.
    9900012    2    1    2    0    0 -0.20809541110E+01 -0.11462338569E+02 -0.14661653633E+02  0.72461557125E+02  0.69999982845E+02 0.  0.
         12    1    1    2    0    0  0.20809541110E+01  0.11462338569E+02  0.14661653633E+02  0.18726442875E+02  0.00000000000E+00 0. -1.
         11    1    3    3    0    0 -0.21130818490E+02  0.31594396393E+01  0.52942730570E+01  0.22011880346E+02  0.51100000000E-03 0. -1.
        -11    1    3    3    0    0 -0.96386937800E+01  0.54485035038E+01 -0.70944934049E+01  0.13149997914E+02  0.51100000000E-03 0.  1.
        -12    1    3    3    0    0  0.28688558159E+02 -0.20070281712E+02 -0.12861433285E+02  0.37299678865E+02  0.00000000000E+00 0.  1.
</event>
<event>
 7    1  0.2941727E-013  0.7246155E+02  0.7816164E-02  0.1226708E+00
        -11   -1    0    0    0    0  0.00000000000E+00  0.00000000000E+00  0.45593999997E+02  0.45594000000E+02  0.51100000000E-03 0. -1.
         11   -1    0    0    0    0 -0.00000000000E+00 -0.00000000000E+00 -0.45593999997E+02  0.45594000000E+02  0.51100000000E-03 0.  1.
    9900012    2    1    2    0    0  0.24323928272E+01  0.22627746412E+01 -0.18429410182E+02  0.72461552296E+02  0.69999976554E+02 0.  0.
         12    1    1    2    0    0 -0.24323928272E+01 -0.22627746412E+01  0.18429410182E+02  0.18726447704E+02  0.00000000000E+00 0. -1.
         11    1    3    3    0    0  0.49391008370E+01 -0.11496113967E+01 -0.75891799947E+01  0.91275394655E+01  0.51100000000E-03 0. -1.
        -11    1    3    3    0    0 -0.22499585536E+02 -0.21022455480E+02 -0.64157691578E+01  0.31453729156E+02  0.51100000000E-03 0.  1.
         12    1    3    3    0    0  0.19992877526E+02  0.24434841518E+02 -0.44244610296E+01  0.31880283675E+02  0.00000000000E+00 0. -1.
</event>
<event>
 7    1  0.2941727E-013  0.7246157E+02  0.7816164E-02  0.1226708E+00
        -11   -1    0    0    0    0  0.00000000000E+00  0.00000000000E+00  0.45593999997E+02  0.45594000000E+02  0.51100000000E-03 0. -1.
         11   -1    0    0    0    0 -0.00000000000E+00 -0.00000000000E+00 -0.45593999997E+02  0.45594000000E+02  0.51100000000E-03 0.  1.
    9900012    2    1    2    0    0 -0.52086616743E+01  0.86743081362E+01 -0.15757714799E+02  0.72461565375E+02  0.69999993592E+02 0.  0.
         12    1    1    2    0    0  0.52086616743E+01 -0.86743081362E+01  0.15757714799E+02  0.18726434625E+02  0.00000000000E+00 0. -1.
         11    1    3    3    0    0 -0.22895764176E+02  0.35599854443E+01  0.14296351312E+02  0.27226369105E+02  0.51100000000E-03 0. -1.
        -11    1    3    3    0    0 -0.34635206998E+01 -0.39244861622E+01 -0.19014988268E+02  0.19722255104E+02  0.51100000000E-03 0.  1.
         12    1    3    3    0    0  0.21150623202E+02  0.90388088541E+01 -0.11039077842E+02  0.25512941166E+02  0.00000000000E+00 0. -1.
</event>
<event>
 7    1  0.2941727E-013  0.7246148E+02  0.7816164E-02  0.1226708E+00
        -11   -1    0    0    0    0  0.00000000000E+00  0.00000000000E+00  0.45593999997E+02  0.45594000000E+02  0.51100000000E-03 0.  1.
         11   -1    0    0    0    0 -0.00000000000E+00 -0.00000000000E+00 -0.45593999997E+02  0.45594000000E+02  0.51100000000E-03 0. -1.
    9900012    2    1    2    0    0 -0.12792163346E+02  0.11609192208E+02  0.72297923794E+01  0.72461476440E+02  0.69999877737E+02 0.  0.
         12    1    1    2    0    0  0.12792163346E+02 -0.11609192208E+02 -0.72297923794E+01  0.18726523560E+02  0.00000000000E+00 0. -1.
         11    1    3    3    0    0  0.11099901276E+02  0.61903490343E+01  0.51157786086E+01  0.13700343811E+02  0.51100000000E-03 0. -1.
        -11    1    3    3    0    0  0.11472719578E+02 -0.13899809558E+02 -0.25195309147E+01  0.18198242678E+02  0.51100000000E-03 0.  1.
         12    1    3    3    0    0 -0.35364784200E+02  0.19318652731E+02  0.46335446854E+01  0.40562889952E+02  0.00000000000E+00 0. -1.
</event>
<event>
 7    1  0.2941727E-013  0.7246156E+02  0.7816164E-02  0.1226708E+00
        -11   -1    0    0    0    0  0.00000000000E+00  0.00000000000E+00  0.45593999997E+02  0.45594000000E+02  0.51100000000E-03 0.  1.
         11   -1    0    0    0    0 -0.00000000000E+00 -0.00000000000E+00 -0.45593999997E+02  0.45594000000E+02  0.51100000000E-03 0. -1.
    9900012    2    1    2    0    0  0.77577127170E+01  0.49718538358E+01  0.16302697896E+02  0.72461564251E+02  0.69999992128E+02 0.  0.
         12    1    1    2    0    0 -0.77577127170E+01 -0.49718538358E+01 -0.16302697896E+02  0.18726435749E+02  0.00000000000E+00 0. -1.
         11    1    3    3    0    0  0.10310354266E+01 -0.58623326785E+01  0.27433888646E+02  0.28072196654E+02  0.51100000000E-03 0. -1.
        -11    1    3    3    0    0 -0.19235157917E+01  0.27216403634E+01  0.15173382243E+02  0.15535081854E+02  0.51100000000E-03 0.  1.
         12    1    3    3    0    0  0.86501930821E+01  0.81125461508E+01 -0.26304572993E+02  0.28854285743E+02  0.00000000000E+00 0. -1.
</event>
<event>
 7    1  0.2941727E-013  0.7246159E+02  0.7816164E-02  0.1226708E+00
        -11   -1    0    0    0    0  0.00000000000E+00  0.00000000000E+00  0.45593999997E+02  0.45594000000E+02  0.51100000000E-03 0. -1.
         11   -1    0    0    0    0 -0.00000000000E+00 -0.00000000000E+00 -0.45593999997E+02  0.45594000000E+02  0.51100000000E-03 0.  1.
    9900012    2    1    2    0    0 -0.50489931204E+00 -0.18355994024E+02 -0.36716319880E+01  0.72461592939E+02  0.70000029499E+02 0.  0.
         12    1    1    2    0    0  0.50489931204E+00  0.18355994024E+02  0.36716319880E+01  0.18726407061E+02  0.00000000000E+00 0. -1.
         11    1    3    3    0    0  0.12173442345E+02 -0.20185041076E+02 -0.13019302504E+01  0.23607702226E+02  0.51100000000E-03 0. -1.
        -11    1    3    3    0    0 -0.53831879255E+01 -0.11010572403E+02 -0.21463215909E+02  0.24716008057E+02  0.51100000000E-03 0.  1.
         12    1    3    3    0    0 -0.72951537315E+01  0.12839619455E+02  0.19093514171E+02  0.24137882656E+02  0.00000000000E+00 0. -1.
</event>
<event>
 7    1  0.2941727E-013  0.7246158E+02  0.7816164E-02  0.1226708E+00
        -11   -1    0    0    0    0  0.00000000000E+00  0.00000000000E+00  0.45593999997E+02  0.45594000000E+02  0.51100000000E-03 0. -1.
         11   -1    0    0    0    0 -0.00000000000E+00 -0.00000000000E+00 -0.45593999997E+02  0.45594000000E+02  0.51100000000E-03 0.  1.
    9900012    2    1    2    0    0  0.17911930215E+02  0.45550033066E+01 -0.30155354085E+01  0.72461581417E+02  0.70000014489E+02 0.  0.
         12    1    1    2    0    0 -0.17911930215E+02 -0.45550033066E+01  0.30155354085E+01  0.18726418583E+02  0.00000000000E+00 0. -1.
         11    1    3    3    0    0  0.40773893947E+02  0.92888495748E+01 -0.63198970798E+01  0.42293430381E+02  0.51100000000E-03 0. -1.
        -11    1    3    3    0    0 -0.14323369678E+00  0.25272121157E+01 -0.44235410159E+01  0.50965706460E+01  0.51100000000E-03 0.  1.
         12    1    3    3    0    0 -0.22718730036E+02 -0.72610583839E+01  0.77279026872E+01  0.25071580390E+02  0.00000000000E+00 0. -1.
</event>
<event>
 7    1  0.2941727E-013  0.7246155E+02  0.7816164E-02  0.1226708E+00
        -11   -1    0    0    0    0  0.00000000000E+00  0.00000000000E+00  0.45593999997E+02  0.45594000000E+02  0.51100000000E-03 0. -1.
         11   -1    0    0    0    0 -0.00000000000E+00 -0.00000000000E+00 -0.45593999997E+02  0.45594000000E+02  0.51100000000E-03 0.  1.
    9900012    2    1    2    0    0  0.95722953833E+01  0.11911582332E+02 -0.10824288292E+02  0.72461552136E+02  0.69999976346E+02 0.  0.
         12    1    1    2    0    0 -0.95722953833E+01 -0.11911582332E+02  0.10824288292E+02  0.18726447864E+02  0.00000000000E+00 0. -1.
         11    1    3    3    0    0  0.22043037738E+02  0.14858116025E+02 -0.14710728506E+02  0.30381979164E+02  0.51100000000E-03 0. -1.
        -11    1    3    3    0    0  0.13580943883E+02  0.17051288733E+01 -0.43526154634E+01  0.14362964974E+02  0.51100000000E-03 0.  1.
         12    1    3    3    0    0 -0.26051686237E+02 -0.46516625661E+01  0.82390556769E+01  0.27716607997E+02  0.00000000000E+00 0. -1.
</event>
<event>
 7    1  0.2941727E-013  0.7246160E+02  0.7816164E-02  0.1226708E+00
        -11   -1    0    0    0    0  0.00000000000E+00  0.00000000000E+00  0.45593999997E+02  0.45594000000E+02  0.51100000000E-03 0. -1.
         11   -1    0    0    0    0 -0.00000000000E+00 -0.00000000000E+00 -0.45593999997E+02  0.45594000000E+02  0.51100000000E-03 0.  1.
    9900012    2    1    2    0    0 -0.74833172607E+01  0.50598703819E+01 -0.16403526352E+02  0.72461601460E+02  0.70000040599E+02 0.  0.
         12    1    1    2    0    0  0.74833172607E+01 -0.50598703819E+01  0.16403526352E+02  0.18726398540E+02  0.00000000000E+00 0. -1.
         11    1    3    3    0    0 -0.57159476147E+00 -0.53650360276E+01 -0.96017384084E+00  0.54801702724E+01  0.51100000000E-03 0. -1.
        -11    1    3    3    0    0 -0.80404678758E+01 -0.26554826070E+02 -0.10454200951E+02  0.29649590707E+02  0.51100000000E-03 0.  1.
         12    1    3    3    0    0  0.11287453766E+01  0.36979732480E+02 -0.49891515601E+01  0.37331840481E+02  0.00000000000E+00 0. -1.
</event>
<event>
 7    1  0.2941727E-013  0.7246160E+02  0.7816164E-02  0.1226708E+00
        -11   -1    0    0    0    0  0.00000000000E+00  0.00000000000E+00  0.45593999997E+02  0.45594000000E+02  0.51100000000E-03 0.  1.
         11   -1    0    0    0    0 -0.00000000000E+00 -0.00000000000E+00 -0.45593999997E+02  0.45594000000E+02  0.51100000000E-03 0. -1.
    9900012    2    1    2    0    0 -0.13181842419E+02  0.96715407638E+01  0.91311733192E+01  0.72461601615E+02  0.70000040801E+02 0.  0.
         12    1    1    2    0    0  0.13181842419E+02 -0.96715407638E+01 -0.91311733192E+01  0.18726398385E+02  0.00000000000E+00 0. -1.
         11    1    3    3    0    0 -0.59427433918E+01 -0.19298331189E+01 -0.10768329911E-01  0.62482454422E+01  0.51100000000E-03 0. -1.
        -11    1    3    3    0    0 -0.32050755936E+02 -0.79591149211E+01  0.10312428005E+02  0.34596887693E+02  0.51100000000E-03 0.  1.
         12    1    3    3    0    0  0.24811656909E+02  0.19560488804E+02 -0.11704863562E+01  0.31616468480E+02  0.00000000000E+00 0. -1.
</event>
<event>
 7    1  0.2941727E-013  0.7246152E+02  0.7816164E-02  0.1226708E+00
        -11   -1    0    0    0    0  0.00000000000E+00  0.00000000000E+00  0.45593999997E+02  0.45594000000E+02  0.51100000000E-03 0.  1.
         11   -1    0    0    0    0 -0.00000000000E+00 -0.00000000000E+00 -0.45593999997E+02  0.45594000000E+02  0.51100000000E-03 0. -1.
    9900012    2    1    2    0    0 -0.13787558125E+02  0.10799643299E+02  0.66296303735E+01  0.72461519996E+02  0.69999934477E+02 0.  0.
         12    1    1    2    0    0  0.13787558125E+02 -0.10799643299E+02 -0.66296303735E+01  0.18726480004E+02  0.00000000000E+00 0. -1.
         11    1    3    3    0    0 -0.48399486983E+01  0.13581008008E+02  0.97918797009E+01  0.17428419041E+02  0.51100000000E-03 0. -1.
        -11    1    3    3    0    0 -0.43205508654E+01 -0.13667514278E+02  0.22555856534E+02  0.26725171104E+02  0.51100000000E-03 0.  1.
         12    1    3    3    0    0 -0.46270585618E+01  0.10886149569E+02 -0.25718105861E+02  0.28307929851E+02  0.00000000000E+00 0. -1.
</event>
<event>
 7    1  0.2941727E-013  0.7246173E+02  0.7816164E-02  0.1226708E+00
        -11   -1    0    0    0    0  0.00000000000E+00  0.00000000000E+00  0.45593999997E+02  0.45594000000E+02  0.51100000000E-03 0.  1.
         11   -1    0    0    0    0 -0.00000000000E+00 -0.00000000000E+00 -0.45593999997E+02  0.45594000000E+02  0.51100000000E-03 0. -1.
    9900012    2    1    2    0    0 -0.15619652870E+02 -0.51870171647E+01  0.89327834881E+01  0.72461726380E+02  0.70000203331E+02 0.  0.
         12    1    1    2    0    0  0.15619652870E+02  0.51870171647E+01 -0.89327834881E+01  0.18726273620E+02  0.00000000000E+00 0. -1.
         11    1    3    3    0    0 -0.11849322200E+02  0.66535129806E+01 -0.15375714592E+02  0.20520435450E+02  0.51100000000E-03 0. -1.
        -11    1    3    3    0    0 -0.17087256925E+02 -0.19490642597E+02  0.36145359198E+01  0.26171059746E+02  0.51100000000E-03 0.  1.
        -12    1    3    3    0    0  0.13316926255E+02  0.76501124517E+01  0.20693962160E+02  0.25770231184E+02  0.00000000000E+00 0.  1.
</event>
<event>
 7    1  0.2941727E-013  0.7246155E+02  0.7816164E-02  0.1226708E+00
        -11   -1    0    0    0    0  0.00000000000E+00  0.00000000000E+00  0.45593999997E+02  0.45594000000E+02  0.51100000000E-03 0.  1.
         11   -1    0    0    0    0 -0.00000000000E+00 -0.00000000000E+00 -0.45593999997E+02  0.45594000000E+02  0.51100000000E-03 0. -1.
    9900012    2    1    2    0    0  0.90261506639E+00 -0.10061372312E+02  0.15768127972E+02  0.72461553821E+02  0.69999978541E+02 0.  0.
         12    1    1    2    0    0 -0.90261506639E+00  0.10061372312E+02 -0.15768127972E+02  0.18726446179E+02  0.00000000000E+00 0. -1.
         11    1    3    3    0    0 -0.55599288548E+01  0.10891016243E+02  0.60042380041E+01  0.13622698629E+02  0.51100000000E-03 0. -1.
        -11    1    3    3    0    0  0.17975602242E+02 -0.12357297240E+02  0.28081790608E+02  0.35558571893E+02  0.51100000000E-03 0.  1.
         12    1    3    3    0    0 -0.11513058321E+02 -0.85950913146E+01 -0.18317900641E+02  0.23280283299E+02  0.00000000000E+00 0. -1.
</event>
<event>
 7    1  0.2941727E-013  0.7246158E+02  0.7816164E-02  0.1226708E+00
        -11   -1    0    0    0    0  0.00000000000E+00  0.00000000000E+00  0.45593999997E+02  0.45594000000E+02  0.51100000000E-03 0. -1.
         11   -1    0    0    0    0 -0.00000000000E+00 -0.00000000000E+00 -0.45593999997E+02  0.45594000000E+02  0.51100000000E-03 0.  1.
    9900012    2    1    2    0    0 -0.14955624952E+02 -0.50810197229E+01 -0.10059397153E+02  0.72461576150E+02  0.70000007628E+02 0.  0.
         12    1    1    2    0    0  0.14955624952E+02  0.50810197229E+01  0.10059397153E+02  0.18726423850E+02  0.00000000000E+00 0. -1.
         11    1    3    3    0    0  0.16127905234E+02  0.75222701910E+01 -0.20381007585E+01  0.17912222950E+02  0.51100000000E-03 0. -1.
        -11    1    3    3    0    0  0.32223549562E+01 -0.15976868403E+01  0.12554698115E+02  0.13059732758E+02  0.51100000000E-03 0.  1.
        -12    1    3    3    0    0 -0.34305885141E+02 -0.11005603074E+02 -0.20575994510E+02  0.41489620442E+02  0.00000000000E+00 0.  1.
</event>
<event>
 7    1  0.2941727E-013  0.7246156E+02  0.7816164E-02  0.1226708E+00
        -11   -1    0    0    0    0  0.00000000000E+00  0.00000000000E+00  0.45593999997E+02  0.45594000000E+02  0.51100000000E-03 0.  1.
         11   -1    0    0    0    0 -0.00000000000E+00 -0.00000000000E+00 -0.45593999997E+02  0.45594000000E+02  0.51100000000E-03 0. -1.
    9900012    2    1    2    0    0 -0.64520329853E+01 -0.20554653971E+01  0.17459265734E+02  0.72461558063E+02  0.69999984067E+02 0.  0.
         12    1    1    2    0    0  0.64520329853E+01  0.20554653971E+01 -0.17459265734E+02  0.18726441937E+02  0.00000000000E+00 0. -1.
         11    1    3    3    0    0  0.30461932392E+01 -0.17276935953E+01  0.63794571912E+01  0.72774784593E+01  0.51100000000E-03 0. -1.
        -11    1    3    3    0    0 -0.11436560721E+01 -0.14272747654E+02  0.34110649774E+02  0.36993995500E+02  0.51100000000E-03 0.  1.
         12    1    3    3    0    0 -0.83545701524E+01  0.13944975852E+02 -0.23030841231E+02  0.28190084104E+02  0.00000000000E+00 0. -1.
</event>
<event>
 7    1  0.2941727E-013  0.7246144E+02  0.7816164E-02  0.1226708E+00
        -11   -1    0    0    0    0  0.00000000000E+00  0.00000000000E+00  0.45593999997E+02  0.45594000000E+02  0.51100000000E-03 0.  1.
         11   -1    0    0    0    0 -0.00000000000E+00 -0.00000000000E+00 -0.45593999997E+02  0.45594000000E+02  0.51100000000E-03 0. -1.
    9900012    2    1    2    0    0 -0.16281027280E+02  0.22087171411E+01  0.89851876218E+01  0.72461444596E+02  0.69999836254E+02 0.  0.
         12    1    1    2    0    0  0.16281027280E+02 -0.22087171411E+01 -0.89851876218E+01  0.18726555404E+02  0.00000000000E+00 0. -1.
         11    1    3    3    0    0 -0.19181474539E+02 -0.46699888598E+01  0.11444395695E+02  0.22819113798E+02  0.51100000000E-03 0. -1.
        -11    1    3    3    0    0 -0.13908959707E+02 -0.55579628212E+01  0.15880043696E+02  0.21829473171E+02  0.51100000000E-03 0.  1.
         12    1    3    3    0    0  0.16809406966E+02  0.12436668822E+02 -0.18339251769E+02  0.27812857627E+02  0.00000000000E+00 0. -1.
</event>
<event>
 7    1  0.2941727E-013  0.7246158E+02  0.7816164E-02  0.1226708E+00
        -11   -1    0    0    0    0  0.00000000000E+00  0.00000000000E+00  0.45593999997E+02  0.45594000000E+02  0.51100000000E-03 0.  1.
         11   -1    0    0    0    0 -0.00000000000E+00 -0.00000000000E+00 -0.45593999997E+02  0.45594000000E+02  0.51100000000E-03 0. -1.
    9900012    2    1    2    0    0  0.15390974470E+01 -0.18594530157E+02  0.15979760359E+01  0.72461577487E+02  0.70000009370E+02 0.  0.
         12    1    1    2    0    0 -0.15390974470E+01  0.18594530157E+02 -0.15979760359E+01  0.18726422513E+02  0.00000000000E+00 0. -1.
         11    1    3    3    0    0  0.20516170944E+02  0.11286988402E+02 -0.90271183123E+01  0.25095781372E+02  0.51100000000E-03 0. -1.
        -11    1    3    3    0    0 -0.38749649065E+01  0.17316361426E+01 -0.69699763828E+01  0.81605445771E+01  0.51100000000E-03 0.  1.
        -12    1    3    3    0    0 -0.15102108591E+02 -0.31613154702E+02  0.17595070731E+02  0.39205251538E+02  0.00000000000E+00 0.  1.
</event>
<event>
 7    1  0.2941727E-013  0.7246148E+02  0.7816164E-02  0.1226708E+00
        -11   -1    0    0    0    0  0.00000000000E+00  0.00000000000E+00  0.45593999997E+02  0.45594000000E+02  0.51100000000E-03 0.  1.
         11   -1    0    0    0    0 -0.00000000000E+00 -0.00000000000E+00 -0.45593999997E+02  0.45594000000E+02  0.51100000000E-03 0. -1.
    9900012    2    1    2    0    0 -0.15744130585E+02 -0.27387487305E+01 -0.97623922501E+01  0.72461476165E+02  0.69999877379E+02 0.  0.
         12    1    1    2    0    0  0.15744130585E+02  0.27387487305E+01  0.97623922501E+01  0.18726523835E+02  0.00000000000E+00 0. -1.
         11    1    3    3    0    0  0.12054879621E+02 -0.15946722156E+02  0.14354214527E+02  0.24610191895E+02  0.51100000000E-03 0. -1.
        -11    1    3    3    0    0 -0.20661626500E+00  0.43242568395E+01  0.51033538933E+01  0.66922424281E+01  0.51100000000E-03 0.  1.
        -12    1    3    3    0    0 -0.27592393941E+02  0.88837165859E+01 -0.29219960670E+02  0.41159041842E+02  0.00000000000E+00 0.  1.
</event>
<event>
 7    1  0.2941727E-013  0.7246160E+02  0.7816164E-02  0.1226708E+00
        -11   -1    0    0    0    0  0.00000000000E+00  0.00000000000E+00  0.45593999997E+02  0.45594000000E+02  0.51100000000E-03 0. -1.
         11   -1    0    0    0    0 -0.00000000000E+00 -0.00000000000E+00 -0.45593999997E+02  0.45594000000E+02  0.51100000000E-03 0.  1.
    9900012    2    1    2    0    0  0.12584392720E+02 -0.70957023518E+01 -0.11914781389E+02  0.72461602921E+02  0.70000042503E+02 0.  0.
         12    1    1    2    0    0 -0.12584392720E+02  0.70957023518E+01  0.11914781389E+02  0.18726397079E+02  0.00000000000E+00 0. -1.
         11    1    3    3    0    0 -0.34342789609E+01 -0.86283183936E+01  0.12823661599E+01  0.93747860515E+01  0.51100000000E-03 0. -1.
        -11    1    3    3    0    0 -0.19081794999E+02  0.28338553452E+01 -0.19467734810E+02  0.27406903061E+02  0.51100000000E-03 0.  1.
        -12    1    3    3    0    0  0.35100466679E+02 -0.13012393035E+01  0.62705872606E+01  0.35679913809E+02  0.00000000000E+00 0.  1.
</event>
<event>
 7    1  0.2941727E-013  0.7246158E+02  0.7816164E-02  0.1226708E+00
        -11   -1    0    0    0    0  0.00000000000E+00  0.00000000000E+00  0.45593999997E+02  0.45594000000E+02  0.51100000000E-03 0.  1.
         11   -1    0    0    0    0 -0.00000000000E+00 -0.00000000000E+00 -0.45593999997E+02  0.45594000000E+02  0.51100000000E-03 0. -1.
    9900012    2    1    2    0    0  0.12220467894E+01 -0.10673873604E+02  0.15337988932E+02  0.72461578010E+02  0.70000010052E+02 0.  0.
         12    1    1    2    0    0 -0.12220467894E+01  0.10673873604E+02 -0.15337988932E+02  0.18726421990E+02  0.00000000000E+00 0. -1.
         11    1    3    3    0    0 -0.79630533961E+01  0.15376776210E+02 -0.28151055625E+00  0.17318623342E+02  0.51100000000E-03 0. -1.
        -11    1    3    3    0    0 -0.62121424747E+01 -0.21194783668E+02  0.27373508316E+02  0.35172695754E+02  0.51100000000E-03 0.  1.
         12    1    3    3    0    0  0.15397242660E+02 -0.48558661462E+01 -0.11754008828E+02  0.19970258914E+02  0.00000000000E+00 0. -1.
</event>
<event>
 7    1  0.2941727E-013  0.7246161E+02  0.7816164E-02  0.1226708E+00
        -11   -1    0    0    0    0  0.00000000000E+00  0.00000000000E+00  0.45593999997E+02  0.45594000000E+02  0.51100000000E-03 0.  1.
         11   -1    0    0    0    0 -0.00000000000E+00 -0.00000000000E+00 -0.45593999997E+02  0.45594000000E+02  0.51100000000E-03 0. -1.
    9900012    2    1    2    0    0  0.20211113945E+01 -0.11264161308E+02 -0.14822673082E+02  0.72461605298E+02  0.70000045598E+02 0.  0.
         12    1    1    2    0    0 -0.20211113945E+01  0.11264161308E+02  0.14822673082E+02  0.18726394702E+02  0.00000000000E+00 0. -1.
         11    1    3    3    0    0 -0.73031325373E+01  0.17860831798E+00 -0.66191973927E+00  0.73352425857E+01  0.51100000000E-03 0. -1.
        -11    1    3    3    0    0 -0.21790475789E+02 -0.34942886525E+01  0.10688580115E+02  0.24521024314E+02  0.51100000000E-03 0.  1.
         12    1    3    3    0    0  0.31114719721E+02 -0.79484809738E+01 -0.24849333458E+02  0.40605338398E+02  0.00000000000E+00 0. -1.
</event>
<event>
 7    1  0.2941727E-013  0.7246159E+02  0.7816164E-02  0.1226708E+00
        -11   -1    0    0    0    0  0.00000000000E+00  0.00000000000E+00  0.45593999997E+02  0.45594000000E+02  0.51100000000E-03 0.  1.
         11   -1    0    0    0    0 -0.00000000000E+00 -0.00000000000E+00 -0.45593999997E+02  0.45594000000E+02  0.51100000000E-03 0. -1.
    9900012    2    1    2    0    0 -0.14391424269E+02  0.10511179010E+02  0.57515749378E+01  0.72461585743E+02  0.70000020125E+02 0.  0.
         12    1    1    2    0    0  0.14391424269E+02 -0.10511179010E+02 -0.57515749378E+01  0.18726414257E+02  0.00000000000E+00 0. -1.
         11    1    3    3    0    0 -0.10591424251E+02  0.40169528355E+01 -0.11571679035E+02  0.16193144652E+02  0.51100000000E-03 0. -1.
        -11    1    3    3    0    0  0.18763988246E+01  0.10556725040E+02 -0.17624824206E+02  0.20630068945E+02  0.51100000000E-03 0.  1.
        -12    1    3    3    0    0 -0.56763988422E+01 -0.40624988662E+01  0.34948078179E+02  0.35638372147E+02  0.00000000000E+00 0.  1.
</event>
<event>
 7    1  0.2941727E-013  0.7246158E+02  0.7816164E-02  0.1226708E+00
        -11   -1    0    0    0    0  0.00000000000E+00  0.00000000000E+00  0.45593999997E+02  0.45594000000E+02  0.51100000000E-03 0.  1.
         11   -1    0    0    0    0 -0.00000000000E+00 -0.00000000000E+00 -0.45593999997E+02  0.45594000000E+02  0.51100000000E-03 0. -1.
    9900012    2    1    2    0    0 -0.45312813693E+00  0.35725899371E+01  0.18376885242E+02  0.72461584561E+02  0.70000018586E+02 0.  0.
         12    1    1    2    0    0  0.45312813693E+00 -0.35725899371E+01 -0.18376885242E+02  0.18726415439E+02  0.00000000000E+00 0. -1.
         11    1    3    3    0    0  0.63817380522E+01  0.18321796394E+02  0.10463413170E+02  0.22043090053E+02  0.51100000000E-03 0. -1.
        -11    1    3    3    0    0  0.16864839500E+02  0.50224525358E+01  0.85144883721E+01  0.19548512816E+02  0.51100000000E-03 0.  1.
        -12    1    3    3    0    0 -0.23699705689E+02 -0.19771658993E+02 -0.60101629998E+00  0.30869981692E+02  0.00000000000E+00 0.  1.
</event>
<event>
 7    1  0.2941727E-013  0.7246140E+02  0.7816164E-02  0.1226708E+00
        -11   -1    0    0    0    0  0.00000000000E+00  0.00000000000E+00  0.45593999997E+02  0.45594000000E+02  0.51100000000E-03 0.  1.
         11   -1    0    0    0    0 -0.00000000000E+00 -0.00000000000E+00 -0.45593999997E+02  0.45594000000E+02  0.51100000000E-03 0. -1.
    9900012    2    1    2    0    0 -0.11105343632E+02  0.15074623260E+02  0.33544770114E+00  0.72461402637E+02  0.69999781595E+02 0.  0.
         12    1    1    2    0    0  0.11105343632E+02 -0.15074623260E+02 -0.33544770114E+00  0.18726597363E+02  0.00000000000E+00 0. -1.
         11    1    3    3    0    0  0.18902992295E+02 -0.57683313001E+01 -0.78860679269E+01  0.21278788295E+02  0.51100000000E-03 0. -1.
        -11    1    3    3    0    0  0.64283376816E+01  0.22500315445E+01  0.76905797791E+01  0.10272837237E+02  0.51100000000E-03 0.  1.
        -12    1    3    3    0    0 -0.36436673608E+02  0.18592923016E+02  0.53093584886E+00  0.40909777105E+02  0.00000000000E+00 0.  1.
</event>
<event>
 7    1  0.2941727E-013  0.7246156E+02  0.7816164E-02  0.1226708E+00
        -11   -1    0    0    0    0  0.00000000000E+00  0.00000000000E+00  0.45593999997E+02  0.45594000000E+02  0.51100000000E-03 0. -1.
         11   -1    0    0    0    0 -0.00000000000E+00 -0.00000000000E+00 -0.45593999997E+02  0.45594000000E+02  0.51100000000E-03 0.  1.
    9900012    2    1    2    0    0 -0.45354982163E+01 -0.78838953022E+01 -0.16369274203E+02  0.72461556474E+02  0.69999981997E+02 0.  0.
         12    1    1    2    0    0  0.45354982163E+01  0.78838953022E+01  0.16369274203E+02  0.18726443526E+02  0.00000000000E+00 0. -1.
         11    1    3    3    0    0  0.24450232374E+02 -0.38487165272E+01  0.71600540358E+01  0.25766118375E+02  0.51100000000E-03 0. -1.
        -11    1    3    3    0    0  0.10310209339E+01  0.12374590656E+01 -0.14947301049E+02  0.15033832446E+02  0.51100000000E-03 0.  1.
        -12    1    3    3    0    0 -0.30016751524E+02 -0.52726378406E+01 -0.85820271894E+01  0.31661605653E+02  0.00000000000E+00 0.  1.
</event>
<event>
 7    1  0.2941727E-013  0.7246167E+02  0.7816164E-02  0.1226708E+00
        -11   -1    0    0    0    0  0.00000000000E+00  0.00000000000E+00  0.45593999997E+02  0.45594000000E+02  0.51100000000E-03 0.  1.
         11   -1    0    0    0    0 -0.00000000000E+00 -0.00000000000E+00 -0.45593999997E+02  0.45594000000E+02  0.51100000000E-03 0. -1.
    9900012    2    1    2    0    0 -0.17747816223E+02  0.28074996561E+01  0.52733601154E+01  0.72461671959E+02  0.70000132437E+02 0.  0.
         12    1    1    2    0    0  0.17747816223E+02 -0.28074996561E+01 -0.52733601154E+01  0.18726328041E+02  0.00000000000E+00 0. -1.
         11    1    3    3    0    0  0.94909857497E+01  0.19063772760E+02 -0.17004374840E+02  0.27251697311E+02  0.51100000000E-03 0. -1.
        -11    1    3    3    0    0 -0.25704506567E+02 -0.96445682951E+01  0.67622793123E+01  0.28274861223E+02  0.51100000000E-03 0.  1.
        -12    1    3    3    0    0 -0.15342954056E+01 -0.66117048092E+01  0.15515455644E+02  0.16935113425E+02  0.00000000000E+00 0.  1.
</event>
<event>
 7    1  0.2941727E-013  0.7246158E+02  0.7816164E-02  0.1226708E+00
        -11   -1    0    0    0    0  0.00000000000E+00  0.00000000000E+00  0.45593999997E+02  0.45594000000E+02  0.51100000000E-03 0.  1.
         11   -1    0    0    0    0 -0.00000000000E+00 -0.00000000000E+00 -0.45593999997E+02  0.45594000000E+02  0.51100000000E-03 0. -1.
    9900012    2    1    2    0    0  0.13997488231E+02 -0.10303232099E+02  0.69708276579E+01  0.72461582652E+02  0.70000016098E+02 0.  0.
         12    1    1    2    0    0 -0.13997488231E+02  0.10303232099E+02 -0.69708276579E+01  0.18726417348E+02  0.00000000000E+00 0. -1.
         11    1    3    3    0    0 -0.59700650792E+01  0.96860427776E+01  0.12111147216E+02  0.16617490451E+02  0.51100000000E-03 0. -1.
        -11    1    3    3    0    0  0.10512310284E+02 -0.24689340324E+02  0.16685214203E+02  0.31598553233E+02  0.51100000000E-03 0.  1.
         12    1    3    3    0    0  0.94552430254E+01  0.47000654476E+01 -0.21825533761E+02  0.24245538968E+02  0.00000000000E+00 0. -1.
</event>
<event>
 7    1  0.2941727E-013  0.7246147E+02  0.7816164E-02  0.1226708E+00
        -11   -1    0    0    0    0  0.00000000000E+00  0.00000000000E+00  0.45593999997E+02  0.45594000000E+02  0.51100000000E-03 0.  1.
         11   -1    0    0    0    0 -0.00000000000E+00 -0.00000000000E+00 -0.45593999997E+02  0.45594000000E+02  0.51100000000E-03 0. -1.
    9900012    2    1    2    0    0  0.62519964481E+01  0.15962518789E+02  0.75361483044E+01  0.72461468101E+02  0.69999866875E+02 0.  0.
         12    1    1    2    0    0 -0.62519964481E+01 -0.15962518789E+02 -0.75361483044E+01  0.18726531899E+02  0.00000000000E+00 0. -1.
         11    1    3    3    0    0 -0.18163992837E+02 -0.22865659707E+01  0.28253257896E+01  0.18524078541E+02  0.51100000000E-03 0. -1.
        -11    1    3    3    0    0  0.26526058716E+02  0.15833964991E+01  0.18354608040E+02  0.32295983837E+02  0.51100000000E-03 0.  1.
         12    1    3    3    0    0 -0.21100694304E+01  0.16665688261E+02 -0.13643785525E+02  0.21641405723E+02  0.00000000000E+00 0. -1.
</event>
<event>
 7    1  0.2941727E-013  0.7246151E+02  0.7816164E-02  0.1226708E+00
        -11   -1    0    0    0    0  0.00000000000E+00  0.00000000000E+00  0.45593999997E+02  0.45594000000E+02  0.51100000000E-03 0.  1.
         11   -1    0    0    0    0 -0.00000000000E+00 -0.00000000000E+00 -0.45593999997E+02  0.45594000000E+02  0.51100000000E-03 0. -1.
    9900012    2    1    2    0    0  0.36314419025E+01  0.85247562083E+01  0.16273366178E+02  0.72461513798E+02  0.69999926404E+02 0.  0.
         12    1    1    2    0    0 -0.36314419025E+01 -0.85247562083E+01 -0.16273366178E+02  0.18726486202E+02  0.00000000000E+00 0. -1.
         11    1    3    3    0    0 -0.42818865814E+01  0.12580388609E+02  0.20353323576E+02  0.24307581350E+02  0.51100000000E-03 0. -1.
        -11    1    3    3    0    0  0.26598848227E+01 -0.11745866191E+02  0.19433803820E+02  0.22862919565E+02  0.51100000000E-03 0.  1.
         12    1    3    3    0    0  0.52534436612E+01  0.76902337904E+01 -0.23513761218E+02  0.25291012883E+02  0.00000000000E+00 0. -1.
</event>
<event>
 7    1  0.2941727E-013  0.7246167E+02  0.7816164E-02  0.1226708E+00
        -11   -1    0    0    0    0  0.00000000000E+00  0.00000000000E+00  0.45593999997E+02  0.45594000000E+02  0.51100000000E-03 0.  1.
         11   -1    0    0    0    0 -0.00000000000E+00 -0.00000000000E+00 -0.45593999997E+02  0.45594000000E+02  0.51100000000E-03 0. -1.
    9900012    2    1    2    0    0  0.11519316017E+02 -0.13873807981E+02 -0.50495817795E+01  0.72461669192E+02  0.70000128832E+02 0.  0.
         12    1    1    2    0    0 -0.11519316017E+02  0.13873807981E+02  0.50495817795E+01  0.18726330808E+02  0.00000000000E+00 0. -1.
         11    1    3    3    0    0  0.10515094816E+02 -0.17078993526E+02  0.81708242937E+01  0.21656906721E+02  0.51100000000E-03 0. -1.
        -11    1    3    3    0    0  0.10473707823E+02 -0.20777141245E+02 -0.60102612829E+01  0.24031466764E+02  0.51100000000E-03 0.  1.
        -12    1    3    3    0    0 -0.94694866219E+01  0.23982326790E+02 -0.72101447902E+01  0.26773295707E+02  0.00000000000E+00 0.  1.
</event>
<event>
 7    1  0.2941727E-013  0.7246174E+02  0.7816164E-02  0.1226708E+00
        -11   -1    0    0    0    0  0.00000000000E+00  0.00000000000E+00  0.45593999997E+02  0.45594000000E+02  0.51100000000E-03 0.  1.
         11   -1    0    0    0    0 -0.00000000000E+00 -0.00000000000E+00 -0.45593999997E+02  0.45594000000E+02  0.51100000000E-03 0. -1.
    9900012    2    1    2    0    0  0.18601482102E+02  0.21159669100E+01 -0.42463112607E+00  0.72461741325E+02  0.70000222799E+02 0.  0.
         12    1    1    2    0    0 -0.18601482102E+02 -0.21159669100E+01  0.42463112607E+00  0.18726258675E+02  0.00000000000E+00 0. -1.
         11    1    3    3    0    0  0.10096468489E+01  0.75428473901E+00 -0.10321620633E+02  0.10398277982E+02  0.51100000000E-03 0. -1.
        -11    1    3    3    0    0  0.34680273689E+02  0.15808032242E+02  0.14346209725E+01  0.38140180965E+02  0.51100000000E-03 0.  1.
         12    1    3    3    0    0 -0.17088438435E+02 -0.14446350071E+02  0.84623685348E+01  0.23923282378E+02  0.00000000000E+00 0. -1.
</event>
<event>
 7    1  0.2941727E-013  0.7246158E+02  0.7816164E-02  0.1226708E+00
        -11   -1    0    0    0    0  0.00000000000E+00  0.00000000000E+00  0.45593999997E+02  0.45594000000E+02  0.51100000000E-03 0.  1.
         11   -1    0    0    0    0 -0.00000000000E+00 -0.00000000000E+00 -0.45593999997E+02  0.45594000000E+02  0.51100000000E-03 0. -1.
    9900012    2    1    2    0    0  0.18174386438E+01 -0.53652510710E+00  0.18630290177E+02  0.72461584046E+02  0.70000017914E+02 0.  0.
         12    1    1    2    0    0 -0.18174386438E+01  0.53652510710E+00 -0.18630290177E+02  0.18726415954E+02  0.00000000000E+00 0. -1.
         11    1    3    3    0    0  0.25089675364E+02  0.14473272010E+01 -0.81069437117E+01  0.26406610962E+02  0.51100000000E-03 0. -1.
        -11    1    3    3    0    0 -0.91579615991E+01  0.33774765554E+01 -0.49575731274E+01  0.10947745892E+02  0.51100000000E-03 0.  1.
        -12    1    3    3    0    0 -0.14114275121E+02 -0.53613288635E+01  0.31694807016E+02  0.35107227192E+02  0.00000000000E+00 0.  1.
</event>
<event>
 7    1  0.2941727E-013  0.7246156E+02  0.7816164E-02  0.1226708E+00
        -11   -1    0    0    0    0  0.00000000000E+00  0.00000000000E+00  0.45593999997E+02  0.45594000000E+02  0.51100000000E-03 0.  1.
         11   -1    0    0    0    0 -0.00000000000E+00 -0.00000000000E+00 -0.45593999997E+02  0.45594000000E+02  0.51100000000E-03 0. -1.
    9900012    2    1    2    0    0 -0.17193417004E+02 -0.50395272831E+01  0.54469319154E+01  0.72461561716E+02  0.69999988825E+02 0.  0.
         12    1    1    2    0    0  0.17193417004E+02  0.50395272831E+01 -0.54469319154E+01  0.18726438284E+02  0.00000000000E+00 0. -1.
         11    1    3    3    0    0 -0.80082418388E+00 -0.10870554511E+02 -0.77020064512E+01  0.13346579277E+02  0.51100000000E-03 0. -1.
        -11    1    3    3    0    0 -0.33513095587E+02 -0.14568123339E-01 -0.45327567486E+01  0.33818244663E+02  0.51100000000E-03 0.  1.
         12    1    3    3    0    0  0.17120502767E+02  0.58455953513E+01  0.17681695115E+02  0.25296737777E+02  0.00000000000E+00 0. -1.
</event>
<event>
 7    1  0.2941727E-013  0.7246160E+02  0.7816164E-02  0.1226708E+00
        -11   -1    0    0    0    0  0.00000000000E+00  0.00000000000E+00  0.45593999997E+02  0.45594000000E+02  0.51100000000E-03 0. -1.
         11   -1    0    0    0    0 -0.00000000000E+00 -0.00000000000E+00 -0.45593999997E+02  0.45594000000E+02  0.51100000000E-03 0.  1.
    9900012    2    1    2    0    0 -0.18241440053E+02  0.24597709313E+00  0.42269757016E+01  0.72461602495E+02  0.70000041947E+02 0.  0.
         12    1    1    2    0    0  0.18241440053E+02 -0.24597709313E+00 -0.42269757016E+01  0.18726397505E+02  0.00000000000E+00 0. -1.
         11    1    3    3    0    0  0.53552674287E+01 -0.19839376716E+02  0.25231282410E+01  0.20703766182E+02  0.51100000000E-03 0. -1.
        -11    1    3    3    0    0  0.23042633751E+00 -0.11302483550E+02 -0.38904051297E+01  0.11955521027E+02  0.51100000000E-03 0.  1.
         12    1    3    3    0    0 -0.23827133819E+02  0.31387837359E+02  0.55942525903E+01  0.39802315286E+02  0.00000000000E+00 0. -1.
</event>
<event>
 7    1  0.2941727E-013  0.7246157E+02  0.7816164E-02  0.1226708E+00
        -11   -1    0    0    0    0  0.00000000000E+00  0.00000000000E+00  0.45593999997E+02  0.45594000000E+02  0.51100000000E-03 0.  1.
         11   -1    0    0    0    0 -0.00000000000E+00 -0.00000000000E+00 -0.45593999997E+02  0.45594000000E+02  0.51100000000E-03 0. -1.
    9900012    2    1    2    0    0  0.14875682194E+02  0.33518117697E+01  0.10870086097E+02  0.72461565886E+02  0.69999994257E+02 0.  0.
         12    1    1    2    0    0 -0.14875682194E+02 -0.33518117697E+01 -0.10870086097E+02  0.18726434114E+02  0.00000000000E+00 0. -1.
         11    1    3    3    0    0 -0.16936723244E+02  0.10852192040E+02 -0.84876211556E+01  0.21832599009E+02  0.51100000000E-03 0. -1.
        -11    1    3    3    0    0  0.19347141434E+01 -0.15678715081E+02  0.69746348513E+01  0.17268779835E+02  0.51100000000E-03 0.  1.
        -12    1    3    3    0    0  0.29877691295E+02  0.81783348109E+01  0.12383072401E+02  0.33360187042E+02  0.00000000000E+00 0.  1.
</event>
<event>
 7    1  0.2941727E-013  0.7246150E+02  0.7816164E-02  0.1226708E+00
        -11   -1    0    0    0    0  0.00000000000E+00  0.00000000000E+00  0.45593999997E+02  0.45594000000E+02  0.51100000000E-03 0.  1.
         11   -1    0    0    0    0 -0.00000000000E+00 -0.00000000000E+00 -0.45593999997E+02  0.45594000000E+02  0.51100000000E-03 0. -1.
    9900012    2    1    2    0    0  0.11694375570E+02 -0.90543250923E+01  0.11486620939E+02  0.72461503172E+02  0.69999912561E+02 0.  0.
         12    1    1    2    0    0 -0.11694375570E+02  0.90543250923E+01 -0.11486620939E+02  0.18726496828E+02  0.00000000000E+00 0. -1.
         11    1    3    3    0    0  0.20008141412E+02 -0.17449749436E+02  0.64412581992E+01  0.27318661856E+02  0.51100000000E-03 0. -1.
        -11    1    3    3    0    0  0.97977349307E+01 -0.76564568842E+01  0.14552522082E+02  0.19141390780E+02  0.51100000000E-03 0.  1.
         12    1    3    3    0    0 -0.18111500773E+02  0.16051881228E+02 -0.95071593424E+01  0.26001450536E+02  0.00000000000E+00 0. -1.
</event>
<event>
 7    1  0.2941727E-013  0.7246173E+02  0.7816164E-02  0.1226708E+00
        -11   -1    0    0    0    0  0.00000000000E+00  0.00000000000E+00  0.45593999997E+02  0.45594000000E+02  0.51100000000E-03 0.  1.
         11   -1    0    0    0    0 -0.00000000000E+00 -0.00000000000E+00 -0.45593999997E+02  0.45594000000E+02  0.51100000000E-03 0. -1.
    9900012    2    1    2    0    0 -0.13243839685E+02  0.11853537345E+02  0.58964132719E+01  0.72461726300E+02  0.70000203227E+02 0.  0.
         12    1    1    2    0    0  0.13243839685E+02 -0.11853537345E+02 -0.58964132719E+01  0.18726273700E+02  0.00000000000E+00 0. -1.
         11    1    3    3    0    0  0.14094413850E+02  0.10856145674E+02  0.44332173197E+01  0.18334716162E+02  0.51100000000E-03 0. -1.
        -11    1    3    3    0    0 -0.20795137635E+02  0.41868716506E+01  0.23062325301E+02  0.31334302163E+02  0.51100000000E-03 0.  1.
         12    1    3    3    0    0 -0.65431158996E+01 -0.31894799797E+01 -0.21599129349E+02  0.22792707976E+02  0.00000000000E+00 0. -1.
</event>
<event>
 7    1  0.2941727E-013  0.7246159E+02  0.7816164E-02  0.1226708E+00
        -11   -1    0    0    0    0  0.00000000000E+00  0.00000000000E+00  0.45593999997E+02  0.45594000000E+02  0.51100000000E-03 0.  1.
         11   -1    0    0    0    0 -0.00000000000E+00 -0.00000000000E+00 -0.45593999997E+02  0.45594000000E+02  0.51100000000E-03 0. -1.
    9900012    2    1    2    0    0  0.16064828678E+02  0.71301998129E+01  0.64622021725E+01  0.72461587457E+02  0.70000022357E+02 0.  0.
         12    1    1    2    0    0 -0.16064828678E+02 -0.71301998129E+01 -0.64622021725E+01  0.18726412543E+02  0.00000000000E+00 0. -1.
         11    1    3    3    0    0  0.10355864727E+02 -0.20579102724E+02 -0.10621753891E+02  0.25368584098E+02  0.51100000000E-03 0. -1.
        -11    1    3    3    0    0  0.17590448285E+02  0.71533710754E+01  0.23107850971E+01  0.19129409730E+02  0.51100000000E-03 0.  1.
         12    1    3    3    0    0 -0.11881484334E+02  0.20555931461E+02  0.14773170966E+02  0.27963593628E+02  0.00000000000E+00 0. -1.
</event>
<event>
 7    1  0.3409497E-013  0.7246158E+02  0.7816164E-02  0.1226708E+00
        -11   -1    0    0    0    0  0.00000000000E+00  0.00000000000E+00  0.45593999997E+02  0.45594000000E+02  0.51100000000E-03 0. -1.
         11   -1    0    0    0    0 -0.00000000000E+00 -0.00000000000E+00 -0.45593999997E+02  0.45594000000E+02  0.51100000000E-03 0.  1.
    9900012    2    1    2    0    0 -0.20812147800E+01  0.51969159872E+01 -0.17870066623E+02  0.72461583582E+02  0.70000017310E+02 0.  0.
         12    1    1    2    0    0  0.20812147800E+01 -0.51969159872E+01  0.17870066623E+02  0.18726416418E+02  0.00000000000E+00 0. -1.
         11    1    3    3    0    0 -0.10012240719E+02 -0.17111785307E+01 -0.13640768573E+01  0.10248600007E+02  0.51100000000E-03 0. -1.
        -11    1    3    3    0    0  0.60085798227E+01 -0.94870293397E+01 -0.35391250899E+02  0.37130141363E+02  0.51100000000E-03 0.  1.
         12    1    3    3    0    0  0.19224461162E+01  0.16395123858E+02  0.18885261133E+02  0.25082842212E+02  0.00000000000E+00 0. -1.
</event>
<event>
 7    1  0.2941727E-013  0.7246171E+02  0.7816164E-02  0.1226708E+00
        -11   -1    0    0    0    0  0.00000000000E+00  0.00000000000E+00  0.45593999997E+02  0.45594000000E+02  0.51100000000E-03 0.  1.
         11   -1    0    0    0    0 -0.00000000000E+00 -0.00000000000E+00 -0.45593999997E+02  0.45594000000E+02  0.51100000000E-03 0. -1.
    9900012    2    1    2    0    0 -0.18441707953E+02  0.26929275161E+01  0.18236410759E+01  0.72461705182E+02  0.70000175716E+02 0.  0.
         12    1    1    2    0    0  0.18441707953E+02 -0.26929275161E+01 -0.18236410759E+01  0.18726294818E+02  0.00000000000E+00 0. -1.
         11    1    3    3    0    0  0.36169084466E+00  0.76650172496E+00  0.27516218528E+00  0.89110024734E+00  0.51100000000E-03 0. -1.
        -11    1    3    3    0    0  0.13303682814E+02  0.26863667910E+02 -0.50038841402E+01  0.30392161600E+02  0.51100000000E-03 0.  1.
         12    1    3    3    0    0 -0.32107081612E+02 -0.24937242119E+02  0.65523630308E+01  0.41178443334E+02  0.00000000000E+00 0. -1.
</event>
<event>
 7    1  0.2941727E-013  0.7246159E+02  0.7816164E-02  0.1226708E+00
        -11   -1    0    0    0    0  0.00000000000E+00  0.00000000000E+00  0.45593999997E+02  0.45594000000E+02  0.51100000000E-03 0. -1.
         11   -1    0    0    0    0 -0.00000000000E+00 -0.00000000000E+00 -0.45593999997E+02  0.45594000000E+02  0.51100000000E-03 0.  1.
    9900012    2    1    2    0    0 -0.15061867152E+02  0.69523359728E+01  0.86881245041E+01  0.72461592844E+02  0.70000029375E+02 0.  0.
         12    1    1    2    0    0  0.15061867152E+02 -0.69523359728E+01 -0.86881245041E+01  0.18726407156E+02  0.00000000000E+00 0. -1.
         11    1    3    3    0    0  0.11976174663E+02 -0.13158829352E+01 -0.54939279007E+01  0.13241735215E+02  0.51100000000E-03 0. -1.
        -11    1    3    3    0    0  0.99249158878E+01 -0.79445838745E+01 -0.60402939526E+01  0.14074996256E+02  0.51100000000E-03 0.  1.
        -12    1    3    3    0    0 -0.36962957703E+02  0.16212802783E+02  0.20222346357E+02  0.45144861373E+02  0.00000000000E+00 0.  1.
</event>
<event>
 7    1  0.2941727E-013  0.7246159E+02  0.7816164E-02  0.1226708E+00
        -11   -1    0    0    0    0  0.00000000000E+00  0.00000000000E+00  0.45593999997E+02  0.45594000000E+02  0.51100000000E-03 0.  1.
         11   -1    0    0    0    0 -0.00000000000E+00 -0.00000000000E+00 -0.45593999997E+02  0.45594000000E+02  0.51100000000E-03 0. -1.
    9900012    2    1    2    0    0 -0.14420470430E+02  0.11009833672E+02 -0.46381094602E+01  0.72461589125E+02  0.70000024530E+02 0.  0.
         12    1    1    2    0    0  0.14420470430E+02 -0.11009833672E+02  0.46381094602E+01  0.18726410875E+02  0.00000000000E+00 0. -1.
         11    1    3    3    0    0 -0.83819782829E+01  0.16648015536E+02  0.29725076491E+01  0.18874580345E+02  0.51100000000E-03 0. -1.
        -11    1    3    3    0    0  0.17240848837E+02  0.93175801397E+01  0.87284281444E+01  0.21453429246E+02  0.51100000000E-03 0.  1.
         12    1    3    3    0    0 -0.23279340985E+02 -0.14955762004E+02 -0.16339045254E+02  0.32133579533E+02  0.00000000000E+00 0. -1.
</event>
<event>
 7    1  0.2941727E-013  0.7246181E+02  0.7816164E-02  0.1226707E+00
        -11   -1    0    0    0    0  0.00000000000E+00  0.00000000000E+00  0.45593999997E+02  0.45594000000E+02  0.51100000000E-03 0.  1.
         11   -1    0    0    0    0 -0.00000000000E+00 -0.00000000000E+00 -0.45593999997E+02  0.45594000000E+02  0.51100000000E-03 0. -1.
    9900012    2    1    2    0    0  0.11644873173E+02 -0.12773363854E+02  0.72047323572E+01  0.72461813424E+02  0.70000316720E+02 0.  0.
         12    1    1    2    0    0 -0.11644873173E+02  0.12773363854E+02 -0.72047323572E+01  0.18726186576E+02  0.00000000000E+00 0. -1.
         11    1    3    3    0    0 -0.30074615037E+01 -0.91506009292E+01 -0.94377063516E+01  0.13485126010E+02  0.51100000000E-03 0. -1.
        -11    1    3    3    0    0  0.34756989493E+02 -0.17175028747E+01  0.17106393970E+02  0.38776627621E+02  0.51100000000E-03 0.  1.
         12    1    3    3    0    0 -0.20104654816E+02 -0.19052600499E+01 -0.46395526161E+00  0.20200059793E+02  0.00000000000E+00 0. -1.
</event>
<event>
 7    1  0.2941727E-013  0.7246161E+02  0.7816164E-02  0.1226708E+00
        -11   -1    0    0    0    0  0.00000000000E+00  0.00000000000E+00  0.45593999997E+02  0.45594000000E+02  0.51100000000E-03 0.  1.
         11   -1    0    0    0    0 -0.00000000000E+00 -0.00000000000E+00 -0.45593999997E+02  0.45594000000E+02  0.51100000000E-03 0. -1.
    9900012    2    1    2    0    0 -0.41573463510E+01  0.95382017465E+00  0.18234159295E+02  0.72461605077E+02  0.70000045311E+02 0.  0.
         12    1    1    2    0    0  0.41573463510E+01 -0.95382017465E+00 -0.18234159295E+02  0.18726394923E+02  0.00000000000E+00 0. -1.
         11    1    3    3    0    0 -0.18062048248E+02  0.40606208529E+01 -0.10350803331E+02  0.21210029667E+02  0.51100000000E-03 0. -1.
        -11    1    3    3    0    0 -0.52547819814E+01  0.17106716556E+01 -0.79707259384E+01  0.96990516769E+01  0.51100000000E-03 0.  1.
        -12    1    3    3    0    0  0.19159483878E+02 -0.48174723339E+01  0.36555688565E+02  0.41552523733E+02  0.00000000000E+00 0.  1.
</event>
<event>
 7    1  0.2941727E-013  0.7246160E+02  0.7816164E-02  0.1226708E+00
        -11   -1    0    0    0    0  0.00000000000E+00  0.00000000000E+00  0.45593999997E+02  0.45594000000E+02  0.51100000000E-03 0. -1.
         11   -1    0    0    0    0 -0.00000000000E+00 -0.00000000000E+00 -0.45593999997E+02  0.45594000000E+02  0.51100000000E-03 0.  1.
    9900012    2    1    2    0    0  0.12492717918E+02  0.68358468576E+01 -0.12160644773E+02  0.72461599264E+02  0.70000037738E+02 0.  0.
         12    1    1    2    0    0 -0.12492717918E+02 -0.68358468576E+01  0.12160644773E+02  0.18726400736E+02  0.00000000000E+00 0. -1.
         11    1    3    3    0    0  0.43488103998E+01  0.13186738996E+02 -0.53232060866E+01  0.14870735037E+02  0.51100000000E-03 0. -1.
        -11    1    3    3    0    0  0.30757995382E+02  0.50375275168E+01 -0.82194082164E+01  0.32233362143E+02  0.51100000000E-03 0.  1.
         12    1    3    3    0    0 -0.22614087863E+02 -0.11388419655E+02  0.13819695302E+01  0.25357502083E+02  0.00000000000E+00 0. -1.
</event>
<event>
 7    1  0.2941727E-013  0.7246156E+02  0.7816164E-02  0.1226708E+00
        -11   -1    0    0    0    0  0.00000000000E+00  0.00000000000E+00  0.45593999997E+02  0.45594000000E+02  0.51100000000E-03 0. -1.
         11   -1    0    0    0    0 -0.00000000000E+00 -0.00000000000E+00 -0.45593999997E+02  0.45594000000E+02  0.51100000000E-03 0.  1.
    9900012    2    1    2    0    0 -0.60543112541E+01 -0.14603628593E+02 -0.10037880114E+02  0.72461556397E+02  0.69999981896E+02 0.  0.
         12    1    1    2    0    0  0.60543112541E+01  0.14603628593E+02  0.10037880114E+02  0.18726443603E+02  0.00000000000E+00 0. -1.
         11    1    3    3    0    0 -0.10939769683E+02 -0.30119477146E+01  0.29720825176E+01  0.11729606323E+02  0.51100000000E-03 0. -1.
        -11    1    3    3    0    0 -0.16399460771E+01  0.22901435251E+02  0.88502221900E+00  0.22977128286E+02  0.51100000000E-03 0.  1.
         12    1    3    3    0    0  0.65254045059E+01 -0.34493116129E+02 -0.13894984851E+02  0.37754821788E+02  0.00000000000E+00 0. -1.
</event>
<event>
 7    1  0.2941727E-013  0.7246164E+02  0.7816164E-02  0.1226708E+00
        -11   -1    0    0    0    0  0.00000000000E+00  0.00000000000E+00  0.45593999997E+02  0.45594000000E+02  0.51100000000E-03 0. -1.
         11   -1    0    0    0    0 -0.00000000000E+00 -0.00000000000E+00 -0.45593999997E+02  0.45594000000E+02  0.51100000000E-03 0.  1.
    9900012    2    1    2    0    0 -0.49478045585E+01  0.10539535715E+02 -0.14666764402E+02  0.72461639941E+02  0.70000090728E+02 0.  0.
         12    1    1    2    0    0  0.49478045585E+01 -0.10539535715E+02  0.14666764402E+02  0.18726360059E+02  0.00000000000E+00 0. -1.
         11    1    3    3    0    0  0.11891986159E+02  0.56599852709E+01  0.97418866833E+01  0.16381670381E+02  0.51100000000E-03 0. -1.
        -11    1    3    3    0    0  0.72900367753E+01  0.23273494485E+01 -0.30182945349E+02  0.31137941194E+02  0.51100000000E-03 0.  1.
        -12    1    3    3    0    0 -0.24129827493E+02  0.25522009956E+01  0.57742942637E+01  0.24942028366E+02  0.00000000000E+00 0.  1.
</event>
<event>
 7    1  0.2941727E-013  0.7246159E+02  0.7816164E-02  0.1226708E+00
        -11   -1    0    0    0    0  0.00000000000E+00  0.00000000000E+00  0.45593999997E+02  0.45594000000E+02  0.51100000000E-03 0.  1.
         11   -1    0    0    0    0 -0.00000000000E+00 -0.00000000000E+00 -0.45593999997E+02  0.45594000000E+02  0.51100000000E-03 0. -1.
    9900012    2    1    2    0    0 -0.17509591767E+02  0.63465832174E+01  0.19527772536E+01  0.72461594542E+02  0.70000031587E+02 0.  0.
         12    1    1    2    0    0  0.17509591767E+02 -0.63465832174E+01 -0.19527772536E+01  0.18726405458E+02  0.00000000000E+00 0. -1.
         11    1    3    3    0    0  0.21016979222E+02  0.13001726359E+01  0.52709901281E+01  0.21706846885E+02  0.51100000000E-03 0. -1.
        -11    1    3    3    0    0 -0.14258390808E+02  0.17388349102E+02  0.33209630248E+01  0.22730710253E+02  0.51100000000E-03 0.  1.
        -12    1    3    3    0    0 -0.24268180181E+02 -0.12341938521E+02 -0.66391758993E+01  0.28024037403E+02  0.00000000000E+00 0.  1.
</event>
<event>
 7    1  0.2941727E-013  0.7246157E+02  0.7816164E-02  0.1226708E+00
        -11   -1    0    0    0    0  0.00000000000E+00  0.00000000000E+00  0.45593999997E+02  0.45594000000E+02  0.51100000000E-03 0.  1.
         11   -1    0    0    0    0 -0.00000000000E+00 -0.00000000000E+00 -0.45593999997E+02  0.45594000000E+02  0.51100000000E-03 0. -1.
    9900012    2    1    2    0    0  0.68538670313E+01  0.63851432755E+01  0.16215223658E+02  0.72461574120E+02  0.70000004984E+02 0.  0.
         12    1    1    2    0    0 -0.68538670313E+01 -0.63851432755E+01 -0.16215223658E+02  0.18726425880E+02  0.00000000000E+00 0. -1.
         11    1    3    3    0    0 -0.27834730175E+01 -0.50623527004E+01 -0.92832904557E+01  0.10934103477E+02  0.51100000000E-03 0. -1.
        -11    1    3    3    0    0 -0.13669632460E+02  0.17416793381E+02 -0.49835196997E+01  0.22694470959E+02  0.51100000000E-03 0.  1.
         12    1    3    3    0    0  0.23306972508E+02 -0.59692974053E+01  0.30482033814E+02  0.38832999684E+02  0.00000000000E+00 0. -1.
</event>
<event>
 7    1  0.2941727E-013  0.7246175E+02  0.7816164E-02  0.1226708E+00
        -11   -1    0    0    0    0  0.00000000000E+00  0.00000000000E+00  0.45593999997E+02  0.45594000000E+02  0.51100000000E-03 0.  1.
         11   -1    0    0    0    0 -0.00000000000E+00 -0.00000000000E+00 -0.45593999997E+02  0.45594000000E+02  0.51100000000E-03 0. -1.
    9900012    2    1    2    0    0 -0.25975804070E+01  0.18480163966E+02 -0.15520107370E+01  0.72461745129E+02  0.70000227754E+02 0.  0.
         12    1    1    2    0    0  0.25975804070E+01 -0.18480163966E+02  0.15520107370E+01  0.18726254871E+02  0.00000000000E+00 0. -1.
         11    1    3    3    0    0 -0.63878535225E+01 -0.65835571146E+01 -0.19295759308E+02  0.21365257416E+02  0.51100000000E-03 0. -1.
        -11    1    3    3    0    0  0.11726098618E+02  0.24890173720E+02 -0.41343543487E+01  0.27822922613E+02  0.51100000000E-03 0.  1.
        -12    1    3    3    0    0 -0.79358255026E+01  0.17354736047E+00  0.21878102920E+02  0.23273565100E+02  0.00000000000E+00 0.  1.
</event>
<event>
 7    1  0.2941727E-013  0.7246158E+02  0.7816164E-02  0.1226708E+00
        -11   -1    0    0    0    0  0.00000000000E+00  0.00000000000E+00  0.45593999997E+02  0.45594000000E+02  0.51100000000E-03 0. -1.
         11   -1    0    0    0    0 -0.00000000000E+00 -0.00000000000E+00 -0.45593999997E+02  0.45594000000E+02  0.51100000000E-03 0.  1.
    9900012    2    1    2    0    0  0.68293580018E+01 -0.15586010662E+02 -0.78176029391E+01  0.72461580834E+02  0.70000013730E+02 0.  0.
         12    1    1    2    0    0 -0.68293580018E+01  0.15586010662E+02  0.78176029391E+01  0.18726419166E+02  0.00000000000E+00 0. -1.
         11    1    3    3    0    0  0.37009178208E+01  0.43129620170E+01  0.47317952094E+01  0.73951551871E+01  0.51100000000E-03 0. -1.
        -11    1    3    3    0    0  0.27025624371E+02 -0.13623172489E+01 -0.20320510757E+02  0.33840263572E+02  0.51100000000E-03 0.  1.
         12    1    3    3    0    0 -0.23897184190E+02 -0.18536655430E+02  0.77711126081E+01  0.31226162075E+02  0.00000000000E+00 0. -1.
</event>
<event>
 7    1  0.2941727E-013  0.7246183E+02  0.7816164E-02  0.1226707E+00
        -11   -1    0    0    0    0  0.00000000000E+00  0.00000000000E+00  0.45593999997E+02  0.45594000000E+02  0.51100000000E-03 0. -1.
         11   -1    0    0    0    0 -0.00000000000E+00 -0.00000000000E+00 -0.45593999997E+02  0.45594000000E+02  0.51100000000E-03 0.  1.
    9900012    2    1    2    0    0  0.97377127674E+01  0.15467657838E+02  0.40740541651E+01  0.72461830977E+02  0.70000339587E+02 0.  0.
         12    1    1    2    0    0 -0.97377127674E+01 -0.15467657838E+02 -0.40740541651E+01  0.18726169023E+02  0.00000000000E+00 0. -1.
         11    1    3    3    0    0  0.18903650619E+02 -0.20984831997E+02 -0.27548290453E+01  0.28377812882E+02  0.51100000000E-03 0. -1.
        -11    1    3    3    0    0  0.34241173978E+00 -0.28234671581E+01 -0.81130104171E+00  0.29576041375E+01  0.51100000000E-03 0.  1.
        -12    1    3    3    0    0 -0.95083495916E+01  0.39275956992E+02  0.76401842521E+01  0.41126413958E+02  0.00000000000E+00 0.  1.
</event>
<event>
 7    1  0.2941727E-013  0.7246154E+02  0.7816164E-02  0.1226708E+00
        -11   -1    0    0    0    0  0.00000000000E+00  0.00000000000E+00  0.45593999997E+02  0.45594000000E+02  0.51100000000E-03 0. -1.
         11   -1    0    0    0    0 -0.00000000000E+00 -0.00000000000E+00 -0.45593999997E+02  0.45594000000E+02  0.51100000000E-03 0.  1.
    9900012    2    1    2    0    0 -0.15939561451E+02 -0.75609164586E+01  0.62803863063E+01  0.72461539334E+02  0.69999959668E+02 0.  0.
         12    1    1    2    0    0  0.15939561451E+02  0.75609164586E+01 -0.62803863063E+01  0.18726460666E+02  0.00000000000E+00 0. -1.
         11    1    3    3    0    0 -0.14573571804E+02 -0.50374227251E+00 -0.11867395098E+02  0.18801005773E+02  0.51100000000E-03 0. -1.
        -11    1    3    3    0    0 -0.17494635222E+02 -0.11276780988E+01 -0.10367928520E+02  0.20367323376E+02  0.51100000000E-03 0.  1.
         12    1    3    3    0    0  0.16128645575E+02 -0.59294960873E+01  0.28515709924E+02  0.33293210185E+02  0.00000000000E+00 0. -1.
</event>
<event>
 7    1  0.2941727E-013  0.7246152E+02  0.7816164E-02  0.1226708E+00
        -11   -1    0    0    0    0  0.00000000000E+00  0.00000000000E+00  0.45593999997E+02  0.45594000000E+02  0.51100000000E-03 0.  1.
         11   -1    0    0    0    0 -0.00000000000E+00 -0.00000000000E+00 -0.45593999997E+02  0.45594000000E+02  0.51100000000E-03 0. -1.
    9900012    2    1    2    0    0 -0.17878585617E+02 -0.15830335076E+01  0.53414566529E+01  0.72461522010E+02  0.69999937101E+02 0.  0.
         12    1    1    2    0    0  0.17878585617E+02  0.15830335076E+01 -0.53414566529E+01  0.18726477990E+02  0.00000000000E+00 0. -1.
         11    1    3    3    0    0 -0.15968196274E+02 -0.20167492363E+02 -0.17879277470E+02  0.31326978845E+02  0.51100000000E-03 0. -1.
        -11    1    3    3    0    0 -0.92743491410E+01 -0.24094859496E+01  0.14192625132E+02  0.17124537451E+02  0.51100000000E-03 0.  1.
         12    1    3    3    0    0  0.73639597984E+01  0.20993944805E+02  0.90281089910E+01  0.24010005713E+02  0.00000000000E+00 0. -1.
</event>
<event>
 7    1  0.2941727E-013  0.7246171E+02  0.7816164E-02  0.1226708E+00
        -11   -1    0    0    0    0  0.00000000000E+00  0.00000000000E+00  0.45593999997E+02  0.45594000000E+02  0.51100000000E-03 0. -1.
         11   -1    0    0    0    0 -0.00000000000E+00 -0.00000000000E+00 -0.45593999997E+02  0.45594000000E+02  0.51100000000E-03 0.  1.
    9900012    2    1    2    0    0  0.14641458764E+02  0.84945056118E+01 -0.80090609140E+01  0.72461708401E+02  0.70000179909E+02 0.  0.
         12    1    1    2    0    0 -0.14641458764E+02 -0.84945056118E+01  0.80090609140E+01  0.18726291599E+02  0.00000000000E+00 0. -1.
         11    1    3    3    0    0 -0.12206914591E+02 -0.34883413419E+01  0.42249484384E+01  0.13380115049E+02  0.51100000000E-03 0. -1.
        -11    1    3    3    0    0 -0.11909356274E+02 -0.77849218516E+01 -0.18121238358E+01  0.14342997182E+02  0.51100000000E-03 0.  1.
         12    1    3    3    0    0  0.38757729629E+02  0.19767768805E+02 -0.10421885517E+02  0.44738596170E+02  0.00000000000E+00 0. -1.
</event>
<event>
 7    1  0.2941727E-013  0.7246154E+02  0.7816164E-02  0.1226708E+00
        -11   -1    0    0    0    0  0.00000000000E+00  0.00000000000E+00  0.45593999997E+02  0.45594000000E+02  0.51100000000E-03 0. -1.
         11   -1    0    0    0    0 -0.00000000000E+00 -0.00000000000E+00 -0.45593999997E+02  0.45594000000E+02  0.51100000000E-03 0.  1.
    9900012    2    1    2    0    0 -0.66094489802E+01 -0.67985563737E+01 -0.16148536369E+02  0.72461537134E+02  0.69999956803E+02 0.  0.
         12    1    1    2    0    0  0.66094489802E+01  0.67985563737E+01  0.16148536369E+02  0.18726462866E+02  0.00000000000E+00 0. -1.
         11    1    3    3    0    0 -0.10842215951E+02 -0.16718817977E+02  0.51485890606E+00  0.19933328905E+02  0.51100000000E-03 0. -1.
        -11    1    3    3    0    0 -0.15924219682E+02 -0.11346096001E+02 -0.11767427213E+02  0.22820758323E+02  0.51100000000E-03 0.  1.
         12    1    3    3    0    0  0.20156986653E+02  0.21266357605E+02 -0.48959680618E+01  0.29707449907E+02  0.00000000000E+00 0. -1.
</event>
<event>
 7    1  0.2941727E-013  0.7246155E+02  0.7816164E-02  0.1226708E+00
        -11   -1    0    0    0    0  0.00000000000E+00  0.00000000000E+00  0.45593999997E+02  0.45594000000E+02  0.51100000000E-03 0. -1.
         11   -1    0    0    0    0 -0.00000000000E+00 -0.00000000000E+00 -0.45593999997E+02  0.45594000000E+02  0.51100000000E-03 0.  1.
    9900012    2    1    2    0    0 -0.15790048854E+01  0.23314836963E+01 -0.18513536388E+02  0.72461545391E+02  0.69999967558E+02 0.  0.
         12    1    1    2    0    0  0.15790048854E+01 -0.23314836963E+01  0.18513536388E+02  0.18726454609E+02  0.00000000000E+00 0. -1.
         11    1    3    3    0    0  0.10656642405E+02 -0.12586148533E+02 -0.36754246282E+01  0.16896269076E+02  0.51100000000E-03 0. -1.
        -11    1    3    3    0    0 -0.19524017021E+02 -0.85859897958E+01 -0.21279499984E+02  0.30128451358E+02  0.51100000000E-03 0.  1.
        -12    1    3    3    0    0  0.72883697300E+01  0.23503622025E+02  0.64413882242E+01  0.25436824956E+02  0.00000000000E+00 0.  1.
</event>
<event>
 7    1  0.2941727E-013  0.7246158E+02  0.7816164E-02  0.1226708E+00
        -11   -1    0    0    0    0  0.00000000000E+00  0.00000000000E+00  0.45593999997E+02  0.45594000000E+02  0.51100000000E-03 0.  1.
         11   -1    0    0    0    0 -0.00000000000E+00 -0.00000000000E+00 -0.45593999997E+02  0.45594000000E+02  0.51100000000E-03 0. -1.
    9900012    2    1    2    0    0  0.71487093010E+01  0.14963893510E+02  0.86980766356E+01  0.72461583076E+02  0.70000016650E+02 0.  0.
         12    1    1    2    0    0 -0.71487093010E+01 -0.14963893510E+02 -0.86980766356E+01  0.18726416924E+02  0.00000000000E+00 0. -1.
         11    1    3    3    0    0 -0.63181183065E+00 -0.77273028471E+01  0.94366184153E+01  0.12213114380E+02  0.51100000000E-03 0. -1.
        -11    1    3    3    0    0  0.17098098285E+02  0.31762304675E+02  0.15655827576E+02  0.39322943692E+02  0.51100000000E-03 0.  1.
         12    1    3    3    0    0 -0.93175771531E+01 -0.90711083177E+01 -0.16394369356E+02  0.20925525004E+02  0.00000000000E+00 0. -1.
</event>
<event>
 7    1  0.2941727E-013  0.7246158E+02  0.7816164E-02  0.1226708E+00
        -11   -1    0    0    0    0  0.00000000000E+00  0.00000000000E+00  0.45593999997E+02  0.45594000000E+02  0.51100000000E-03 0. -1.
         11   -1    0    0    0    0 -0.00000000000E+00 -0.00000000000E+00 -0.45593999997E+02  0.45594000000E+02  0.51100000000E-03 0.  1.
    9900012    2    1    2    0    0 -0.18340257684E+01  0.15189722510E+02 -0.10797563410E+02  0.72461582937E+02  0.70000016469E+02 0.  0.
         12    1    1    2    0    0  0.18340257684E+01 -0.15189722510E+02  0.10797563410E+02  0.18726417063E+02  0.00000000000E+00 0. -1.
         11    1    3    3    0    0  0.11540609282E+02  0.10903352927E+02  0.11520688365E+02  0.19616193013E+02  0.51100000000E-03 0. -1.
        -11    1    3    3    0    0  0.15964371811E+02 -0.47604658275E+01 -0.11707225139E+02  0.20361294726E+02  0.51100000000E-03 0.  1.
         12    1    3    3    0    0 -0.29339006861E+02  0.90468354100E+01 -0.10611026636E+02  0.32484095198E+02  0.00000000000E+00 0. -1.
</event>
<event>
 7    1  0.2941727E-013  0.7246154E+02  0.7816164E-02  0.1226708E+00
        -11   -1    0    0    0    0  0.00000000000E+00  0.00000000000E+00  0.45593999997E+02  0.45594000000E+02  0.51100000000E-03 0. -1.
         11   -1    0    0    0    0 -0.00000000000E+00 -0.00000000000E+00 -0.45593999997E+02  0.45594000000E+02  0.51100000000E-03 0.  1.
    9900012    2    1    2    0    0 -0.14301890992E+02 -0.47167712884E+00  0.12079477479E+02  0.72461539004E+02  0.69999959238E+02 0.  0.
         12    1    1    2    0    0  0.14301890992E+02  0.47167712884E+00 -0.12079477479E+02  0.18726460996E+02  0.00000000000E+00 0. -1.
         11    1    3    3    0    0 -0.87557048954E+01 -0.10292701243E+02  0.26510387849E+02  0.29755717623E+02  0.51100000000E-03 0. -1.
        -11    1    3    3    0    0 -0.10393867094E+01  0.87751953471E+01  0.12540170473E+02  0.15340803560E+02  0.51100000000E-03 0.  1.
        -12    1    3    3    0    0 -0.45067993872E+01  0.10458287666E+01 -0.26971080843E+02  0.27365017821E+02  0.00000000000E+00 0.  1.
</event>
<event>
 7    1  0.2941727E-013  0.7246160E+02  0.7816164E-02  0.1226708E+00
        -11   -1    0    0    0    0  0.00000000000E+00  0.00000000000E+00  0.45593999997E+02  0.45594000000E+02  0.51100000000E-03 0.  1.
         11   -1    0    0    0    0 -0.00000000000E+00 -0.00000000000E+00 -0.45593999997E+02  0.45594000000E+02  0.51100000000E-03 0. -1.
    9900012    2    1    2    0    0  0.81253582462E+01 -0.82279214573E+01  0.14729489716E+02  0.72461601376E+02  0.70000040489E+02 0.  0.
         12    1    1    2    0    0 -0.81253582462E+01  0.82279214573E+01 -0.14729489716E+02  0.18726398624E+02  0.00000000000E+00 0. -1.
         11    1    3    3    0    0 -0.19648662731E+02 -0.45824560145E+01  0.11454714394E+02  0.23200847664E+02  0.51100000000E-03 0. -1.
        -11    1    3    3    0    0  0.22436879081E+02 -0.87381633605E+01  0.19793436464E+02  0.31169683494E+02  0.51100000000E-03 0.  1.
         12    1    3    3    0    0  0.53371418956E+01  0.50926979177E+01 -0.16518661141E+02  0.18091070217E+02  0.00000000000E+00 0. -1.
</event>
<event>
 7    1  0.2941727E-013  0.7246152E+02  0.7816164E-02  0.1226708E+00
        -11   -1    0    0    0    0  0.00000000000E+00  0.00000000000E+00  0.45593999997E+02  0.45594000000E+02  0.51100000000E-03 0. -1.
         11   -1    0    0    0    0 -0.00000000000E+00 -0.00000000000E+00 -0.45593999997E+02  0.45594000000E+02  0.51100000000E-03 0.  1.
    9900012    2    1    2    0    0 -0.97846026567E+01 -0.13710075907E+02 -0.81839173744E+01  0.72461517839E+02  0.69999931667E+02 0.  0.
         12    1    1    2    0    0  0.97846026567E+01  0.13710075907E+02  0.81839173744E+01  0.18726482161E+02  0.00000000000E+00 0. -1.
         11    1    3    3    0    0 -0.22439707916E+02 -0.11081491864E+02  0.93525678817E+01  0.26717231883E+02  0.51100000000E-03 0. -1.
        -11    1    3    3    0    0  0.37978669328E+01 -0.19324309533E+02 -0.18223868183E+02  0.26832109570E+02  0.51100000000E-03 0.  1.
        -12    1    3    3    0    0  0.88572383260E+01  0.16695725489E+02  0.68738292736E+00  0.18912176386E+02  0.00000000000E+00 0.  1.
</event>
<event>
 7    1  0.2941727E-013  0.7246164E+02  0.7816164E-02  0.1226708E+00
        -11   -1    0    0    0    0  0.00000000000E+00  0.00000000000E+00  0.45593999997E+02  0.45594000000E+02  0.51100000000E-03 0. -1.
         11   -1    0    0    0    0 -0.00000000000E+00 -0.00000000000E+00 -0.45593999997E+02  0.45594000000E+02  0.51100000000E-03 0.  1.
    9900012    2    1    2    0    0 -0.26701617010E+01 -0.18532739507E+02 -0.29027678452E+00  0.72461642699E+02  0.70000094321E+02 0.  0.
         12    1    1    2    0    0  0.26701617010E+01  0.18532739507E+02  0.29027678452E+00  0.18726357301E+02  0.00000000000E+00 0. -1.
         11    1    3    3    0    0 -0.15291119236E+02  0.40335575808E+01 -0.15302179242E+02  0.22005558481E+02  0.51100000000E-03 0. -1.
        -11    1    3    3    0    0 -0.48834823625E+00 -0.23524620093E+02 -0.72344439184E+01  0.24616730359E+02  0.51100000000E-03 0.  1.
        -12    1    3    3    0    0  0.13109305771E+02  0.95832300483E+00  0.22246346376E+02  0.25839353859E+02  0.00000000000E+00 0.  1.
</event>
<event>
 7    1  0.2941727E-013  0.7246155E+02  0.7816164E-02  0.1226708E+00
        -11   -1    0    0    0    0  0.00000000000E+00  0.00000000000E+00  0.45593999997E+02  0.45594000000E+02  0.51100000000E-03 0. -1.
         11   -1    0    0    0    0 -0.00000000000E+00 -0.00000000000E+00 -0.45593999997E+02  0.45594000000E+02  0.51100000000E-03 0.  1.
    9900012    2    1    2    0    0  0.55394317347E+01  0.13775037616E+02 -0.11412396253E+02  0.72461554702E+02  0.69999979688E+02 0.  0.
         12    1    1    2    0    0 -0.55394317347E+01 -0.13775037616E+02  0.11412396253E+02  0.18726445298E+02  0.00000000000E+00 0. -1.
         11    1    3    3    0    0  0.10704026826E+02  0.61169541510E+00  0.12092884084E+02  0.16161318242E+02  0.51100000000E-03 0.  1.
        -11    1    3    3    0    0  0.76106562689E+01  0.51661067301E+01  0.13504260406E+02  0.16339394021E+02  0.51100000000E-03 0. -1.
        -12    1    3    3    0    0 -0.12775251360E+02  0.79972354710E+01 -0.37009540743E+02  0.39960842440E+02  0.00000000000E+00 0.  1.
</event>
<event>
 7    1  0.2941727E-013  0.7246158E+02  0.7816164E-02  0.1226708E+00
        -11   -1    0    0    0    0  0.00000000000E+00  0.00000000000E+00  0.45593999997E+02  0.45594000000E+02  0.51100000000E-03 0.  1.
         11   -1    0    0    0    0 -0.00000000000E+00 -0.00000000000E+00 -0.45593999997E+02  0.45594000000E+02  0.51100000000E-03 0. -1.
    9900012    2    1    2    0    0 -0.18416038703E+02  0.33918743464E+01 -0.15332427484E+00  0.72461580123E+02  0.70000012804E+02 0.  0.
         12    1    1    2    0    0  0.18416038703E+02 -0.33918743464E+01  0.15332427484E+00  0.18726419877E+02  0.00000000000E+00 0. -1.
         11    1    3    3    0    0 -0.87455178424E+01 -0.22065019002E+02 -0.55301842470E+01  0.24370721860E+02  0.51100000000E-03 0. -1.
        -11    1    3    3    0    0 -0.41415563713E+01 -0.86927663164E+01  0.91604260189E+01  0.13290224999E+02  0.51100000000E-03 0.  1.
        -12    1    3    3    0    0 -0.55289644890E+01  0.34149659665E+02 -0.37835660467E+01  0.34800633264E+02  0.00000000000E+00 0.  1.
</event>
<event>
 7    1  0.2941727E-013  0.7246159E+02  0.7816164E-02  0.1226708E+00
        -11   -1    0    0    0    0  0.00000000000E+00  0.00000000000E+00  0.45593999997E+02  0.45594000000E+02  0.51100000000E-03 0.  1.
         11   -1    0    0    0    0 -0.00000000000E+00 -0.00000000000E+00 -0.45593999997E+02  0.45594000000E+02  0.51100000000E-03 0. -1.
    9900012    2    1    2    0    0  0.18648277833E+02 -0.89144136277E+00  0.14578538893E+01  0.72461594264E+02  0.70000031225E+02 0.  0.
         12    1    1    2    0    0 -0.18648277833E+02  0.89144136277E+00 -0.14578538893E+01  0.18726405736E+02  0.00000000000E+00 0. -1.
         11    1    3    3    0    0  0.81623318347E+01 -0.28597730247E+01 -0.19992399533E+01  0.88768757671E+01  0.51100000000E-03 0. -1.
        -11    1    3    3    0    0  0.27683228395E+02 -0.20514508305E+02  0.66750630434E+01  0.35096476351E+02  0.51100000000E-03 0.  1.
         12    1    3    3    0    0 -0.17197282397E+02  0.22482839967E+02 -0.32179692007E+01  0.28488242146E+02  0.00000000000E+00 0. -1.
</event>
<event>
 7    1  0.2941727E-013  0.7246156E+02  0.7816164E-02  0.1226708E+00
        -11   -1    0    0    0    0  0.00000000000E+00  0.00000000000E+00  0.45593999997E+02  0.45594000000E+02  0.51100000000E-03 0.  1.
         11   -1    0    0    0    0 -0.00000000000E+00 -0.00000000000E+00 -0.45593999997E+02  0.45594000000E+02  0.51100000000E-03 0. -1.
    9900012    2    1    2    0    0 -0.14466635730E+01 -0.14463800769E+02  0.11806148473E+02  0.72461561205E+02  0.69999988159E+02 0.  0.
         12    1    1    2    0    0  0.14466635730E+01  0.14463800769E+02 -0.11806148473E+02  0.18726438795E+02  0.00000000000E+00 0. -1.
         11    1    3    3    0    0  0.70782714488E+01 -0.96426474039E+01 -0.17534890817E+02  0.21226280218E+02  0.51100000000E-03 0. -1.
        -11    1    3    3    0    0 -0.97369678286E+01  0.14609736544E+02  0.19995438279E+01  0.17670628743E+02  0.51100000000E-03 0.  1.
         12    1    3    3    0    0  0.12120328068E+01 -0.19430889909E+02  0.27341495462E+02  0.33564652244E+02  0.00000000000E+00 0. -1.
</event>
<event>
 7    1  0.2941727E-013  0.7246154E+02  0.7816164E-02  0.1226708E+00
        -11   -1    0    0    0    0  0.00000000000E+00  0.00000000000E+00  0.45593999997E+02  0.45594000000E+02  0.51100000000E-03 0.  1.
         11   -1    0    0    0    0 -0.00000000000E+00 -0.00000000000E+00 -0.45593999997E+02  0.45594000000E+02  0.51100000000E-03 0. -1.
    9900012    2    1    2    0    0  0.11805235351E+02 -0.13570633137E+02 -0.52109933909E+01  0.72461544982E+02  0.69999967026E+02 0.  0.
         12    1    1    2    0    0 -0.11805235351E+02  0.13570633137E+02  0.52109933909E+01  0.18726455018E+02  0.00000000000E+00 0. -1.
         11    1    3    3    0    0 -0.18916240851E+02 -0.33562060211E+01 -0.15574789120E+02  0.24731808329E+02  0.51100000000E-03 0. -1.
        -11    1    3    3    0    0 -0.62357693480E+01 -0.45134190376E+01 -0.26414613283E+01  0.81383713961E+01  0.51100000000E-03 0.  1.
        -12    1    3    3    0    0  0.36957245550E+02 -0.57010080783E+01  0.13005257058E+02  0.39591365257E+02  0.00000000000E+00 0.  1.
</event>
<event>
 7    1  0.2941727E-013  0.7246158E+02  0.7816164E-02  0.1226708E+00
        -11   -1    0    0    0    0  0.00000000000E+00  0.00000000000E+00  0.45593999997E+02  0.45594000000E+02  0.51100000000E-03 0. -1.
         11   -1    0    0    0    0 -0.00000000000E+00 -0.00000000000E+00 -0.45593999997E+02  0.45594000000E+02  0.51100000000E-03 0.  1.
    9900012    2    1    2    0    0 -0.69227041349E+01  0.14679909058E+02 -0.93410456221E+01  0.72461582942E+02  0.70000016476E+02 0.  0.
         12    1    1    2    0    0  0.69227041349E+01 -0.14679909058E+02  0.93410456221E+01  0.18726417058E+02  0.00000000000E+00 0. -1.
         11    1    3    3    0    0 -0.75300743248E+01  0.35006861565E+01 -0.19828852644E+01  0.85374854105E+01  0.51100000000E-03 0. -1.
        -11    1    3    3    0    0  0.11065826135E+01  0.36202585386E+02  0.39988324353E+01  0.36439571551E+02  0.51100000000E-03 0.  1.
         12    1    3    3    0    0 -0.49921242368E+00 -0.25023362484E+02 -0.11356992793E+02  0.27484525980E+02  0.00000000000E+00 0. -1.
</event>
<event>
 7    1  0.2941727E-013  0.7246156E+02  0.7816164E-02  0.1226708E+00
        -11   -1    0    0    0    0  0.00000000000E+00  0.00000000000E+00  0.45593999997E+02  0.45594000000E+02  0.51100000000E-03 0.  1.
         11   -1    0    0    0    0 -0.00000000000E+00 -0.00000000000E+00 -0.45593999997E+02  0.45594000000E+02  0.51100000000E-03 0. -1.
    9900012    2    1    2    0    0  0.16398105910E+02 -0.89530357596E+01  0.12747358683E+01  0.72461556711E+02  0.69999982305E+02 0.  0.
         12    1    1    2    0    0 -0.16398105910E+02  0.89530357596E+01 -0.12747358683E+01  0.18726443289E+02  0.00000000000E+00 0. -1.
         11    1    3    3    0    0  0.15065710363E+02  0.18575751018E+02  0.19772696903E+02  0.31032139754E+02  0.51100000000E-03 0. -1.
        -11    1    3    3    0    0  0.48160248193E+01  0.32149421514E+01 -0.50865865193E+01  0.77073543305E+01  0.51100000000E-03 0.  1.
         12    1    3    3    0    0 -0.34836292728E+01 -0.30743728929E+02 -0.13411374516E+02  0.33722062626E+02  0.00000000000E+00 0. -1.
</event>
<event>
 7    1  0.2941727E-013  0.7246156E+02  0.7816164E-02  0.1226708E+00
        -11   -1    0    0    0    0  0.00000000000E+00  0.00000000000E+00  0.45593999997E+02  0.45594000000E+02  0.51100000000E-03 0.  1.
         11   -1    0    0    0    0 -0.00000000000E+00 -0.00000000000E+00 -0.45593999997E+02  0.45594000000E+02  0.51100000000E-03 0. -1.
    9900012    2    1    2    0    0  0.13653617472E+02 -0.47029611794E+01  0.11922260088E+02  0.72461564153E+02  0.69999991999E+02 0.  0.
         12    1    1    2    0    0 -0.13653617472E+02  0.47029611794E+01 -0.11922260088E+02  0.18726435847E+02  0.00000000000E+00 0. -1.
         11    1    3    3    0    0 -0.37900960470E+01  0.14761177642E+02 -0.20068404157E+02  0.25199167428E+02  0.51100000000E-03 0. -1.
        -11    1    3    3    0    0 -0.45435908657E+01 -0.90108535480E+01  0.64469725522E+01  0.11975105635E+02  0.51100000000E-03 0.  1.
        -12    1    3    3    0    0  0.21987304385E+02 -0.10453285273E+02  0.25543691693E+02  0.35287291089E+02  0.00000000000E+00 0.  1.
</event>
<event>
 7    1  0.2941727E-013  0.7246141E+02  0.7816164E-02  0.1226708E+00
        -11   -1    0    0    0    0  0.00000000000E+00  0.00000000000E+00  0.45593999997E+02  0.45594000000E+02  0.51100000000E-03 0. -1.
         11   -1    0    0    0    0 -0.00000000000E+00 -0.00000000000E+00 -0.45593999997E+02  0.45594000000E+02  0.51100000000E-03 0.  1.
    9900012    2    1    2    0    0 -0.10053098792E+02  0.54553872036E+01 -0.14827650548E+02  0.72461407528E+02  0.69999787966E+02 0.  0.
         12    1    1    2    0    0  0.10053098792E+02 -0.54553872036E+01  0.14827650548E+02  0.18726592472E+02  0.00000000000E+00 0. -1.
         11    1    3    3    0    0 -0.57775382977E+01 -0.22295714112E+00 -0.49199642738E+01  0.75918184504E+01  0.51100000000E-03 0. -1.
        -11    1    3    3    0    0 -0.11159752524E+02 -0.34591933408E+00 -0.35751576207E+02  0.37454438163E+02  0.51100000000E-03 0.  1.
         12    1    3    3    0    0  0.68841920298E+01  0.60242636788E+01  0.25843889933E+02  0.27415150914E+02  0.00000000000E+00 0. -1.
</event>
<event>
 7    1  0.2941727E-013  0.7246158E+02  0.7816164E-02  0.1226708E+00
        -11   -1    0    0    0    0  0.00000000000E+00  0.00000000000E+00  0.45593999997E+02  0.45594000000E+02  0.51100000000E-03 0.  1.
         11   -1    0    0    0    0 -0.00000000000E+00 -0.00000000000E+00 -0.45593999997E+02  0.45594000000E+02  0.51100000000E-03 0. -1.
    9900012    2    1    2    0    0  0.12410257473E+02  0.13665319748E+02  0.31501379467E+01  0.72461579535E+02  0.70000012038E+02 0.  0.
         12    1    1    2    0    0 -0.12410257473E+02 -0.13665319748E+02 -0.31501379467E+01  0.18726420465E+02  0.00000000000E+00 0. -1.
         11    1    3    3    0    0  0.12071959546E+01 -0.70666923805E+01 -0.60013937625E+01  0.93494486804E+01  0.51100000000E-03 0. -1.
        -11    1    3    3    0    0 -0.17212833718E+02  0.52483192191E+01  0.21887693364E+02  0.28335448122E+02  0.51100000000E-03 0.  1.
         12    1    3    3    0    0  0.28415895236E+02  0.15483692909E+02 -0.12736161655E+02  0.34776682732E+02  0.00000000000E+00 0. -1.
</event>
<event>
 7    1  0.2941727E-013  0.7246156E+02  0.7816164E-02  0.1226708E+00
        -11   -1    0    0    0    0  0.00000000000E+00  0.00000000000E+00  0.45593999997E+02  0.45594000000E+02  0.51100000000E-03 0.  1.
         11   -1    0    0    0    0 -0.00000000000E+00 -0.00000000000E+00 -0.45593999997E+02  0.45594000000E+02  0.51100000000E-03 0. -1.
    9900012    2    1    2    0    0  0.38942611755E+01  0.60324897096E+01  0.17295180747E+02  0.72461562024E+02  0.69999989227E+02 0.  0.
         12    1    1    2    0    0 -0.38942611755E+01 -0.60324897096E+01 -0.17295180747E+02  0.18726437976E+02  0.00000000000E+00 0. -1.
         11    1    3    3    0    0  0.26807389183E+02 -0.10482124924E+02  0.86327807173E+01  0.30050556749E+02  0.51100000000E-03 0. -1.
        -11    1    3    3    0    0  0.18549550568E+01  0.12530333135E+01  0.12827947420E+02  0.13021796574E+02  0.51100000000E-03 0.  1.
        -12    1    3    3    0    0 -0.24768083064E+02  0.15261581320E+02 -0.41655473902E+01  0.29389208702E+02  0.00000000000E+00 0.  1.
</event>
<event>
 7    1  0.2941727E-013  0.7246157E+02  0.7816164E-02  0.1226708E+00
        -11   -1    0    0    0    0  0.00000000000E+00  0.00000000000E+00  0.45593999997E+02  0.45594000000E+02  0.51100000000E-03 0.  1.
         11   -1    0    0    0    0 -0.00000000000E+00 -0.00000000000E+00 -0.45593999997E+02  0.45594000000E+02  0.51100000000E-03 0. -1.
    9900012    2    1    2    0    0 -0.60727012154E+01 -0.13948682741E+02  0.10919511349E+02  0.72461570058E+02  0.69999999693E+02 0.  0.
         12    1    1    2    0    0  0.60727012154E+01  0.13948682741E+02 -0.10919511349E+02  0.18726429942E+02  0.00000000000E+00 0. -1.
         11    1    3    3    0    0  0.17844181271E+02 -0.97240872035E+01  0.24419782428E+02  0.31769457838E+02  0.51100000000E-03 0.  1.
        -11    1    3    3    0    0 -0.74700154544E+01 -0.13052742923E+02  0.35037971239E+01  0.15441885352E+02  0.51100000000E-03 0. -1.
         12    1    3    3    0    0 -0.16446867032E+02  0.88281473853E+01 -0.17004068203E+02  0.25250226868E+02  0.00000000000E+00 0. -1.
</event>
<event>
 7    1  0.2941727E-013  0.7246163E+02  0.7816164E-02  0.1226708E+00
        -11   -1    0    0    0    0  0.00000000000E+00  0.00000000000E+00  0.45593999997E+02  0.45594000000E+02  0.51100000000E-03 0.  1.
         11   -1    0    0    0    0 -0.00000000000E+00 -0.00000000000E+00 -0.45593999997E+02  0.45594000000E+02  0.51100000000E-03 0. -1.
    9900012    2    1    2    0    0 -0.12646328396E+02  0.13537069690E+02 -0.27377398271E+01  0.72461625629E+02  0.70000072084E+02 0.  0.
         12    1    1    2    0    0  0.12646328396E+02 -0.13537069690E+02  0.27377398271E+01  0.18726374371E+02  0.00000000000E+00 0. -1.
         11    1    3    3    0    0 -0.68351940627E+01 -0.76805521868E+01 -0.21106939397E+02  0.23477939662E+02  0.51100000000E-03 0. -1.
        -11    1    3    3    0    0 -0.17724247376E+02 -0.28313720542E+01  0.34495007576E+01  0.18277436048E+02  0.51100000000E-03 0.  1.
        -12    1    3    3    0    0  0.11913113042E+02  0.24048993931E+02  0.14919698813E+02  0.30706249920E+02  0.00000000000E+00 0.  1.
</event>
<event>
 7    1  0.2941727E-013  0.7246157E+02  0.7816164E-02  0.1226708E+00
        -11   -1    0    0    0    0  0.00000000000E+00  0.00000000000E+00  0.45593999997E+02  0.45594000000E+02  0.51100000000E-03 0.  1.
         11   -1    0    0    0    0 -0.00000000000E+00 -0.00000000000E+00 -0.45593999997E+02  0.45594000000E+02  0.51100000000E-03 0. -1.
    9900012    2    1    2    0    0  0.12892725911E+02  0.11528969420E+02  0.71791073659E+01  0.72461572154E+02  0.70000002422E+02 0.  0.
         12    1    1    2    0    0 -0.12892725911E+02 -0.11528969420E+02 -0.71791073659E+01  0.18726427846E+02  0.00000000000E+00 0. -1.
         11    1    3    3    0    0  0.25846155021E+02  0.18680684037E+02  0.42355489699E+01  0.32170352202E+02  0.51100000000E-03 0. -1.
        -11    1    3    3    0    0  0.12898095101E+02 -0.14017131473E+01  0.45767703011E+01  0.13757633650E+02  0.51100000000E-03 0.  1.
        -12    1    3    3    0    0 -0.25851524211E+02 -0.57500014694E+01 -0.16332119051E+01  0.26533586302E+02  0.00000000000E+00 0.  1.
</event>
<event>
 7    1  0.2941727E-013  0.7246155E+02  0.7816164E-02  0.1226708E+00
        -11   -1    0    0    0    0  0.00000000000E+00  0.00000000000E+00  0.45593999997E+02  0.45594000000E+02  0.51100000000E-03 0. -1.
         11   -1    0    0    0    0 -0.00000000000E+00 -0.00000000000E+00 -0.45593999997E+02  0.45594000000E+02  0.51100000000E-03 0.  1.
    9900012    2    1    2    0    0  0.29062571402E+01  0.49952065247E+01 -0.17812400941E+02  0.72461546890E+02  0.69999969512E+02 0.  0.
         12    1    1    2    0    0 -0.29062571402E+01 -0.49952065247E+01  0.17812400941E+02  0.18726453110E+02  0.00000000000E+00 0. -1.
         11    1    3    3    0    0  0.16234977518E+01  0.79861901988E+01  0.21128061211E+02  0.22645307453E+02  0.51100000000E-03 0. -1.
        -11    1    3    3    0    0 -0.10259386701E+02 -0.52484787364E+01 -0.28687161226E+01  0.11875650592E+02  0.51100000000E-03 0.  1.
        -12    1    3    3    0    0  0.11542146090E+02  0.22574950623E+01 -0.36071746029E+02  0.37940588845E+02  0.00000000000E+00 0.  1.
</event>
<event>
 7    1  0.2941727E-013  0.7246156E+02  0.7816164E-02  0.1226708E+00
        -11   -1    0    0    0    0  0.00000000000E+00  0.00000000000E+00  0.45593999997E+02  0.45594000000E+02  0.51100000000E-03 0.  1.
         11   -1    0    0    0    0 -0.00000000000E+00 -0.00000000000E+00 -0.45593999997E+02  0.45594000000E+02  0.51100000000E-03 0. -1.
    9900012    2    1    2    0    0  0.17097390668E+02  0.19873344873E+01  0.73762653206E+01  0.72461559973E+02  0.69999986554E+02 0.  0.
         12    1    1    2    0    0 -0.17097390668E+02 -0.19873344873E+01 -0.73762653206E+01  0.18726440027E+02  0.00000000000E+00 0. -1.
         11    1    3    3    0    0  0.28981683071E+02 -0.62158707013E+01  0.12776443412E+02  0.32277120515E+02  0.51100000000E-03 0. -1.
        -11    1    3    3    0    0  0.12217688337E+02 -0.24453651043E+01  0.24328228662E+01  0.12695288345E+02  0.51100000000E-03 0.  1.
         12    1    3    3    0    0 -0.24101980741E+02  0.10648570293E+02 -0.78330009579E+01  0.27489151113E+02  0.00000000000E+00 0. -1.
</event>
<event>
 7    1  0.2941727E-013  0.7246161E+02  0.7816164E-02  0.1226708E+00
        -11   -1    0    0    0    0  0.00000000000E+00  0.00000000000E+00  0.45593999997E+02  0.45594000000E+02  0.51100000000E-03 0. -1.
         11   -1    0    0    0    0 -0.00000000000E+00 -0.00000000000E+00 -0.45593999997E+02  0.45594000000E+02  0.51100000000E-03 0.  1.
    9900012    2    1    2    0    0  0.11786493065E+02  0.92805670138E+01 -0.11208365629E+02  0.72461606782E+02  0.70000047532E+02 0.  0.
         12    1    1    2    0    0 -0.11786493065E+02 -0.92805670138E+01  0.11208365629E+02  0.18726393218E+02  0.00000000000E+00 0. -1.
         11    1    3    3    0    0  0.18782244108E+00  0.16030595997E+02  0.28197153305E+01  0.16277778721E+02  0.51100000000E-03 0. -1.
        -11    1    3    3    0    0 -0.43367407303E+01  0.19449724437E+02 -0.15853271746E+02  0.25464196947E+02  0.51100000000E-03 0.  1.
         12    1    3    3    0    0  0.15935411354E+02 -0.26199753421E+02  0.18251907864E+01  0.30719631113E+02  0.00000000000E+00 0. -1.
</event>
<event>
 7    1  0.2941727E-013  0.7246162E+02  0.7816164E-02  0.1226708E+00
        -11   -1    0    0    0    0  0.00000000000E+00  0.00000000000E+00  0.45593999997E+02  0.45594000000E+02  0.51100000000E-03 0.  1.
         11   -1    0    0    0    0 -0.00000000000E+00 -0.00000000000E+00 -0.45593999997E+02  0.45594000000E+02  0.51100000000E-03 0. -1.
    9900012    2    1    2    0    0 -0.65627959585E+01 -0.17434526822E+02  0.19089958427E+01  0.72461620707E+02  0.70000065672E+02 0.  0.
         12    1    1    2    0    0  0.65627959585E+01  0.17434526822E+02 -0.19089958427E+01  0.18726379293E+02  0.00000000000E+00 0. -1.
         11    1    3    3    0    0 -0.13679081497E+02 -0.90095998747E+01  0.19992805850E+02  0.25845743296E+02  0.51100000000E-03 0. -1.
        -11    1    3    3    0    0  0.54515166922E+01  0.59105392566E+00  0.13052615044E+02  0.14157653009E+02  0.51100000000E-03 0.  1.
         12    1    3    3    0    0  0.16647688461E+01 -0.90159808726E+01 -0.31136425051E+02  0.32458224402E+02  0.00000000000E+00 0. -1.
</event>
<event>
 7    1  0.2941727E-013  0.7246161E+02  0.7816164E-02  0.1226708E+00
        -11   -1    0    0    0    0  0.00000000000E+00  0.00000000000E+00  0.45593999997E+02  0.45594000000E+02  0.51100000000E-03 0.  1.
         11   -1    0    0    0    0 -0.00000000000E+00 -0.00000000000E+00 -0.45593999997E+02  0.45594000000E+02  0.51100000000E-03 0. -1.
    9900012    2    1    2    0    0  0.11422673794E+01 -0.16493531885E+02 -0.87940961358E+01  0.72461614987E+02  0.70000058220E+02 0.  0.
         12    1    1    2    0    0 -0.11422673794E+01  0.16493531885E+02  0.87940961358E+01  0.18726385013E+02  0.00000000000E+00 0. -1.
         11    1    3    3    0    0  0.27925412879E+01  0.96288338665E+01 -0.52768605728E+01  0.11329518359E+02  0.51100000000E-03 0. -1.
        -11    1    3    3    0    0 -0.17203875719E+02  0.11012385998E+02 -0.42541664420E+01  0.20864896777E+02  0.51100000000E-03 0.  1.
         12    1    3    3    0    0  0.15553601811E+02 -0.37134751749E+02  0.73693087893E+00  0.40267199852E+02  0.00000000000E+00 0. -1.
</event>
<event>
 7    1  0.2941727E-013  0.7246181E+02  0.7816164E-02  0.1226707E+00
        -11   -1    0    0    0    0  0.00000000000E+00  0.00000000000E+00  0.45593999997E+02  0.45594000000E+02  0.51100000000E-03 0.  1.
         11   -1    0    0    0    0 -0.00000000000E+00 -0.00000000000E+00 -0.45593999997E+02  0.45594000000E+02  0.51100000000E-03 0. -1.
    9900012    2    1    2    0    0  0.12153170587E+02 -0.14170267838E+02  0.14744659643E+01  0.72461812567E+02  0.70000315604E+02 0.  0.
         12    1    1    2    0    0 -0.12153170587E+02  0.14170267838E+02 -0.14744659643E+01  0.18726187433E+02  0.00000000000E+00 0. -1.
         11    1    3    3    0    0  0.24388381608E+02 -0.30497184542E+01 -0.18977820813E+02  0.31052401247E+02  0.51100000000E-03 0. -1.
        -11    1    3    3    0    0  0.68855033735E+01 -0.13616302188E+02  0.33203150595E+01  0.15615323703E+02  0.51100000000E-03 0.  1.
         12    1    3    3    0    0 -0.19120714395E+02  0.24957528045E+01  0.17131971718E+02  0.25794087617E+02  0.00000000000E+00 0. -1.
</event>
<event>
 7    1  0.2941727E-013  0.7246155E+02  0.7816164E-02  0.1226708E+00
        -11   -1    0    0    0    0  0.00000000000E+00  0.00000000000E+00  0.45593999997E+02  0.45594000000E+02  0.51100000000E-03 0.  1.
         11   -1    0    0    0    0 -0.00000000000E+00 -0.00000000000E+00 -0.45593999997E+02  0.45594000000E+02  0.51100000000E-03 0. -1.
    9900012    2    1    2    0    0  0.11471488227E+02 -0.12391148591E+02 -0.80959468567E+01  0.72461549160E+02  0.69999972469E+02 0.  0.
         12    1    1    2    0    0 -0.11471488227E+02  0.12391148591E+02  0.80959468567E+01  0.18726450840E+02  0.00000000000E+00 0. -1.
         11    1    3    3    0    0  0.27225402168E+02 -0.44324577200E+01 -0.23772111916E+02  0.36414042756E+02  0.51100000000E-03 0. -1.
        -11    1    3    3    0    0  0.84012913978E+00  0.42924638632E+01  0.14766801086E+02  0.15400957034E+02  0.51100000000E-03 0.  1.
        -12    1    3    3    0    0 -0.16594043080E+02 -0.12251154734E+02  0.90936397276E+00  0.20646549370E+02  0.00000000000E+00 0.  1.
</event>
<event>
 7    1  0.2941727E-013  0.7246158E+02  0.7816164E-02  0.1226708E+00
        -11   -1    0    0    0    0  0.00000000000E+00  0.00000000000E+00  0.45593999997E+02  0.45594000000E+02  0.51100000000E-03 0.  1.
         11   -1    0    0    0    0 -0.00000000000E+00 -0.00000000000E+00 -0.45593999997E+02  0.45594000000E+02  0.51100000000E-03 0. -1.
    9900012    2    1    2    0    0 -0.16266255759E+02  0.85094609478E+01  0.36982361751E+01  0.72461576080E+02  0.70000007536E+02 0.  0.
         12    1    1    2    0    0  0.16266255759E+02 -0.85094609478E+01 -0.36982361751E+01  0.18726423920E+02  0.00000000000E+00 0. -1.
         11    1    3    3    0    0 -0.92329897895E+01 -0.37512057430E+01  0.10096743324E+01  0.10016940027E+02  0.51100000000E-03 0. -1.
        -11    1    3    3    0    0  0.18849767772E+02 -0.15501299778E+02  0.19275739507E+01  0.24481004503E+02  0.51100000000E-03 0.  1.
         12    1    3    3    0    0 -0.25883033742E+02  0.27761966469E+02  0.76098789206E+00  0.37963631550E+02  0.00000000000E+00 0. -1.
</event>
<event>
 7    1  0.2941727E-013  0.7246154E+02  0.7816164E-02  0.1226708E+00
        -11   -1    0    0    0    0  0.00000000000E+00  0.00000000000E+00  0.45593999997E+02  0.45594000000E+02  0.51100000000E-03 0. -1.
         11   -1    0    0    0    0 -0.00000000000E+00 -0.00000000000E+00 -0.45593999997E+02  0.45594000000E+02  0.51100000000E-03 0.  1.
    9900012    2    1    2    0    0  0.11992588673E+02 -0.76302115203E+01 -0.12191711610E+02  0.72461544305E+02  0.69999966144E+02 0.  0.
         12    1    1    2    0    0 -0.11992588673E+02  0.76302115203E+01  0.12191711610E+02  0.18726455695E+02  0.00000000000E+00 0. -1.
         11    1    3    3    0    0 -0.11790777527E+02 -0.10265457021E+01  0.21141794196E+02  0.24229149652E+02  0.51100000000E-03 0. -1.
        -11    1    3    3    0    0 -0.44771875451E+01 -0.38814674737E+01 -0.28497209175E+01  0.65750975379E+01  0.51100000000E-03 0.  1.
        -12    1    3    3    0    0  0.28260553745E+02 -0.27221983445E+01 -0.30483784888E+02  0.41657297115E+02  0.00000000000E+00 0.  1.
</event>
<event>
 7    1  0.2941727E-013  0.7246154E+02  0.7816164E-02  0.1226708E+00
        -11   -1    0    0    0    0  0.00000000000E+00  0.00000000000E+00  0.45593999997E+02  0.45594000000E+02  0.51100000000E-03 0.  1.
         11   -1    0    0    0    0 -0.00000000000E+00 -0.00000000000E+00 -0.45593999997E+02  0.45594000000E+02  0.51100000000E-03 0. -1.
    9900012    2    1    2    0    0  0.15093898829E+02 -0.10923723185E+02  0.18779571757E+01  0.72461541893E+02  0.69999963002E+02 0.  0.
         12    1    1    2    0    0 -0.15093898829E+02  0.10923723185E+02 -0.18779571757E+01  0.18726458107E+02  0.00000000000E+00 0. -1.
         11    1    3    3    0    0  0.32766309539E+02  0.11055145840E+02 -0.84574165162E+01  0.35600213268E+02  0.51100000000E-03 0. -1.
        -11    1    3    3    0    0  0.32003195232E+01 -0.71732337960E+01 -0.24856473334E+01  0.82386753225E+01  0.51100000000E-03 0.  1.
        -12    1    3    3    0    0 -0.20872730234E+02 -0.14805635229E+02  0.12821021025E+02  0.28622653302E+02  0.00000000000E+00 0.  1.
</event>
<event>
 7    1  0.2941727E-013  0.7246159E+02  0.7816164E-02  0.1226708E+00
        -11   -1    0    0    0    0  0.00000000000E+00  0.00000000000E+00  0.45593999997E+02  0.45594000000E+02  0.51100000000E-03 0.  1.
         11   -1    0    0    0    0 -0.00000000000E+00 -0.00000000000E+00 -0.45593999997E+02  0.45594000000E+02  0.51100000000E-03 0. -1.
    9900012    2    1    2    0    0  0.17720131272E+01  0.13308299474E+02  0.13054794301E+02  0.72461587646E+02  0.70000022604E+02 0.  0.
         12    1    1    2    0    0 -0.17720131272E+01 -0.13308299474E+02 -0.13054794301E+02  0.18726412354E+02  0.00000000000E+00 0. -1.
         11    1    3    3    0    0 -0.40096249933E+01 -0.57978340580E+01 -0.47075321981E+01  0.84766049813E+01  0.51100000000E-03 0. -1.
        -11    1    3    3    0    0 -0.23612485118E+02  0.20887848938E+02  0.51225763312E+01  0.31938886568E+02  0.51100000000E-03 0.  1.
         12    1    3    3    0    0  0.29394123238E+02 -0.17817154063E+01  0.12639750168E+02  0.32046096097E+02  0.00000000000E+00 0. -1.
</event>
<event>
 7    1  0.2941727E-013  0.7246156E+02  0.7816164E-02  0.1226708E+00
        -11   -1    0    0    0    0  0.00000000000E+00  0.00000000000E+00  0.45593999997E+02  0.45594000000E+02  0.51100000000E-03 0.  1.
         11   -1    0    0    0    0 -0.00000000000E+00 -0.00000000000E+00 -0.45593999997E+02  0.45594000000E+02  0.51100000000E-03 0. -1.
    9900012    2    1    2    0    0 -0.17581282027E+02  0.10894230803E+01 -0.63554167727E+01  0.72461557660E+02  0.69999983541E+02 0.  0.
         12    1    1    2    0    0  0.17581282027E+02 -0.10894230803E+01  0.63554167727E+01  0.18726442340E+02  0.00000000000E+00 0. -1.
         11    1    3    3    0    0 -0.96927200039E+01  0.19373669000E+02  0.65320127744E+01  0.22626423994E+02  0.51100000000E-03 0. -1.
        -11    1    3    3    0    0 -0.21508436671E+02  0.39434815753E+01 -0.35988503431E+01  0.22161128559E+02  0.51100000000E-03 0.  1.
         12    1    3    3    0    0  0.13619874648E+02 -0.22227727495E+02 -0.92885792041E+01  0.27674005107E+02  0.00000000000E+00 0. -1.
</event>
<event>
 7    1  0.2941727E-013  0.7246146E+02  0.7816164E-02  0.1226708E+00
        -11   -1    0    0    0    0  0.00000000000E+00  0.00000000000E+00  0.45593999997E+02  0.45594000000E+02  0.51100000000E-03 0. -1.
         11   -1    0    0    0    0 -0.00000000000E+00 -0.00000000000E+00 -0.45593999997E+02  0.45594000000E+02  0.51100000000E-03 0.  1.
    9900012    2    1    2    0    0 -0.20639215611E+01  0.18462720509E+02 -0.23561285697E+01  0.72461463678E+02  0.69999861112E+02 0.  0.
         12    1    1    2    0    0  0.20639215611E+01 -0.18462720509E+02  0.23561285697E+01  0.18726536322E+02  0.00000000000E+00 0. -1.
         11    1    3    3    0    0 -0.11489250817E+02 -0.39264681102E+01  0.30639748482E+01  0.12522299241E+02  0.51100000000E-03 0. -1.
        -11    1    3    3    0    0  0.19162262369E+02  0.15484848903E+01  0.18551432062E+02  0.26716020220E+02  0.51100000000E-03 0.  1.
         12    1    3    3    0    0 -0.97369331137E+01  0.20840703729E+02 -0.23971535480E+02  0.33223144217E+02  0.00000000000E+00 0. -1.
</event>
<event>
 7    1  0.2941727E-013  0.7246167E+02  0.7816164E-02  0.1226708E+00
        -11   -1    0    0    0    0  0.00000000000E+00  0.00000000000E+00  0.45593999997E+02  0.45594000000E+02  0.51100000000E-03 0.  1.
         11   -1    0    0    0    0 -0.00000000000E+00 -0.00000000000E+00 -0.45593999997E+02  0.45594000000E+02  0.51100000000E-03 0. -1.
    9900012    2    1    2    0    0 -0.15088264248E+02  0.91718238889E+01  0.62367883910E+01  0.72461665578E+02  0.70000124124E+02 0.  0.
         12    1    1    2    0    0  0.15088264248E+02 -0.91718238889E+01 -0.62367883910E+01  0.18726334422E+02  0.00000000000E+00 0. -1.
         11    1    3    3    0    0 -0.10288208123E+02 -0.53037242768E+01 -0.22041548946E+02  0.24895915284E+02  0.51100000000E-03 0. -1.
        -11    1    3    3    0    0  0.13537214790E+01 -0.27530433212E+01 -0.71014727557E+01  0.77358079690E+01  0.51100000000E-03 0.  1.
        -12    1    3    3    0    0 -0.61537776037E+01  0.17228591487E+02  0.35379810093E+02  0.39829942325E+02  0.00000000000E+00 0.  1.
</event>
<event>
 7    1  0.2941727E-013  0.7246157E+02  0.7816164E-02  0.1226708E+00
        -11   -1    0    0    0    0  0.00000000000E+00  0.00000000000E+00  0.45593999997E+02  0.45594000000E+02  0.51100000000E-03 0.  1.
         11   -1    0    0    0    0 -0.00000000000E+00 -0.00000000000E+00 -0.45593999997E+02  0.45594000000E+02  0.51100000000E-03 0. -1.
    9900012    2    1    2    0    0 -0.17554584214E+02 -0.64930216853E+01 -0.59689156183E+00  0.72461573831E+02  0.70000004607E+02 0.  0.
         12    1    1    2    0    0  0.17554584214E+02  0.64930216853E+01  0.59689156183E+00  0.18726426169E+02  0.00000000000E+00 0. -1.
         11    1    3    3    0    0  0.12026357509E+02  0.26264423927E+01 -0.13381095107E+02  0.18182001570E+02  0.51100000000E-03 0. -1.
        -11    1    3    3    0    0  0.43425290856E+01 -0.69844119063E+01  0.18095246067E+02  0.19876556519E+02  0.51100000000E-03 0.  1.
        -12    1    3    3    0    0 -0.33923470809E+02 -0.21350521717E+01 -0.53110425226E+01  0.34403015742E+02  0.00000000000E+00 0.  1.
</event>
<event>
 7    1  0.2941727E-013  0.7246155E+02  0.7816164E-02  0.1226708E+00
        -11   -1    0    0    0    0  0.00000000000E+00  0.00000000000E+00  0.45593999997E+02  0.45594000000E+02  0.51100000000E-03 0. -1.
         11   -1    0    0    0    0 -0.00000000000E+00 -0.00000000000E+00 -0.45593999997E+02  0.45594000000E+02  0.51100000000E-03 0.  1.
    9900012    2    1    2    0    0 -0.16014473913E+02  0.95421484729E+01 -0.17787726211E+01  0.72461548008E+02  0.69999970968E+02 0.  0.
         12    1    1    2    0    0  0.16014473913E+02 -0.95421484729E+01  0.17787726211E+01  0.18726451992E+02  0.00000000000E+00 0. -1.
         11    1    3    3    0    0 -0.29463231571E+01  0.25961521670E+01  0.18413765603E+02  0.18827840825E+02  0.51100000000E-03 0. -1.
        -11    1    3    3    0    0  0.12054652765E+02 -0.12838149318E+02 -0.55615440930E+01  0.18467904703E+02  0.51100000000E-03 0.  1.
        -12    1    3    3    0    0 -0.25122803520E+02  0.19784145623E+02 -0.14630994131E+02  0.35165802479E+02  0.00000000000E+00 0.  1.
</event>
<event>
 7    1  0.2941727E-013  0.7246155E+02  0.7816164E-02  0.1226708E+00
        -11   -1    0    0    0    0  0.00000000000E+00  0.00000000000E+00  0.45593999997E+02  0.45594000000E+02  0.51100000000E-03 0.  1.
         11   -1    0    0    0    0 -0.00000000000E+00 -0.00000000000E+00 -0.45593999997E+02  0.45594000000E+02  0.51100000000E-03 0. -1.
    9900012    2    1    2    0    0 -0.18449145031E+02  0.21521140844E+01 -0.23827376613E+01  0.72461548490E+02  0.69999971596E+02 0.  0.
         12    1    1    2    0    0  0.18449145031E+02 -0.21521140844E+01  0.23827376613E+01  0.18726451510E+02  0.00000000000E+00 0. -1.
         11    1    3    3    0    0  0.96350645071E+01 -0.23592715766E+02 -0.11801044375E+01  0.25511631700E+02  0.51100000000E-03 0. -1.
        -11    1    3    3    0    0 -0.67241446178E+01 -0.30059136529E+01 -0.75805364428E+01  0.10569492455E+02  0.51100000000E-03 0.  1.
        -12    1    3    3    0    0 -0.21360064920E+02  0.28750743503E+02  0.63779032190E+01  0.36380424335E+02  0.00000000000E+00 0.  1.
</event>
<event>
 7    1  0.2941727E-013  0.7246162E+02  0.7816164E-02  0.1226708E+00
        -11   -1    0    0    0    0  0.00000000000E+00  0.00000000000E+00  0.45593999997E+02  0.45594000000E+02  0.51100000000E-03 0. -1.
         11   -1    0    0    0    0 -0.00000000000E+00 -0.00000000000E+00 -0.45593999997E+02  0.45594000000E+02  0.51100000000E-03 0.  1.
    9900012    2    1    2    0    0  0.11001697709E+02  0.10145103791E+02 -0.11256859370E+02  0.72461618441E+02  0.70000062720E+02 0.  0.
         12    1    1    2    0    0 -0.11001697709E+02 -0.10145103791E+02  0.11256859370E+02  0.18726381559E+02  0.00000000000E+00 0. -1.
         11    1    3    3    0    0  0.17190654930E+01 -0.16309352600E+02  0.11260319480E+02  0.19893339676E+02  0.51100000000E-03 0. -1.
        -11    1    3    3    0    0 -0.75984420436E+01 -0.17980740251E+01  0.53319049677E+01  0.94550834230E+01  0.51100000000E-03 0.  1.
        -12    1    3    3    0    0  0.16881074260E+02  0.28252530416E+02 -0.27849083819E+02  0.43113195342E+02  0.00000000000E+00 0.  1.
</event>
<event>
 7    1  0.2941727E-013  0.7246164E+02  0.7816164E-02  0.1226708E+00
        -11   -1    0    0    0    0  0.00000000000E+00  0.00000000000E+00  0.45593999997E+02  0.45594000000E+02  0.51100000000E-03 0.  1.
         11   -1    0    0    0    0 -0.00000000000E+00 -0.00000000000E+00 -0.45593999997E+02  0.45594000000E+02  0.51100000000E-03 0. -1.
    9900012    2    1    2    0    0 -0.12451473709E+02 -0.48682883679E+01  0.13112476943E+02  0.72461642086E+02  0.70000093522E+02 0.  0.
         12    1    1    2    0    0  0.12451473709E+02  0.48682883679E+01 -0.13112476943E+02  0.18726357914E+02  0.00000000000E+00 0. -1.
         11    1    3    3    0    0 -0.21515197267E+01  0.23446947777E+02 -0.16009494811E+02  0.28472659194E+02  0.51100000000E-03 0. -1.
        -11    1    3    3    0    0 -0.13546364195E+01  0.33765894652E+00 -0.79732076925E+00  0.16077232546E+01  0.51100000000E-03 0.  1.
        -12    1    3    3    0    0 -0.89453175628E+01 -0.28652895092E+02  0.29919292523E+02  0.42381259638E+02  0.00000000000E+00 0.  1.
</event>
<event>
 7    1  0.2941727E-013  0.7246148E+02  0.7816164E-02  0.1226708E+00
        -11   -1    0    0    0    0  0.00000000000E+00  0.00000000000E+00  0.45593999997E+02  0.45594000000E+02  0.51100000000E-03 0. -1.
         11   -1    0    0    0    0 -0.00000000000E+00 -0.00000000000E+00 -0.45593999997E+02  0.45594000000E+02  0.51100000000E-03 0.  1.
    9900012    2    1    2    0    0 -0.13876846706E+02  0.70436917571E+01 -0.10416429298E+02  0.72461482241E+02  0.69999885294E+02 0.  0.
         12    1    1    2    0    0  0.13876846706E+02 -0.70436917571E+01  0.10416429298E+02  0.18726517759E+02  0.00000000000E+00 0. -1.
         11    1    3    3    0    0 -0.21155601560E+02 -0.83142794538E+01  0.82308602789E+01  0.24175065282E+02  0.51100000000E-03 0. -1.
        -11    1    3    3    0    0 -0.12445150971E+02 -0.48328420012E+01  0.17458798902E+01  0.13464257920E+02  0.51100000000E-03 0.  1.
        -12    1    3    3    0    0  0.19723905825E+02  0.20190813212E+02 -0.20393169467E+02  0.34822159038E+02  0.00000000000E+00 0.  1.
</event>
<event>
 7    1  0.2941727E-013  0.7246155E+02  0.7816164E-02  0.1226708E+00
        -11   -1    0    0    0    0  0.00000000000E+00  0.00000000000E+00  0.45593999997E+02  0.45594000000E+02  0.51100000000E-03 0. -1.
         11   -1    0    0    0    0 -0.00000000000E+00 -0.00000000000E+00 -0.45593999997E+02  0.45594000000E+02  0.51100000000E-03 0.  1.
    9900012    2    1    2    0    0  0.15508427625E+02 -0.72417799334E+01 -0.75977102323E+01  0.72461550663E+02  0.69999974426E+02 0.  0.
         12    1    1    2    0    0 -0.15508427625E+02  0.72417799334E+01  0.75977102323E+01  0.18726449337E+02  0.00000000000E+00 0. -1.
         11    1    3    3    0    0 -0.91877915077E+01  0.86764822943E+01 -0.12705454733E+02  0.17919973159E+02  0.51100000000E-03 0. -1.
        -11    1    3    3    0    0  0.98667556578E+01  0.60643517309E+00 -0.19214985787E+02  0.21608709122E+02  0.51100000000E-03 0.  1.
        -12    1    3    3    0    0  0.14829463475E+02 -0.16524697401E+02  0.24322730289E+02  0.32932868382E+02  0.00000000000E+00 0.  1.
</event>
<event>
 7    1  0.2941727E-013  0.7246157E+02  0.7816164E-02  0.1226708E+00
        -11   -1    0    0    0    0  0.00000000000E+00  0.00000000000E+00  0.45593999997E+02  0.45594000000E+02  0.51100000000E-03 0. -1.
         11   -1    0    0    0    0 -0.00000000000E+00 -0.00000000000E+00 -0.45593999997E+02  0.45594000000E+02  0.51100000000E-03 0.  1.
    9900012    2    1    2    0    0 -0.48710135085E+01  0.78058377893E+01 -0.16310164193E+02  0.72461565951E+02  0.69999994342E+02 0.  0.
         12    1    1    2    0    0  0.48710135085E+01 -0.78058377893E+01  0.16310164193E+02  0.18726434049E+02  0.00000000000E+00 0. -1.
         11    1    3    3    0    0  0.16820880314E+02  0.11050659977E+02  0.13573246703E+02  0.24275339889E+02  0.51100000000E-03 0. -1.
        -11    1    3    3    0    0  0.45692930678E+01 -0.60112329934E+01 -0.17420391447E+02  0.18986400387E+02  0.51100000000E-03 0.  1.
        -12    1    3    3    0    0 -0.26261186890E+02  0.27664108061E+01 -0.12463019449E+02  0.29199825674E+02  0.00000000000E+00 0.  1.
</event>
<event>
 7    1  0.2941727E-013  0.7246159E+02  0.7816164E-02  0.1226708E+00
        -11   -1    0    0    0    0  0.00000000000E+00  0.00000000000E+00  0.45593999997E+02  0.45594000000E+02  0.51100000000E-03 0.  1.
         11   -1    0    0    0    0 -0.00000000000E+00 -0.00000000000E+00 -0.45593999997E+02  0.45594000000E+02  0.51100000000E-03 0. -1.
    9900012    2    1    2    0    0  0.47496719236E+01 -0.13622895507E+02  0.11938838215E+02  0.72461587549E+02  0.70000022477E+02 0.  0.
         12    1    1    2    0    0 -0.47496719236E+01  0.13622895507E+02 -0.11938838215E+02  0.18726412451E+02  0.00000000000E+00 0. -1.
         11    1    3    3    0    0 -0.37179663598E+01 -0.26928153099E+01  0.19673440232E+02  0.20201949881E+02  0.51100000000E-03 0. -1.
        -11    1    3    3    0    0  0.92873707121E+01 -0.15394728169E+02  0.18404722078E+02  0.25729102300E+02  0.51100000000E-03 0.  1.
         12    1    3    3    0    0 -0.81973242876E+00  0.44646479725E+01 -0.26139324095E+02  0.26530535368E+02  0.00000000000E+00 0. -1.
</event>
<event>
 7    1  0.2941727E-013  0.7246162E+02  0.7816164E-02  0.1226708E+00
        -11   -1    0    0    0    0  0.00000000000E+00  0.00000000000E+00  0.45593999997E+02  0.45594000000E+02  0.51100000000E-03 0.  1.
         11   -1    0    0    0    0 -0.00000000000E+00 -0.00000000000E+00 -0.45593999997E+02  0.45594000000E+02  0.51100000000E-03 0. -1.
    9900012    2    1    2    0    0  0.16004858315E+01 -0.18156979871E+02 -0.42941531980E+01  0.72461622224E+02  0.70000067648E+02 0.  0.
         12    1    1    2    0    0 -0.16004858315E+01  0.18156979871E+02  0.42941531980E+01  0.18726377776E+02  0.00000000000E+00 0. -1.
         11    1    3    3    0    0  0.67341258754E+01 -0.69878920716E+01 -0.26835833213E+02  0.28536661182E+02  0.51100000000E-03 0. -1.
        -11    1    3    3    0    0 -0.72616522072E+01 -0.56292512715E+01 -0.83820188589E+01  0.12436973228E+02  0.51100000000E-03 0.  1.
        -12    1    3    3    0    0  0.21280121633E+01 -0.55398365277E+01  0.30923698874E+02  0.31487987814E+02  0.00000000000E+00 0.  1.
</event>
<event>
 7    1  0.2941727E-013  0.7246156E+02  0.7816164E-02  0.1226708E+00
        -11   -1    0    0    0    0  0.00000000000E+00  0.00000000000E+00  0.45593999997E+02  0.45594000000E+02  0.51100000000E-03 0. -1.
         11   -1    0    0    0    0 -0.00000000000E+00 -0.00000000000E+00 -0.45593999997E+02  0.45594000000E+02  0.51100000000E-03 0.  1.
    9900012    2    1    2    0    0  0.14001490732E+02  0.94499339613E+01 -0.80830994980E+01  0.72461561682E+02  0.69999988780E+02 0.  0.
         12    1    1    2    0    0 -0.14001490732E+02 -0.94499339613E+01  0.80830994980E+01  0.18726438318E+02  0.00000000000E+00 0. -1.
         11    1    3    3    0    0 -0.16835341528E+00  0.34758032801E+01  0.43757405463E+00  0.35072813729E+01  0.51100000000E-03 0. -1.
        -11    1    3    3    0    0  0.82043995296E+01 -0.14719977332E+02 -0.32569798773E+02  0.36671265273E+02  0.51100000000E-03 0.  1.
         12    1    3    3    0    0  0.59654446178E+01  0.20694108014E+02  0.24049125220E+02  0.32283015036E+02  0.00000000000E+00 0. -1.
</event>
<event>
 7    1  0.2941727E-013  0.7246161E+02  0.7816164E-02  0.1226708E+00
        -11   -1    0    0    0    0  0.00000000000E+00  0.00000000000E+00  0.45593999997E+02  0.45594000000E+02  0.51100000000E-03 0. -1.
         11   -1    0    0    0    0 -0.00000000000E+00 -0.00000000000E+00 -0.45593999997E+02  0.45594000000E+02  0.51100000000E-03 0.  1.
    9900012    2    1    2    0    0 -0.86212055499E+01  0.34921496525E+01 -0.16252923232E+02  0.72461606650E+02  0.70000047360E+02 0.  0.
         12    1    1    2    0    0  0.86212055499E+01 -0.34921496525E+01  0.16252923232E+02  0.18726393350E+02  0.00000000000E+00 0. -1.
         11    1    3    3    0    0  0.93377887440E+01 -0.24458949634E+01 -0.12592708994E+02  0.15866726848E+02  0.51100000000E-03 0. -1.
        -11    1    3    3    0    0 -0.15870042462E+02  0.28594996103E+02 -0.74158370738E+01  0.33533963226E+02  0.51100000000E-03 0.  1.
         12    1    3    3    0    0 -0.20889518324E+01 -0.22656951487E+02  0.37556228356E+01  0.23060916576E+02  0.00000000000E+00 0. -1.
</event>
<event>
 7    1  0.2941727E-013  0.7246160E+02  0.7816164E-02  0.1226708E+00
        -11   -1    0    0    0    0  0.00000000000E+00  0.00000000000E+00  0.45593999997E+02  0.45594000000E+02  0.51100000000E-03 0. -1.
         11   -1    0    0    0    0 -0.00000000000E+00 -0.00000000000E+00 -0.45593999997E+02  0.45594000000E+02  0.51100000000E-03 0.  1.
    9900012    2    1    2    0    0 -0.16815142166E+02 -0.34587145055E+01 -0.74810740082E+01  0.72461596704E+02  0.70000034403E+02 0.  0.
         12    1    1    2    0    0  0.16815142166E+02  0.34587145055E+01  0.74810740082E+01  0.18726403296E+02  0.00000000000E+00 0. -1.
         11    1    3    3    0    0 -0.15562943349E+02 -0.44920869522E+01 -0.88562499277E+01  0.18461235438E+02  0.51100000000E-03 0. -1.
        -11    1    3    3    0    0 -0.29393782981E+01 -0.13758166950E+02 -0.22102654845E+02  0.26200275839E+02  0.51100000000E-03 0.  1.
         12    1    3    3    0    0  0.16871794810E+01  0.14791539397E+02  0.23477830764E+02  0.27800085426E+02  0.00000000000E+00 0. -1.
</event>
<event>
 7    1  0.2941727E-013  0.7246159E+02  0.7816164E-02  0.1226708E+00
        -11   -1    0    0    0    0  0.00000000000E+00  0.00000000000E+00  0.45593999997E+02  0.45594000000E+02  0.51100000000E-03 0. -1.
         11   -1    0    0    0    0 -0.00000000000E+00 -0.00000000000E+00 -0.45593999997E+02  0.45594000000E+02  0.51100000000E-03 0.  1.
    9900012    2    1    2    0    0 -0.15630928422E+02  0.94820848145E+01 -0.40549639018E+01  0.72461585821E+02  0.70000020226E+02 0.  0.
         12    1    1    2    0    0  0.15630928422E+02 -0.94820848145E+01  0.40549639018E+01  0.18726414179E+02  0.00000000000E+00 0. -1.
         11    1    3    3    0    0 -0.48207808727E+01  0.13755069389E+02 -0.17235656659E+02  0.22572322052E+02  0.51100000000E-03 0. -1.
        -11    1    3    3    0    0 -0.10482466637E+00 -0.18151864882E+01 -0.17348898553E+02  0.17443915026E+02  0.51100000000E-03 0.  1.
         12    1    3    3    0    0 -0.10705322883E+02 -0.24577980863E+01  0.30529591310E+02  0.32445348742E+02  0.00000000000E+00 0. -1.
</event>
<event>
 7    1  0.2941727E-013  0.7246157E+02  0.7816164E-02  0.1226708E+00
        -11   -1    0    0    0    0  0.00000000000E+00  0.00000000000E+00  0.45593999997E+02  0.45594000000E+02  0.51100000000E-03 0.  1.
         11   -1    0    0    0    0 -0.00000000000E+00 -0.00000000000E+00 -0.45593999997E+02  0.45594000000E+02  0.51100000000E-03 0. -1.
    9900012    2    1    2    0    0  0.29831637046E+01 -0.98870843168E+01  0.15621311465E+02  0.72461572849E+02  0.70000003328E+02 0.  0.
         12    1    1    2    0    0 -0.29831637046E+01  0.98870843168E+01 -0.15621311465E+02  0.18726427151E+02  0.00000000000E+00 0. -1.
         11    1    3    3    0    0 -0.75445508094E+00 -0.77427338873E-01  0.16452265548E+02  0.16469737077E+02  0.51100000000E-03 0. -1.
        -11    1    3    3    0    0  0.24919804071E+02 -0.18976149429E+02 -0.70127590613E+01  0.32097814132E+02  0.51100000000E-03 0.  1.
         12    1    3    3    0    0 -0.21182185286E+02  0.91664924515E+01  0.61818049776E+01  0.23894021640E+02  0.00000000000E+00 0. -1.
</event>
<event>
 7    1  0.2941727E-013  0.7246167E+02  0.7816164E-02  0.1226708E+00
        -11   -1    0    0    0    0  0.00000000000E+00  0.00000000000E+00  0.45593999997E+02  0.45594000000E+02  0.51100000000E-03 0.  1.
         11   -1    0    0    0    0 -0.00000000000E+00 -0.00000000000E+00 -0.45593999997E+02  0.45594000000E+02  0.51100000000E-03 0. -1.
    9900012    2    1    2    0    0 -0.18573779579E+02 -0.23841636130E+01  0.78054367918E-01  0.72461665161E+02  0.70000123582E+02 0.  0.
         12    1    1    2    0    0  0.18573779579E+02  0.23841636130E+01 -0.78054367918E-01  0.18726334839E+02  0.00000000000E+00 0. -1.
         11    1    3    3    0    0 -0.23943932385E+02 -0.33922908604E+01  0.10218015781E+02  0.26253140423E+02  0.51100000000E-03 0. -1.
        -11    1    3    3    0    0 -0.14161434577E+02  0.14870336837E+02 -0.84267458237E+01  0.22196468016E+02  0.51100000000E-03 0.  1.
         12    1    3    3    0    0  0.19531587383E+02 -0.13862209590E+02 -0.17132155894E+01  0.24012056722E+02  0.00000000000E+00 0. -1.
</event>
<event>
 7    1  0.2941727E-013  0.7246155E+02  0.7816164E-02  0.1226708E+00
        -11   -1    0    0    0    0  0.00000000000E+00  0.00000000000E+00  0.45593999997E+02  0.45594000000E+02  0.51100000000E-03 0.  1.
         11   -1    0    0    0    0 -0.00000000000E+00 -0.00000000000E+00 -0.45593999997E+02  0.45594000000E+02  0.51100000000E-03 0. -1.
    9900012    2    1    2    0    0  0.12445334696E+01  0.15285139842E+00  0.18684422631E+02  0.72461551427E+02  0.69999975422E+02 0.  0.
         12    1    1    2    0    0 -0.12445334696E+01 -0.15285139842E+00 -0.18684422631E+02  0.18726448573E+02  0.00000000000E+00 0. -1.
         11    1    3    3    0    0 -0.11702470206E+02 -0.12958257622E+02 -0.17128508099E+02  0.24459150424E+02  0.51100000000E-03 0. -1.
        -11    1    3    3    0    0  0.93481777927E+00 -0.35617782981E+01 -0.25522364464E+01  0.44804084707E+01  0.51100000000E-03 0.  1.
        -12    1    3    3    0    0  0.12012185896E+02  0.16672887318E+02  0.38365167176E+02  0.43521992532E+02  0.00000000000E+00 0.  1.
</event>
<event>
 7    1  0.2941727E-013  0.7246156E+02  0.7816164E-02  0.1226708E+00
        -11   -1    0    0    0    0  0.00000000000E+00  0.00000000000E+00  0.45593999997E+02  0.45594000000E+02  0.51100000000E-03 0.  1.
         11   -1    0    0    0    0 -0.00000000000E+00 -0.00000000000E+00 -0.45593999997E+02  0.45594000000E+02  0.51100000000E-03 0. -1.
    9900012    2    1    2    0    0 -0.48806391079E+01  0.18063948459E+02  0.74342033464E+00  0.72461560247E+02  0.69999986912E+02 0.  0.
         12    1    1    2    0    0  0.48806391079E+01 -0.18063948459E+02 -0.74342033464E+00  0.18726439753E+02  0.00000000000E+00 0. -1.
         11    1    3    3    0    0  0.85460187952E+01  0.13866296171E+02 -0.84491289153E-01  0.16288515764E+02  0.51100000000E-03 0. -1.
        -11    1    3    3    0    0  0.23814729180E+01  0.56871296006E+01  0.25829709543E+02  0.26555390257E+02  0.51100000000E-03 0.  1.
        -12    1    3    3    0    0 -0.15808130821E+02 -0.14894773130E+01 -0.25001797919E+02  0.29617654227E+02  0.00000000000E+00 0.  1.
</event>
<event>
 7    1  0.2941727E-013  0.7246161E+02  0.7816164E-02  0.1226708E+00
        -11   -1    0    0    0    0  0.00000000000E+00  0.00000000000E+00  0.45593999997E+02  0.45594000000E+02  0.51100000000E-03 0.  1.
         11   -1    0    0    0    0 -0.00000000000E+00 -0.00000000000E+00 -0.45593999997E+02  0.45594000000E+02  0.51100000000E-03 0. -1.
    9900012    2    1    2    0    0  0.15864285098E+02  0.72615190159E+01 -0.68024009433E+01  0.72461605294E+02  0.70000045594E+02 0.  0.
         12    1    1    2    0    0 -0.15864285098E+02 -0.72615190159E+01  0.68024009433E+01  0.18726394706E+02  0.00000000000E+00 0. -1.
         11    1    3    3    0    0  0.16136113055E+02 -0.20621511156E+02  0.45230835241E+01  0.26572149926E+02  0.51100000000E-03 0. -1.
        -11    1    3    3    0    0  0.12030168489E+02  0.13370986354E+02 -0.18269094476E+02  0.25637239383E+02  0.51100000000E-03 0.  1.
         12    1    3    3    0    0 -0.12301996447E+02  0.14512043818E+02  0.69436100084E+01  0.20252215985E+02  0.00000000000E+00 0. -1.
</event>
<event>
 7    1  0.2941727E-013  0.7246159E+02  0.7816164E-02  0.1226708E+00
        -11   -1    0    0    0    0  0.00000000000E+00  0.00000000000E+00  0.45593999997E+02  0.45594000000E+02  0.51100000000E-03 0. -1.
         11   -1    0    0    0    0 -0.00000000000E+00 -0.00000000000E+00 -0.45593999997E+02  0.45594000000E+02  0.51100000000E-03 0.  1.
    9900012    2    1    2    0    0  0.59990767800E+01  0.27628487369E+01 -0.17523015074E+02  0.72461593174E+02  0.70000029804E+02 0.  0.
         12    1    1    2    0    0 -0.59990767800E+01 -0.27628487369E+01  0.17523015074E+02  0.18726406826E+02  0.00000000000E+00 0. -1.
         11    1    3    3    0    0 -0.24147457846E+02 -0.12684538280E+02 -0.10410239397E+02  0.29195381764E+02  0.51100000000E-03 0. -1.
        -11    1    3    3    0    0  0.15521103400E+01 -0.45925409801E+00 -0.10266767387E+02  0.10393578483E+02  0.51100000000E-03 0.  1.
        -12    1    3    3    0    0  0.28594424286E+02  0.15906641115E+02  0.31539917105E+01  0.32872632926E+02  0.00000000000E+00 0.  1.
</event>
<event>
 7    1  0.2941727E-013  0.7246173E+02  0.7816164E-02  0.1226708E+00
        -11   -1    0    0    0    0  0.00000000000E+00  0.00000000000E+00  0.45593999997E+02  0.45594000000E+02  0.51100000000E-03 0. -1.
         11   -1    0    0    0    0 -0.00000000000E+00 -0.00000000000E+00 -0.45593999997E+02  0.45594000000E+02  0.51100000000E-03 0.  1.
    9900012    2    1    2    0    0  0.18910640155E+01 -0.97813650189E+01 -0.15856289917E+02  0.72461730893E+02  0.70000209209E+02 0.  0.
         12    1    1    2    0    0 -0.18910640155E+01  0.97813650189E+01  0.15856289917E+02  0.18726269107E+02  0.00000000000E+00 0. -1.
         11    1    3    3    0    0  0.73002256075E+01  0.11037046243E+02 -0.46367286088E-01  0.13232982803E+02  0.51100000000E-03 0. -1.
        -11    1    3    3    0    0  0.39313741661E+01 -0.35671891389E+01 -0.32830334545E+02  0.33256749808E+02  0.51100000000E-03 0.  1.
         12    1    3    3    0    0 -0.93405357581E+01 -0.17251222123E+02  0.17020411915E+02  0.25971998281E+02  0.00000000000E+00 0. -1.
</event>
<event>
 7    1  0.2941727E-013  0.7246154E+02  0.7816164E-02  0.1226708E+00
        -11   -1    0    0    0    0  0.00000000000E+00  0.00000000000E+00  0.45593999997E+02  0.45594000000E+02  0.51100000000E-03 0.  1.
         11   -1    0    0    0    0 -0.00000000000E+00 -0.00000000000E+00 -0.45593999997E+02  0.45594000000E+02  0.51100000000E-03 0. -1.
    9900012    2    1    2    0    0 -0.59463259818E+01 -0.53088096126E+01  0.16945152636E+02  0.72461536104E+02  0.69999955461E+02 0.  0.
         12    1    1    2    0    0  0.59463259818E+01  0.53088096126E+01 -0.16945152636E+02  0.18726463896E+02  0.00000000000E+00 0. -1.
         11    1    3    3    0    0  0.43107548126E+01  0.26027980254E+02  0.59334160460E+01  0.27041519732E+02  0.51100000000E-03 0. -1.
        -11    1    3    3    0    0  0.76950544439E+01 -0.41964017173E+01 -0.39390059408E+01  0.96093401611E+01  0.51100000000E-03 0.  1.
         12    1    3    3    0    0 -0.17952135238E+02 -0.27140388149E+02  0.14950742531E+02  0.35810676212E+02  0.00000000000E+00 0. -1.
</event>
<event>
 7    1  0.2941727E-013  0.7246160E+02  0.7816164E-02  0.1226708E+00
        -11   -1    0    0    0    0  0.00000000000E+00  0.00000000000E+00  0.45593999997E+02  0.45594000000E+02  0.51100000000E-03 0.  1.
         11   -1    0    0    0    0 -0.00000000000E+00 -0.00000000000E+00 -0.45593999997E+02  0.45594000000E+02  0.51100000000E-03 0. -1.
    9900012    2    1    2    0    0 -0.99021070716E+01  0.14954509216E+02 -0.53841374762E+01  0.72461601341E+02  0.70000040444E+02 0.  0.
         12    1    1    2    0    0  0.99021070716E+01 -0.14954509216E+02  0.53841374762E+01  0.18726398659E+02  0.00000000000E+00 0. -1.
         11    1    3    3    0    0 -0.30835218909E+02  0.10761377639E+02 -0.83637024844E+00  0.32669825364E+02  0.51100000000E-03 0. -1.
        -11    1    3    3    0    0 -0.15703845977E+01 -0.11792690002E+02 -0.20909889226E+01  0.12079150641E+02  0.51100000000E-03 0.  1.
         12    1    3    3    0    0  0.22503496435E+02  0.15985821580E+02 -0.24567783052E+01  0.27712625336E+02  0.00000000000E+00 0. -1.
</event>
<event>
 7    1  0.2941727E-013  0.7246157E+02  0.7816164E-02  0.1226708E+00
        -11   -1    0    0    0    0  0.00000000000E+00  0.00000000000E+00  0.45593999997E+02  0.45594000000E+02  0.51100000000E-03 0.  1.
         11   -1    0    0    0    0 -0.00000000000E+00 -0.00000000000E+00 -0.45593999997E+02  0.45594000000E+02  0.51100000000E-03 0. -1.
    9900012    2    1    2    0    0 -0.15342179111E+02 -0.15275640968E+00  0.10736535847E+02  0.72461574916E+02  0.70000006021E+02 0.  0.
         12    1    1    2    0    0  0.15342179111E+02  0.15275640968E+00 -0.10736535847E+02  0.18726425084E+02  0.00000000000E+00 0. -1.
         11    1    3    3    0    0  0.85720393165E+01 -0.59267472276E+01 -0.73885567181E+01  0.12774856609E+02  0.51100000000E-03 0. -1.
        -11    1    3    3    0    0 -0.80598541695E+01 -0.20022297282E+02 -0.43001026755E+01  0.22007828629E+02  0.51100000000E-03 0.  1.
        -12    1    3    3    0    0 -0.15854364258E+02  0.25796288100E+02  0.22425195241E+02  0.37678889678E+02  0.00000000000E+00 0.  1.
</event>
<event>
 7    1  0.2941727E-013  0.7246154E+02  0.7816164E-02  0.1226708E+00
        -11   -1    0    0    0    0  0.00000000000E+00  0.00000000000E+00  0.45593999997E+02  0.45594000000E+02  0.51100000000E-03 0. -1.
         11   -1    0    0    0    0 -0.00000000000E+00 -0.00000000000E+00 -0.45593999997E+02  0.45594000000E+02  0.51100000000E-03 0.  1.
    9900012    2    1    2    0    0  0.33302484085E+01  0.99078241394E+01 -0.15537844178E+02  0.72461544506E+02  0.69999966406E+02 0.  0.
         12    1    1    2    0    0 -0.33302484085E+01 -0.99078241394E+01  0.15537844178E+02  0.18726455494E+02  0.00000000000E+00 0. -1.
         11    1    3    3    0    0  0.23178950235E+01  0.10979393410E+02  0.17752135889E+02  0.21001381999E+02  0.51100000000E-03 0. -1.
        -11    1    3    3    0    0  0.15556535469E+02 -0.52386267589E+01 -0.17861579740E+01  0.16511794775E+02  0.51100000000E-03 0.  1.
        -12    1    3    3    0    0 -0.14544182084E+02  0.41670574882E+01 -0.31503822094E+02  0.34948367732E+02  0.00000000000E+00 0.  1.
</event>
<event>
 7    1  0.2941727E-013  0.7246200E+02  0.7816164E-02  0.1226707E+00
        -11   -1    0    0    0    0  0.00000000000E+00  0.00000000000E+00  0.45593999997E+02  0.45594000000E+02  0.51100000000E-03 0. -1.
         11   -1    0    0    0    0 -0.00000000000E+00 -0.00000000000E+00 -0.45593999997E+02  0.45594000000E+02  0.51100000000E-03 0.  1.
    9900012    2    1    2    0    0 -0.29654642658E+00 -0.39480489119E+01 -0.18302680225E+02  0.72461998467E+02  0.70000557772E+02 0.  0.
         12    1    1    2    0    0  0.29654642658E+00  0.39480489119E+01  0.18302680225E+02  0.18726001533E+02  0.00000000000E+00 0. -1.
         11    1    3    3    0    0 -0.24693924628E+01 -0.58592150208E+01 -0.34085796675E+01  0.72143409543E+01  0.51100000000E-03 0. -1.
        -11    1    3    3    0    0  0.19898050162E+02 -0.14215562144E+02 -0.28609512011E+02  0.37636668092E+02  0.51100000000E-03 0.  1.
         12    1    3    3    0    0 -0.17725204126E+02  0.16126728253E+02  0.13715411453E+02  0.27610989420E+02  0.00000000000E+00 0. -1.
</event>
<event>
 7    1  0.2941727E-013  0.7246159E+02  0.7816164E-02  0.1226708E+00
        -11   -1    0    0    0    0  0.00000000000E+00  0.00000000000E+00  0.45593999997E+02  0.45594000000E+02  0.51100000000E-03 0. -1.
         11   -1    0    0    0    0 -0.00000000000E+00 -0.00000000000E+00 -0.45593999997E+02  0.45594000000E+02  0.51100000000E-03 0.  1.
    9900012    2    1    2    0    0 -0.17746739789E+02  0.42271592552E+01 -0.42264226843E+01  0.72461593585E+02  0.70000030340E+02 0.  0.
         12    1    1    2    0    0  0.17746739789E+02 -0.42271592552E+01  0.42264226843E+01  0.18726406415E+02  0.00000000000E+00 0. -1.
         11    1    3    3    0    0  0.16382708123E+02  0.22685243054E+01  0.17425500693E+02  0.24024724819E+02  0.51100000000E-03 0. -1.
        -11    1    3    3    0    0 -0.21207068837E+02 -0.30647082601E+01  0.14689924004E+01  0.21477666175E+02  0.51100000000E-03 0.  1.
        -12    1    3    3    0    0 -0.12922379075E+02  0.50233432099E+01 -0.23120915777E+02  0.26959202591E+02  0.00000000000E+00 0.  1.
</event>
<event>
 7    1  0.2941727E-013  0.7246156E+02  0.7816164E-02  0.1226708E+00
        -11   -1    0    0    0    0  0.00000000000E+00  0.00000000000E+00  0.45593999997E+02  0.45594000000E+02  0.51100000000E-03 0. -1.
         11   -1    0    0    0    0 -0.00000000000E+00 -0.00000000000E+00 -0.45593999997E+02  0.45594000000E+02  0.51100000000E-03 0.  1.
    9900012    2    1    2    0    0 -0.50541673432E+00 -0.13818848389E+02 -0.12627886837E+02  0.72461560327E+02  0.69999987015E+02 0.  0.
         12    1    1    2    0    0  0.50541673432E+00  0.13818848389E+02  0.12627886837E+02  0.18726439673E+02  0.00000000000E+00 0. -1.
         11    1    3    3    0    0  0.34037720945E+01  0.47435782983E+01 -0.12764022992E+02  0.14035935407E+02  0.51100000000E-03 0. -1.
        -11    1    3    3    0    0 -0.28207800131E+02 -0.15748384603E+02 -0.67709214269E+01  0.33008135104E+02  0.51100000000E-03 0.  1.
        -12    1    3    3    0    0  0.24298611302E+02 -0.28140420843E+01  0.69070575821E+01  0.25417489815E+02  0.00000000000E+00 0.  1.
</event>
<event>
 7    1  0.2941727E-013  0.7246157E+02  0.7816164E-02  0.1226708E+00
        -11   -1    0    0    0    0  0.00000000000E+00  0.00000000000E+00  0.45593999997E+02  0.45594000000E+02  0.51100000000E-03 0.  1.
         11   -1    0    0    0    0 -0.00000000000E+00 -0.00000000000E+00 -0.45593999997E+02  0.45594000000E+02  0.51100000000E-03 0. -1.
    9900012    2    1    2    0    0 -0.11884303366E+02 -0.51244457941E+01  0.13534498870E+02  0.72461567589E+02  0.69999996475E+02 0.  0.
         12    1    1    2    0    0  0.11884303366E+02  0.51244457941E+01 -0.13534498870E+02  0.18726432411E+02  0.00000000000E+00 0. -1.
         11    1    3    3    0    0 -0.67596195750E+01 -0.23745116124E+01  0.28366614399E+01  0.77056739213E+01  0.51100000000E-03 0. -1.
        -11    1    3    3    0    0  0.27413083880E+02 -0.81957030863E+01  0.13519157852E+02  0.31645131476E+02  0.51100000000E-03 0.  1.
         12    1    3    3    0    0 -0.32537767671E+02  0.54457689045E+01 -0.28213204221E+01  0.33110762191E+02  0.00000000000E+00 0. -1.
</event>
<event>
 7    1  0.3076588E-013  0.7246156E+02  0.7816164E-02  0.1226708E+00
        -11   -1    0    0    0    0  0.00000000000E+00  0.00000000000E+00  0.45593999997E+02  0.45594000000E+02  0.51100000000E-03 0.  1.
         11   -1    0    0    0    0 -0.00000000000E+00 -0.00000000000E+00 -0.45593999997E+02  0.45594000000E+02  0.51100000000E-03 0. -1.
    9900012    2    1    2    0    0 -0.67156172810E+01  0.15825982531E+02  0.74241598239E+01  0.72461564470E+02  0.69999992413E+02 0.  0.
         12    1    1    2    0    0  0.67156172810E+01 -0.15825982531E+02 -0.74241598239E+01  0.18726435530E+02  0.00000000000E+00 0. -1.
         11    1    3    3    0    0 -0.22329590032E+02 -0.32925767487E+01 -0.10424505858E+02  0.24862058951E+02  0.51100000000E-03 0. -1.
        -11    1    3    3    0    0  0.80537532242E+01 -0.58914151512E+01 -0.64806699577E+01  0.11898352694E+02  0.51100000000E-03 0.  1.
        -12    1    3    3    0    0  0.75602195270E+01  0.25009974431E+02  0.24329335640E+02  0.35701152825E+02  0.00000000000E+00 0.  1.
</event>
<event>
 7    1  0.2941727E-013  0.7246156E+02  0.7816164E-02  0.1226708E+00
        -11   -1    0    0    0    0  0.00000000000E+00  0.00000000000E+00  0.45593999997E+02  0.45594000000E+02  0.51100000000E-03 0. -1.
         11   -1    0    0    0    0 -0.00000000000E+00 -0.00000000000E+00 -0.45593999997E+02  0.45594000000E+02  0.51100000000E-03 0.  1.
    9900012    2    1    2    0    0 -0.30107875015E+01 -0.10183765991E+02 -0.15424185431E+02  0.72461563410E+02  0.69999991032E+02 0.  0.
         12    1    1    2    0    0  0.30107875015E+01  0.10183765991E+02  0.15424185431E+02  0.18726436590E+02  0.00000000000E+00 0. -1.
         11    1    3    3    0    0  0.20075243645E+02  0.77565108086E+01 -0.82500004495E+00  0.21537397537E+02  0.51100000000E-03 0. -1.
        -11    1    3    3    0    0 -0.37783077712E+01 -0.98342091494E+01  0.12711377646E+02  0.16509585129E+02  0.51100000000E-03 0.  1.
        -12    1    3    3    0    0 -0.19307723376E+02 -0.81060676498E+01 -0.27310563032E+02  0.34414580744E+02  0.00000000000E+00 0.  1.
</event>
<event>
 7    1  0.2941727E-013  0.7246152E+02  0.7816164E-02  0.1226708E+00
        -11   -1    0    0    0    0  0.00000000000E+00  0.00000000000E+00  0.45593999997E+02  0.45594000000E+02  0.51100000000E-03 0. -1.
         11   -1    0    0    0    0 -0.00000000000E+00 -0.00000000000E+00 -0.45593999997E+02  0.45594000000E+02  0.51100000000E-03 0.  1.
    9900012    2    1    2    0    0  0.13613198910E+02 -0.80512978007E+01 -0.10026878827E+02  0.72461524628E+02  0.69999940511E+02 0.  0.
         12    1    1    2    0    0 -0.13613198910E+02  0.80512978007E+01  0.10026878827E+02  0.18726475372E+02  0.00000000000E+00 0. -1.
         11    1    3    3    0    0 -0.96194847976E+01 -0.26046718935E+01  0.15643770484E+02  0.18548486695E+02  0.51100000000E-03 0. -1.
        -11    1    3    3    0    0 -0.19800931841E+01 -0.78551534409E+01  0.82616107343E+01  0.11570584116E+02  0.51100000000E-03 0.  1.
        -12    1    3    3    0    0  0.25212776892E+02  0.24085275336E+01 -0.33932260046E+02  0.42342453817E+02  0.00000000000E+00 0.  1.
</event>
<event>
 7    1  0.2941727E-013  0.7246156E+02  0.7816164E-02  0.1226708E+00
        -11   -1    0    0    0    0  0.00000000000E+00  0.00000000000E+00  0.45593999997E+02  0.45594000000E+02  0.51100000000E-03 0.  1.
         11   -1    0    0    0    0 -0.00000000000E+00 -0.00000000000E+00 -0.45593999997E+02  0.45594000000E+02  0.51100000000E-03 0. -1.
    9900012    2    1    2    0    0 -0.73232732188E+01  0.16669250191E+02  0.43800994393E+01  0.72461561373E+02  0.69999988378E+02 0.  0.
         12    1    1    2    0    0  0.73232732188E+01 -0.16669250191E+02 -0.43800994393E+01  0.18726438627E+02  0.00000000000E+00 0. -1.
         11    1    3    3    0    0 -0.19490267168E+02 -0.19351815029E+02 -0.20109278615E+01  0.27539191897E+02  0.51100000000E-03 0. -1.
        -11    1    3    3    0    0  0.32691522384E+01 -0.22321223395E+01  0.39189243453E+01  0.55702508724E+01  0.51100000000E-03 0.  1.
        -12    1    3    3    0    0  0.88978417108E+01  0.38253187559E+02  0.24721029555E+01  0.39352118604E+02  0.00000000000E+00 0.  1.
</event>
<event>
 7    1  0.2941727E-013  0.7246159E+02  0.7816164E-02  0.1226708E+00
        -11   -1    0    0    0    0  0.00000000000E+00  0.00000000000E+00  0.45593999997E+02  0.45594000000E+02  0.51100000000E-03 0.  1.
         11   -1    0    0    0    0 -0.00000000000E+00 -0.00000000000E+00 -0.45593999997E+02  0.45594000000E+02  0.51100000000E-03 0. -1.
    9900012    2    1    2    0    0 -0.18099124338E+02 -0.40211054501E+01  0.26326435375E+01  0.72461590764E+02  0.70000026666E+02 0.  0.
         12    1    1    2    0    0  0.18099124338E+02  0.40211054501E+01 -0.26326435375E+01  0.18726409236E+02  0.00000000000E+00 0. -1.
         11    1    3    3    0    0  0.16560242324E+01 -0.13147413780E+02  0.24300859331E+02  0.27679029424E+02  0.51100000000E-03 0. -1.
        -11    1    3    3    0    0 -0.31537409160E+01 -0.23217386908E+01  0.80014597423E+01  0.89084179618E+01  0.51100000000E-03 0.  1.
         12    1    3    3    0    0 -0.16601407655E+02  0.11448047021E+02 -0.29669675536E+02  0.35874143378E+02  0.00000000000E+00 0. -1.
</event>
<event>
 7    1  0.2941727E-013  0.7246155E+02  0.7816164E-02  0.1226708E+00
        -11   -1    0    0    0    0  0.00000000000E+00  0.00000000000E+00  0.45593999997E+02  0.45594000000E+02  0.51100000000E-03 0. -1.
         11   -1    0    0    0    0 -0.00000000000E+00 -0.00000000000E+00 -0.45593999997E+02  0.45594000000E+02  0.51100000000E-03 0.  1.
    9900012    2    1    2    0    0 -0.54408790852E+01 -0.11498233970E+02 -0.13742907216E+02  0.72461546828E+02  0.69999969431E+02 0.  0.
         12    1    1    2    0    0  0.54408790852E+01  0.11498233970E+02  0.13742907216E+02  0.18726453172E+02  0.00000000000E+00 0. -1.
         11    1    3    3    0    0  0.64327620617E+01 -0.25824032798E+02  0.15409629677E+02  0.30752524852E+02  0.51100000000E-03 0. -1.
        -11    1    3    3    0    0  0.54239354946E+01 -0.81684199660E+00 -0.11442258827E+02  0.12689034416E+02  0.51100000000E-03 0.  1.
        -12    1    3    3    0    0 -0.17297576641E+02  0.15142640824E+02 -0.17710278067E+02  0.29019987560E+02  0.00000000000E+00 0.  1.
</event>
<event>
 7    1  0.2941727E-013  0.7246211E+02  0.7816164E-02  0.1226707E+00
        -11   -1    0    0    0    0  0.00000000000E+00  0.00000000000E+00  0.45593999997E+02  0.45594000000E+02  0.51100000000E-03 0. -1.
         11   -1    0    0    0    0 -0.00000000000E+00 -0.00000000000E+00 -0.45593999997E+02  0.45594000000E+02  0.51100000000E-03 0.  1.
    9900012    2    1    2    0    0 -0.58397247519E+00 -0.15988231778E+02 -0.97311107977E+01  0.72462106253E+02  0.70000698183E+02 0.  0.
         12    1    1    2    0    0  0.58397247519E+00  0.15988231778E+02  0.97311107977E+01  0.18725893747E+02  0.00000000000E+00 0. -1.
         11    1    3    3    0    0 -0.96754708536E+01 -0.35057000650E+02 -0.52542365614E+01  0.36745272253E+02  0.51100000000E-03 0. -1.
        -11    1    3    3    0    0  0.39444457312E+01  0.53276052877E+01  0.11965534151E+02  0.13679036443E+02  0.51100000000E-03 0.  1.
        -12    1    3    3    0    0  0.51470526472E+01  0.13741163584E+02 -0.16442408388E+02  0.22037797557E+02  0.00000000000E+00 0.  1.
</event>
<event>
 7    1  0.2941727E-013  0.7246159E+02  0.7816164E-02  0.1226708E+00
        -11   -1    0    0    0    0  0.00000000000E+00  0.00000000000E+00  0.45593999997E+02  0.45594000000E+02  0.51100000000E-03 0.  1.
         11   -1    0    0    0    0 -0.00000000000E+00 -0.00000000000E+00 -0.45593999997E+02  0.45594000000E+02  0.51100000000E-03 0. -1.
    9900012    2    1    2    0    0  0.31527052547E+00  0.14476022754E+02 -0.11875349213E+02  0.72461586857E+02  0.70000021576E+02 0.  0.
         12    1    1    2    0    0 -0.31527052547E+00 -0.14476022754E+02  0.11875349213E+02  0.18726413143E+02  0.00000000000E+00 0. -1.
         11    1    3    3    0    0  0.28084924156E+01 -0.14732769330E+02 -0.28147839575E+01  0.15259919094E+02  0.51100000000E-03 0. -1.
        -11    1    3    3    0    0  0.10158053613E+02  0.23893904499E+01 -0.22380593695E+02  0.24693849727E+02  0.51100000000E-03 0.  1.
        -12    1    3    3    0    0 -0.12651275503E+02  0.26819401633E+02  0.13320028440E+02  0.32507818036E+02  0.00000000000E+00 0.  1.
</event>
<event>
 7    1  0.2941727E-013  0.7246158E+02  0.7816164E-02  0.1226708E+00
        -11   -1    0    0    0    0  0.00000000000E+00  0.00000000000E+00  0.45593999997E+02  0.45594000000E+02  0.51100000000E-03 0. -1.
         11   -1    0    0    0    0 -0.00000000000E+00 -0.00000000000E+00 -0.45593999997E+02  0.45594000000E+02  0.51100000000E-03 0.  1.
    9900012    2    1    2    0    0 -0.12979124859E+02  0.12068791874E+02  0.60469472020E+01  0.72461575091E+02  0.70000006249E+02 0.  0.
         12    1    1    2    0    0  0.12979124859E+02 -0.12068791874E+02 -0.60469472020E+01  0.18726424909E+02  0.00000000000E+00 0. -1.
         11    1    3    3    0    0  0.14519904372E+02  0.95866564819E+00  0.72119925141E+01  0.16240674219E+02  0.51100000000E-03 0. -1.
        -11    1    3    3    0    0  0.10794760489E+02  0.28416046808E+00 -0.10804245971E+02  0.15275448683E+02  0.51100000000E-03 0.  1.
        -12    1    3    3    0    0 -0.38293789720E+02  0.10825965758E+02  0.96392006593E+01  0.40945452190E+02  0.00000000000E+00 0.  1.
</event>
<event>
 7    1  0.2941727E-013  0.7246156E+02  0.7816164E-02  0.1226708E+00
        -11   -1    0    0    0    0  0.00000000000E+00  0.00000000000E+00  0.45593999997E+02  0.45594000000E+02  0.51100000000E-03 0. -1.
         11   -1    0    0    0    0 -0.00000000000E+00 -0.00000000000E+00 -0.45593999997E+02  0.45594000000E+02  0.51100000000E-03 0.  1.
    9900012    2    1    2    0    0 -0.17057404287E+02  0.65131901215E+01 -0.41596777648E+01  0.72461558649E+02  0.69999984830E+02 0.  0.
         12    1    1    2    0    0  0.17057404287E+02 -0.65131901215E+01  0.41596777648E+01  0.18726441351E+02  0.00000000000E+00 0. -1.
         11    1    3    3    0    0  0.94725237104E+01 -0.13196336864E+02  0.29342377086E+01  0.16507021635E+02  0.51100000000E-03 0. -1.
        -11    1    3    3    0    0  0.72758964503E+01 -0.86451799812E+01 -0.23586444505E+00  0.11301921888E+02  0.51100000000E-03 0.  1.
        -12    1    3    3    0    0 -0.33805824447E+02  0.28354706966E+02 -0.68580510284E+01  0.44652615126E+02  0.00000000000E+00 0.  1.
</event>
<event>
 7    1  0.2941727E-013  0.7246153E+02  0.7816164E-02  0.1226708E+00
        -11   -1    0    0    0    0  0.00000000000E+00  0.00000000000E+00  0.45593999997E+02  0.45594000000E+02  0.51100000000E-03 0.  1.
         11   -1    0    0    0    0 -0.00000000000E+00 -0.00000000000E+00 -0.45593999997E+02  0.45594000000E+02  0.51100000000E-03 0. -1.
    9900012    2    1    2    0    0  0.12029437662E+02 -0.40527861452E+00  0.14346048985E+02  0.72461528290E+02  0.69999945282E+02 0.  0.
         12    1    1    2    0    0 -0.12029437662E+02  0.40527861452E+00 -0.14346048985E+02  0.18726471710E+02  0.00000000000E+00 0. -1.
         11    1    3    3    0    0 -0.11347969682E+01  0.10825056225E+02 -0.10962945859E+02  0.15448488230E+02  0.51100000000E-03 0. -1.
        -11    1    3    3    0    0  0.17156413810E+02  0.15368540645E+02  0.57028297270E+01  0.23728818840E+02  0.51100000000E-03 0.  1.
         12    1    3    3    0    0 -0.39921791805E+01 -0.26598875484E+02  0.19606165117E+02  0.33284221220E+02  0.00000000000E+00 0. -1.
</event>
<event>
 7    1  0.2941727E-013  0.7246156E+02  0.7816164E-02  0.1226708E+00
        -11   -1    0    0    0    0  0.00000000000E+00  0.00000000000E+00  0.45593999997E+02  0.45594000000E+02  0.51100000000E-03 0.  1.
         11   -1    0    0    0    0 -0.00000000000E+00 -0.00000000000E+00 -0.45593999997E+02  0.45594000000E+02  0.51100000000E-03 0. -1.
    9900012    2    1    2    0    0 -0.12650967166E+02 -0.78656039538E+01 -0.11347457286E+02  0.72461561934E+02  0.69999989109E+02 0.  0.
         12    1    1    2    0    0  0.12650967166E+02  0.78656039538E+01  0.11347457286E+02  0.18726438066E+02  0.00000000000E+00 0. -1.
         11    1    3    3    0    0 -0.24858052106E+02  0.77145998913E+01 -0.14527868165E+02  0.29807662768E+02  0.51100000000E-03 0. -1.
        -11    1    3    3    0    0 -0.90548183366E+01  0.62681196962E+01 -0.32795717230E+01  0.11490633167E+02  0.51100000000E-03 0.  1.
        -12    1    3    3    0    0  0.21261903276E+02 -0.21848323541E+02  0.64599826023E+01  0.31163265999E+02  0.00000000000E+00 0.  1.
</event>
<event>
 7    1  0.2941727E-013  0.7246156E+02  0.7816164E-02  0.1226708E+00
        -11   -1    0    0    0    0  0.00000000000E+00  0.00000000000E+00  0.45593999997E+02  0.45594000000E+02  0.51100000000E-03 0. -1.
         11   -1    0    0    0    0 -0.00000000000E+00 -0.00000000000E+00 -0.45593999997E+02  0.45594000000E+02  0.51100000000E-03 0.  1.
    9900012    2    1    2    0    0  0.15306735450E+02  0.52256215633E+01 -0.94380275123E+01  0.72461557888E+02  0.69999983838E+02 0.  0.
         12    1    1    2    0    0 -0.15306735450E+02 -0.52256215633E+01  0.94380275123E+01  0.18726442112E+02  0.00000000000E+00 0. -1.
         11    1    3    3    0    0  0.19827232556E+02 -0.16405895487E+02 -0.18403265194E+02  0.31637836961E+02  0.51100000000E-03 0. -1.
        -11    1    3    3    0    0 -0.12183411399E+01 -0.89479070802E+01  0.12782930236E+01  0.91204950285E+01  0.51100000000E-03 0.  1.
        -12    1    3    3    0    0 -0.33021559661E+01  0.30579424130E+02  0.76869446576E+01  0.31703225898E+02  0.00000000000E+00 0.  1.
</event>
<event>
 7    1  0.2941727E-013  0.7246156E+02  0.7816164E-02  0.1226708E+00
        -11   -1    0    0    0    0  0.00000000000E+00  0.00000000000E+00  0.45593999997E+02  0.45594000000E+02  0.51100000000E-03 0.  1.
         11   -1    0    0    0    0 -0.00000000000E+00 -0.00000000000E+00 -0.45593999997E+02  0.45594000000E+02  0.51100000000E-03 0. -1.
    9900012    2    1    2    0    0  0.26819100276E+01  0.11798283669E+02  0.14292916123E+02  0.72461559061E+02  0.69999985367E+02 0.  0.
         12    1    1    2    0    0 -0.26819100276E+01 -0.11798283669E+02 -0.14292916123E+02  0.18726440939E+02  0.00000000000E+00 0. -1.
         11    1    3    3    0    0  0.52162982835E+01 -0.43673168741E+01 -0.11255438636E+02  0.13151734624E+02  0.51100000000E-03 0. -1.
        -11    1    3    3    0    0 -0.19744941358E+02 -0.94888329385E+01  0.58605272490E+01  0.22677002440E+02  0.51100000000E-03 0.  1.
        -12    1    3    3    0    0  0.17210553103E+02  0.25654433482E+02  0.19687827510E+02  0.36632821997E+02  0.00000000000E+00 0.  1.
</event>
<event>
 7    1  0.2941727E-013  0.7246163E+02  0.7816164E-02  0.1226708E+00
        -11   -1    0    0    0    0  0.00000000000E+00  0.00000000000E+00  0.45593999997E+02  0.45594000000E+02  0.51100000000E-03 0. -1.
         11   -1    0    0    0    0 -0.00000000000E+00 -0.00000000000E+00 -0.45593999997E+02  0.45594000000E+02  0.51100000000E-03 0.  1.
    9900012    2    1    2    0    0  0.75497478406E+01  0.76671939814E+01 -0.15326194180E+02  0.72461633987E+02  0.70000082972E+02 0.  0.
         12    1    1    2    0    0 -0.75497478406E+01 -0.76671939814E+01  0.15326194180E+02  0.18726366013E+02  0.00000000000E+00 0. -1.
         11    1    3    3    0    0  0.10412558544E+02  0.29517605368E+02 -0.21526413388E+02  0.37988114927E+02  0.51100000000E-03 0. -1.
        -11    1    3    3    0    0  0.44665418721E+01  0.36240441260E+01 -0.29071187626E+01  0.64447677912E+01  0.51100000000E-03 0.  1.
        -12    1    3    3    0    0 -0.73293525759E+01 -0.25474455512E+02  0.91073379705E+01  0.28028751269E+02  0.00000000000E+00 0.  1.
</event>
<event>
 7    1  0.2941727E-013  0.7246149E+02  0.7816164E-02  0.1226708E+00
        -11   -1    0    0    0    0  0.00000000000E+00  0.00000000000E+00  0.45593999997E+02  0.45594000000E+02  0.51100000000E-03 0.  1.
         11   -1    0    0    0    0 -0.00000000000E+00 -0.00000000000E+00 -0.45593999997E+02  0.45594000000E+02  0.51100000000E-03 0. -1.
    9900012    2    1    2    0    0 -0.95657307363E+01  0.47993551026E+01  0.15367018872E+02  0.72461487165E+02  0.69999891709E+02 0.  0.
         12    1    1    2    0    0  0.95657307363E+01 -0.47993551026E+01 -0.15367018872E+02  0.18726512835E+02  0.00000000000E+00 0. -1.
         11    1    3    3    0    0 -0.18754576874E+02 -0.14159508722E+02  0.14265822531E+02  0.27490717228E+02  0.51100000000E-03 0. -1.
        -11    1    3    3    0    0  0.71714606629E+01 -0.38960478092E+01 -0.14906610008E+02  0.16994589103E+02  0.51100000000E-03 0.  1.
        -12    1    3    3    0    0  0.20173854751E+01  0.22854911634E+02  0.16007806350E+02  0.27976180834E+02  0.00000000000E+00 0.  1.
</event>
<event>
 7    1  0.2941727E-013  0.7246149E+02  0.7816164E-02  0.1226708E+00
        -11   -1    0    0    0    0  0.00000000000E+00  0.00000000000E+00  0.45593999997E+02  0.45594000000E+02  0.51100000000E-03 0.  1.
         11   -1    0    0    0    0 -0.00000000000E+00 -0.00000000000E+00 -0.45593999997E+02  0.45594000000E+02  0.51100000000E-03 0. -1.
    9900012    2    1    2    0    0 -0.35834238173E+01 -0.81974408014E+01  0.16451236720E+02  0.72461490673E+02  0.69999896279E+02 0.  0.
         12    1    1    2    0    0  0.35834238173E+01  0.81974408014E+01 -0.16451236720E+02  0.18726509327E+02  0.00000000000E+00 0. -1.
         11    1    3    3    0    0 -0.11858798948E+02 -0.15600018510E+02  0.36907849158E+02  0.41787330853E+02  0.51100000000E-03 0. -1.
        -11    1    3    3    0    0 -0.27314600532E+01 -0.51500337716E+01 -0.31442083792E+01  0.66234257347E+01  0.51100000000E-03 0.  1.
        -12    1    3    3    0    0  0.11006835184E+02  0.12552611481E+02 -0.17312404059E+02  0.24050734086E+02  0.00000000000E+00 0.  1.
</event>
<event>
 7    1  0.2941727E-013  0.7246185E+02  0.7816164E-02  0.1226707E+00
        -11   -1    0    0    0    0  0.00000000000E+00  0.00000000000E+00  0.45593999997E+02  0.45594000000E+02  0.51100000000E-03 0. -1.
         11   -1    0    0    0    0 -0.00000000000E+00 -0.00000000000E+00 -0.45593999997E+02  0.45594000000E+02  0.51100000000E-03 0.  1.
    9900012    2    1    2    0    0 -0.10612163839E+02  0.89139428463E+01 -0.12593337180E+02  0.72461854114E+02  0.70000369727E+02 0.  0.
         12    1    1    2    0    0  0.10612163839E+02 -0.89139428463E+01  0.12593337180E+02  0.18726145886E+02  0.00000000000E+00 0. -1.
         11    1    3    3    0    0 -0.23006969097E+02  0.12606140139E+02 -0.27885164523E+02  0.38286000013E+02  0.51100000000E-03 0. -1.
        -11    1    3    3    0    0 -0.38646804075E+01  0.32998371298E+01 -0.50826571701E+01  0.71873558355E+01  0.51100000000E-03 0.  1.
         12    1    3    3    0    0  0.16259485666E+02 -0.69920344226E+01  0.20374484513E+02  0.26988498266E+02  0.00000000000E+00 0. -1.
</event>
<event>
 7    1  0.2941727E-013  0.7246183E+02  0.7816164E-02  0.1226707E+00
        -11   -1    0    0    0    0  0.00000000000E+00  0.00000000000E+00  0.45593999997E+02  0.45594000000E+02  0.51100000000E-03 0.  1.
         11   -1    0    0    0    0 -0.00000000000E+00 -0.00000000000E+00 -0.45593999997E+02  0.45594000000E+02  0.51100000000E-03 0. -1.
    9900012    2    1    2    0    0  0.14143287306E+02  0.10839317846E+02  0.57572703994E+01  0.72461827149E+02  0.70000334600E+02 0.  0.
         12    1    1    2    0    0 -0.14143287306E+02 -0.10839317846E+02 -0.57572703994E+01  0.18726172851E+02  0.00000000000E+00 0. -1.
         11    1    3    3    0    0 -0.13274508764E+02 -0.21690263011E+02 -0.71760033329E+01  0.26423003548E+02  0.51100000000E-03 0.  1.
        -11    1    3    3    0    0  0.17055619144E+02  0.12279334389E+02  0.93845543323E+01  0.23016212932E+02  0.51100000000E-03 0. -1.
        -12    1    3    3    0    0  0.10362176926E+02  0.20250246468E+02  0.35487194000E+01  0.23022610669E+02  0.00000000000E+00 0.  1.
</event>
<event>
 7    1  0.2941727E-013  0.7246156E+02  0.7816164E-02  0.1226708E+00
        -11   -1    0    0    0    0  0.00000000000E+00  0.00000000000E+00  0.45593999997E+02  0.45594000000E+02  0.51100000000E-03 0.  1.
         11   -1    0    0    0    0 -0.00000000000E+00 -0.00000000000E+00 -0.45593999997E+02  0.45594000000E+02  0.51100000000E-03 0. -1.
    9900012    2    1    2    0    0 -0.68883163438E+01 -0.17072484131E+02 -0.34294372136E+01  0.72461557304E+02  0.69999983078E+02 0.  0.
         12    1    1    2    0    0  0.68883163438E+01  0.17072484131E+02  0.34294372136E+01  0.18726442696E+02  0.00000000000E+00 0. -1.
         11    1    3    3    0    0  0.38604705950E+01 -0.12711704473E+02  0.14580256548E+02  0.19724972625E+02  0.51100000000E-03 0. -1.
        -11    1    3    3    0    0 -0.22795196134E+01 -0.21269196393E+02 -0.24701789602E+02  0.32676495141E+02  0.51100000000E-03 0.  1.
         12    1    3    3    0    0 -0.84692673254E+01  0.16908416735E+02  0.66920958408E+01  0.20060089538E+02  0.00000000000E+00 0. -1.
</event>
<event>
 7    1  0.2941727E-013  0.7246156E+02  0.7816164E-02  0.1226708E+00
        -11   -1    0    0    0    0  0.00000000000E+00  0.00000000000E+00  0.45593999997E+02  0.45594000000E+02  0.51100000000E-03 0. -1.
         11   -1    0    0    0    0 -0.00000000000E+00 -0.00000000000E+00 -0.45593999997E+02  0.45594000000E+02  0.51100000000E-03 0.  1.
    9900012    2    1    2    0    0 -0.68804560574E+01  0.17278325454E+02  0.21904723285E+01  0.72461564806E+02  0.69999992850E+02 0.  0.
         12    1    1    2    0    0  0.68804560574E+01 -0.17278325454E+02 -0.21904723285E+01  0.18726435194E+02  0.00000000000E+00 0. -1.
         11    1    3    3    0    0 -0.27814391019E+01 -0.22750318436E+01  0.11042185212E+02  0.11612150011E+02  0.51100000000E-03 0. -1.
        -11    1    3    3    0    0 -0.87673096347E+01 -0.12629381115E+02  0.14247504346E+02  0.20960877031E+02  0.51100000000E-03 0.  1.
         12    1    3    3    0    0  0.46682926792E+01  0.32182738413E+02 -0.23099217229E+02  0.39888537763E+02  0.00000000000E+00 0. -1.
</event>
<event>
 7    1  0.2941727E-013  0.7246156E+02  0.7816164E-02  0.1226708E+00
        -11   -1    0    0    0    0  0.00000000000E+00  0.00000000000E+00  0.45593999997E+02  0.45594000000E+02  0.51100000000E-03 0. -1.
         11   -1    0    0    0    0 -0.00000000000E+00 -0.00000000000E+00 -0.45593999997E+02  0.45594000000E+02  0.51100000000E-03 0.  1.
    9900012    2    1    2    0    0 -0.13636006391E+02  0.89354124454E+01 -0.92139699424E+01  0.72461561258E+02  0.69999988229E+02 0.  0.
         12    1    1    2    0    0  0.13636006391E+02 -0.89354124454E+01  0.92139699424E+01  0.18726438742E+02  0.00000000000E+00 0. -1.
         11    1    3    3    0    0 -0.19645361339E+01  0.74029660868E+01  0.24554944903E+02  0.25721753995E+02  0.51100000000E-03 0. -1.
        -11    1    3    3    0    0  0.99319637838E+00 -0.11024809863E+02 -0.35039243026E+01  0.11610786250E+02  0.51100000000E-03 0.  1.
        -12    1    3    3    0    0 -0.12664666635E+02  0.12557256222E+02 -0.30264990543E+02  0.35129021013E+02  0.00000000000E+00 0.  1.
</event>
<event>
 7    1  0.2941727E-013  0.7246169E+02  0.7816164E-02  0.1226708E+00
        -11   -1    0    0    0    0  0.00000000000E+00  0.00000000000E+00  0.45593999997E+02  0.45594000000E+02  0.51100000000E-03 0.  1.
         11   -1    0    0    0    0 -0.00000000000E+00 -0.00000000000E+00 -0.45593999997E+02  0.45594000000E+02  0.51100000000E-03 0. -1.
    9900012    2    1    2    0    0  0.11266971799E+01 -0.92621010905E+01  0.16236335350E+02  0.72461693671E+02  0.70000160721E+02 0.  0.
         12    1    1    2    0    0 -0.11266971799E+01  0.92621010905E+01 -0.16236335350E+02  0.18726306329E+02  0.00000000000E+00 0. -1.
         11    1    3    3    0    0  0.67858307383E+01 -0.72010509200E-01  0.28913262078E+01  0.73764796362E+01  0.51100000000E-03 0. -1.
        -11    1    3    3    0    0  0.27340203570E+02  0.29061664576E+00 -0.21301820353E+01  0.27424603280E+02  0.51100000000E-03 0.  1.
         12    1    3    3    0    0 -0.32999337129E+02 -0.94807072270E+01  0.15475191177E+02  0.37660610755E+02  0.00000000000E+00 0. -1.
</event>
<event>
 7    1  0.2941727E-013  0.7246146E+02  0.7816164E-02  0.1226708E+00
        -11   -1    0    0    0    0  0.00000000000E+00  0.00000000000E+00  0.45593999997E+02  0.45594000000E+02  0.51100000000E-03 0. -1.
         11   -1    0    0    0    0 -0.00000000000E+00 -0.00000000000E+00 -0.45593999997E+02  0.45594000000E+02  0.51100000000E-03 0.  1.
    9900012    2    1    2    0    0  0.63568882766E+01 -0.12400936328E+02 -0.12509591012E+02  0.72461464879E+02  0.69999862676E+02 0.  0.
         12    1    1    2    0    0 -0.63568882766E+01  0.12400936328E+02  0.12509591012E+02  0.18726535121E+02  0.00000000000E+00 0. -1.
         11    1    3    3    0    0 -0.23576263587E+02 -0.23574412468E+02  0.12859817238E+01  0.33365354444E+02  0.51100000000E-03 0. -1.
        -11    1    3    3    0    0  0.18273200146E-01 -0.33113686936E+01 -0.78513972308E+00  0.34032251146E+01  0.51100000000E-03 0.  1.
        -12    1    3    3    0    0  0.29914878663E+02  0.14484844834E+02 -0.13010433013E+02  0.35692885320E+02  0.00000000000E+00 0.  1.
</event>
<event>
 7    1  0.2941727E-013  0.7246175E+02  0.7816164E-02  0.1226708E+00
        -11   -1    0    0    0    0  0.00000000000E+00  0.00000000000E+00  0.45593999997E+02  0.45594000000E+02  0.51100000000E-03 0.  1.
         11   -1    0    0    0    0 -0.00000000000E+00 -0.00000000000E+00 -0.45593999997E+02  0.45594000000E+02  0.51100000000E-03 0. -1.
    9900012    2    1    2    0    0 -0.18687553868E+02  0.11960179508E+01 -0.13100489814E+00  0.72461753959E+02  0.70000239257E+02 0.  0.
         12    1    1    2    0    0  0.18687553868E+02 -0.11960179508E+01  0.13100489814E+00  0.18726246041E+02  0.00000000000E+00 0. -1.
         11    1    3    3    0    0 -0.14717815237E+02 -0.13902309892E+02 -0.20026568842E+02  0.28477214849E+02  0.51100000000E-03 0. -1.
        -11    1    3    3    0    0 -0.63669582244E+01 -0.85319476917E+01 -0.29314810566E+01  0.11042004795E+02  0.51100000000E-03 0.  1.
        -12    1    3    3    0    0  0.23972195934E+01  0.23630275535E+02  0.22827045001E+02  0.32942534315E+02  0.00000000000E+00 0.  1.
</event>
<event>
 7    1  0.2941727E-013  0.7246159E+02  0.7816164E-02  0.1226708E+00
        -11   -1    0    0    0    0  0.00000000000E+00  0.00000000000E+00  0.45593999997E+02  0.45594000000E+02  0.51100000000E-03 0.  1.
         11   -1    0    0    0    0 -0.00000000000E+00 -0.00000000000E+00 -0.45593999997E+02  0.45594000000E+02  0.51100000000E-03 0. -1.
    9900012    2    1    2    0    0  0.99628209346E+01  0.15598529444E+02 -0.28472203014E+01  0.72461585895E+02  0.70000020323E+02 0.  0.
         12    1    1    2    0    0 -0.99628209346E+01 -0.15598529444E+02  0.28472203014E+01  0.18726414105E+02  0.00000000000E+00 0. -1.
         11    1    3    3    0    0 -0.58570024041E+01 -0.83412885075E+01  0.24886619129E+01  0.10491663810E+02  0.51100000000E-03 0. -1.
        -11    1    3    3    0    0 -0.12904634091E+02  0.88025955106E+01  0.16593309795E+02  0.22789322038E+02  0.51100000000E-03 0.  1.
         12    1    3    3    0    0  0.28724457430E+02  0.15137222440E+02 -0.21929192009E+02  0.39180600047E+02  0.00000000000E+00 0. -1.
</event>
<event>
 7    1  0.2941727E-013  0.7246158E+02  0.7816164E-02  0.1226708E+00
        -11   -1    0    0    0    0  0.00000000000E+00  0.00000000000E+00  0.45593999997E+02  0.45594000000E+02  0.51100000000E-03 0. -1.
         11   -1    0    0    0    0 -0.00000000000E+00 -0.00000000000E+00 -0.45593999997E+02  0.45594000000E+02  0.51100000000E-03 0.  1.
    9900012    2    1    2    0    0  0.11977230241E+02 -0.14392001899E+02  0.30813049818E+00  0.72461582635E+02  0.70000016077E+02 0.  0.
         12    1    1    2    0    0 -0.11977230241E+02  0.14392001899E+02 -0.30813049818E+00  0.18726417365E+02  0.00000000000E+00 0. -1.
         11    1    3    3    0    0  0.15773047482E+01  0.35144773909E+01  0.60738391708E+01  0.71924240791E+01  0.51100000000E-03 0. -1.
        -11    1    3    3    0    0  0.16620851524E+02  0.18661167365E+02 -0.11889499301E+02  0.27674032353E+02  0.51100000000E-03 0.  1.
         12    1    3    3    0    0 -0.62209260310E+01 -0.36567646655E+02  0.61237906279E+01  0.37595126203E+02  0.00000000000E+00 0. -1.
</event>
<event>
 7    1  0.2941727E-013  0.7246154E+02  0.7816164E-02  0.1226708E+00
        -11   -1    0    0    0    0  0.00000000000E+00  0.00000000000E+00  0.45593999997E+02  0.45594000000E+02  0.51100000000E-03 0.  1.
         11   -1    0    0    0    0 -0.00000000000E+00 -0.00000000000E+00 -0.45593999997E+02  0.45594000000E+02  0.51100000000E-03 0. -1.
    9900012    2    1    2    0    0 -0.59612217656E+01  0.54579242134E+01  0.16892461815E+02  0.72461538299E+02  0.69999958320E+02 0.  0.
         12    1    1    2    0    0  0.59612217656E+01 -0.54579242134E+01 -0.16892461815E+02  0.18726461701E+02  0.00000000000E+00 0. -1.
         11    1    3    3    0    0  0.63617900841E+01 -0.14486171664E+02  0.46775520925E+01  0.16498516187E+02  0.51100000000E-03 0. -1.
        -11    1    3    3    0    0  0.12380841547E+02 -0.99137677731E+01  0.35008702020E+01  0.16242663614E+02  0.51100000000E-03 0.  1.
        -12    1    3    3    0    0 -0.24703853396E+02  0.29857863650E+02  0.87140395206E+01  0.39720358497E+02  0.00000000000E+00 0.  1.
</event>
<event>
 7    1  0.2941727E-013  0.7246160E+02  0.7816164E-02  0.1226708E+00
        -11   -1    0    0    0    0  0.00000000000E+00  0.00000000000E+00  0.45593999997E+02  0.45594000000E+02  0.51100000000E-03 0. -1.
         11   -1    0    0    0    0 -0.00000000000E+00 -0.00000000000E+00 -0.45593999997E+02  0.45594000000E+02  0.51100000000E-03 0.  1.
    9900012    2    1    2    0    0  0.14673043870E+02  0.10738165353E+02 -0.44801207720E+01  0.72461604359E+02  0.70000044375E+02 0.  0.
         12    1    1    2    0    0 -0.14673043870E+02 -0.10738165353E+02  0.44801207720E+01  0.18726395641E+02  0.00000000000E+00 0. -1.
         11    1    3    3    0    0  0.39687629056E+01 -0.43281767292E+01  0.14150361377E+02  0.15320473889E+02  0.51100000000E-03 0. -1.
        -11    1    3    3    0    0  0.27599800133E+02  0.21957670720E+02 -0.85317413564E+01  0.36286070078E+02  0.51100000000E-03 0.  1.
        -12    1    3    3    0    0 -0.16895519169E+02 -0.68913286375E+01 -0.10098740793E+02  0.20855060392E+02  0.00000000000E+00 0.  1.
</event>
<event>
 7    1  0.2941727E-013  0.7246161E+02  0.7816164E-02  0.1226708E+00
        -11   -1    0    0    0    0  0.00000000000E+00  0.00000000000E+00  0.45593999997E+02  0.45594000000E+02  0.51100000000E-03 0.  1.
         11   -1    0    0    0    0 -0.00000000000E+00 -0.00000000000E+00 -0.45593999997E+02  0.45594000000E+02  0.51100000000E-03 0. -1.
    9900012    2    1    2    0    0 -0.15769369927E+01 -0.77980160158E+01  0.16952336462E+02  0.72461614989E+02  0.70000058223E+02 0.  0.
         12    1    1    2    0    0  0.15769369927E+01  0.77980160158E+01 -0.16952336462E+02  0.18726385011E+02  0.00000000000E+00 0. -1.
         11    1    3    3    0    0 -0.58690100775E+01 -0.40974979602E+01 -0.72845297800E+00  0.71948184707E+01  0.51100000000E-03 0. -1.
        -11    1    3    3    0    0  0.16106564600E+02 -0.29967514799E+02  0.92595362116E+01  0.35259216916E+02  0.51100000000E-03 0.  1.
         12    1    3    3    0    0 -0.11814491515E+02  0.26266996743E+02  0.84212532283E+01  0.30007579602E+02  0.00000000000E+00 0. -1.
</event>
<event>
 7    1  0.2941727E-013  0.7246161E+02  0.7816164E-02  0.1226708E+00
        -11   -1    0    0    0    0  0.00000000000E+00  0.00000000000E+00  0.45593999997E+02  0.45594000000E+02  0.51100000000E-03 0.  1.
         11   -1    0    0    0    0 -0.00000000000E+00 -0.00000000000E+00 -0.45593999997E+02  0.45594000000E+02  0.51100000000E-03 0. -1.
    9900012    2    1    2    0    0 -0.18196195118E+01 -0.18411155958E+02  0.28975985557E+01  0.72461608029E+02  0.70000049156E+02 0.  0.
         12    1    1    2    0    0  0.18196195118E+01  0.18411155958E+02 -0.28975985557E+01  0.18726391971E+02  0.00000000000E+00 0. -1.
         11    1    3    3    0    0 -0.34307973622E+01 -0.14965753340E+02  0.67206284035E+01  0.16760399458E+02  0.51100000000E-03 0.  1.
        -11    1    3    3    0    0  0.90221862552E+01 -0.20825846097E+02  0.16417941929E+02  0.28011864057E+02  0.51100000000E-03 0. -1.
         12    1    3    3    0    0 -0.74110084048E+01  0.17380443480E+02 -0.20240971777E+02  0.27689344514E+02  0.00000000000E+00 0. -1.
</event>
<event>
 7    1  0.2941727E-013  0.7246156E+02  0.7816164E-02  0.1226708E+00
        -11   -1    0    0    0    0  0.00000000000E+00  0.00000000000E+00  0.45593999997E+02  0.45594000000E+02  0.51100000000E-03 0. -1.
         11   -1    0    0    0    0 -0.00000000000E+00 -0.00000000000E+00 -0.45593999997E+02  0.45594000000E+02  0.51100000000E-03 0.  1.
    9900012    2    1    2    0    0 -0.10741238693E+02 -0.47477651529E+01 -0.14586440285E+02  0.72461555521E+02  0.69999980756E+02 0.  0.
         12    1    1    2    0    0  0.10741238693E+02  0.47477651529E+01  0.14586440285E+02  0.18726444479E+02  0.00000000000E+00 0. -1.
         11    1    3    3    0    0 -0.11169288211E+02 -0.89791770339E+01 -0.55379819357E+01  0.15363849242E+02  0.51100000000E-03 0. -1.
        -11    1    3    3    0    0 -0.24216453638E+02 -0.66679899922E+01 -0.15332415720E+02  0.29427566828E+02  0.51100000000E-03 0.  1.
         12    1    3    3    0    0  0.24644503156E+02  0.10899401873E+02  0.62839573704E+01  0.27670139451E+02  0.00000000000E+00 0. -1.
</event>
<event>
 7    1  0.2941727E-013  0.7246158E+02  0.7816164E-02  0.1226708E+00
        -11   -1    0    0    0    0  0.00000000000E+00  0.00000000000E+00  0.45593999997E+02  0.45594000000E+02  0.51100000000E-03 0.  1.
         11   -1    0    0    0    0 -0.00000000000E+00 -0.00000000000E+00 -0.45593999997E+02  0.45594000000E+02  0.51100000000E-03 0. -1.
    9900012    2    1    2    0    0 -0.12494540842E+02  0.13466866044E+02  0.36343895859E+01  0.72461579638E+02  0.70000012172E+02 0.  0.
         12    1    1    2    0    0  0.12494540842E+02 -0.13466866044E+02 -0.36343895859E+01  0.18726420362E+02  0.00000000000E+00 0. -1.
         11    1    3    3    0    0  0.63415085059E+01 -0.13827813133E+01  0.71221454923E+01  0.96359623788E+01  0.51100000000E-03 0. -1.
        -11    1    3    3    0    0 -0.13065273160E+02 -0.21872776064E+02 -0.29559380037E+01  0.25648728335E+02  0.51100000000E-03 0.  1.
        -12    1    3    3    0    0 -0.57707761884E+01  0.36722423422E+02 -0.53181790263E+00  0.37176888924E+02  0.00000000000E+00 0.  1.
</event>
<event>
 7    1  0.2941727E-013  0.7246150E+02  0.7816164E-02  0.1226708E+00
        -11   -1    0    0    0    0  0.00000000000E+00  0.00000000000E+00  0.45593999997E+02  0.45594000000E+02  0.51100000000E-03 0.  1.
         11   -1    0    0    0    0 -0.00000000000E+00 -0.00000000000E+00 -0.45593999997E+02  0.45594000000E+02  0.51100000000E-03 0. -1.
    9900012    2    1    2    0    0  0.17411484829E+02  0.54230223521E+01 -0.42558948355E+01  0.72461504967E+02  0.69999914899E+02 0.  0.
         12    1    1    2    0    0 -0.17411484829E+02 -0.54230223521E+01  0.42558948355E+01  0.18726495033E+02  0.00000000000E+00 0. -1.
         11    1    3    3    0    0  0.27935834356E+01 -0.26172369186E+01  0.44245750873E+01  0.58507181152E+01  0.51100000000E-03 0. -1.
        -11    1    3    3    0    0  0.34053979128E+02  0.15024122301E+02  0.10237537531E+02  0.38603172413E+02  0.51100000000E-03 0.  1.
         12    1    3    3    0    0 -0.19436077735E+02 -0.69838630301E+01 -0.18918007454E+02  0.28007614439E+02  0.00000000000E+00 0. -1.
</event>
<event>
 7    1  0.2941727E-013  0.7246155E+02  0.7816164E-02  0.1226708E+00
        -11   -1    0    0    0    0  0.00000000000E+00  0.00000000000E+00  0.45593999997E+02  0.45594000000E+02  0.51100000000E-03 0.  1.
         11   -1    0    0    0    0 -0.00000000000E+00 -0.00000000000E+00 -0.45593999997E+02  0.45594000000E+02  0.51100000000E-03 0. -1.
    9900012    2    1    2    0    0 -0.16576210260E+02 -0.75325933567E+01  0.43782645683E+01  0.72461550526E+02  0.69999974248E+02 0.  0.
         12    1    1    2    0    0  0.16576210260E+02  0.75325933567E+01 -0.43782645683E+01  0.18726449474E+02  0.00000000000E+00 0. -1.
         11    1    3    3    0    0  0.12455854196E+02  0.22895671924E+02  0.75914837922E+01  0.27147573060E+02  0.51100000000E-03 0. -1.
        -11    1    3    3    0    0  0.45698637909E+00 -0.54993176042E+00 -0.32563956209E+01  0.33339727342E+01  0.51100000000E-03 0.  1.
        -12    1    3    3    0    0 -0.29489050835E+02 -0.29878333520E+02  0.43176396921E-01  0.41980004732E+02  0.00000000000E+00 0.  1.
</event>
<event>
 7    1  0.2941727E-013  0.7246158E+02  0.7816164E-02  0.1226708E+00
        -11   -1    0    0    0    0  0.00000000000E+00  0.00000000000E+00  0.45593999997E+02  0.45594000000E+02  0.51100000000E-03 0.  1.
         11   -1    0    0    0    0 -0.00000000000E+00 -0.00000000000E+00 -0.45593999997E+02  0.45594000000E+02  0.51100000000E-03 0. -1.
    9900012    2    1    2    0    0 -0.45120464162E+01 -0.61896008997E+01  0.17088274836E+02  0.72461578584E+02  0.70000010799E+02 0.  0.
         12    1    1    2    0    0  0.45120464162E+01  0.61896008997E+01 -0.17088274836E+02  0.18726421416E+02  0.00000000000E+00 0. -1.
         11    1    3    3    0    0  0.62283272426E+01  0.48028016620E+01 -0.13044320419E+02  0.15231981470E+02  0.51100000000E-03 0. -1.
        -11    1    3    3    0    0 -0.87880320659E+01 -0.19229451911E+02 -0.44672806297E+01  0.21609209260E+02  0.51100000000E-03 0.  1.
        -12    1    3    3    0    0 -0.19523415929E+01  0.82370493490E+01  0.34599875885E+02  0.35620387854E+02  0.00000000000E+00 0.  1.
</event>
<event>
 7    1  0.2941727E-013  0.7246114E+02  0.7816164E-02  0.1226709E+00
        -11   -1    0    0    0    0  0.00000000000E+00  0.00000000000E+00  0.45593999997E+02  0.45594000000E+02  0.51100000000E-03 0.  1.
         11   -1    0    0    0    0 -0.00000000000E+00 -0.00000000000E+00 -0.45593999997E+02  0.45594000000E+02  0.51100000000E-03 0. -1.
    9900012    2    1    2    0    0 -0.77242702514E+01 -0.12072578942E+02  0.12053372277E+02  0.72461139706E+02  0.69999439076E+02 0.  0.
         12    1    1    2    0    0  0.77242702514E+01  0.12072578942E+02 -0.12053372277E+02  0.18726860294E+02  0.00000000000E+00 0. -1.
         11    1    3    3    0    0 -0.60929550757E+00  0.18349788997E+02 -0.11928977789E+02  0.21894896862E+02  0.51100000000E-03 0. -1.
        -11    1    3    3    0    0  0.10960474783E+02 -0.37377032381E+01  0.10492481378E+02  0.15626727063E+02  0.51100000000E-03 0.  1.
         12    1    3    3    0    0 -0.18075449527E+02 -0.26684664701E+02  0.13489868688E+02  0.34939515781E+02  0.00000000000E+00 0. -1.
</event>
<event>
 7    1  0.2941727E-013  0.7246153E+02  0.7816164E-02  0.1226708E+00
        -11   -1    0    0    0    0  0.00000000000E+00  0.00000000000E+00  0.45593999997E+02  0.45594000000E+02  0.51100000000E-03 0. -1.
         11   -1    0    0    0    0 -0.00000000000E+00 -0.00000000000E+00 -0.45593999997E+02  0.45594000000E+02  0.51100000000E-03 0.  1.
    9900012    2    1    2    0    0  0.59796603031E+01  0.16884856570E+02  0.54613071474E+01  0.72461532247E+02  0.69999950436E+02 0.  0.
         12    1    1    2    0    0 -0.59796603031E+01 -0.16884856570E+02 -0.54613071474E+01  0.18726467753E+02  0.00000000000E+00 0. -1.
         11    1    3    3    0    0  0.10942800497E+02 -0.36447671550E+01  0.20696633086E+01  0.11718050896E+02  0.51100000000E-03 0. -1.
        -11    1    3    3    0    0  0.45223260210E+01 -0.45771988890E+01 -0.22529812735E+02  0.23430634743E+02  0.51100000000E-03 0.  1.
         12    1    3    3    0    0 -0.94854662151E+01  0.25106822614E+02  0.25921456574E+02  0.37312846608E+02  0.00000000000E+00 0. -1.
</event>
<event>
 7    1  0.2941727E-013  0.7246163E+02  0.7816164E-02  0.1226708E+00
        -11   -1    0    0    0    0  0.00000000000E+00  0.00000000000E+00  0.45593999997E+02  0.45594000000E+02  0.51100000000E-03 0.  1.
         11   -1    0    0    0    0 -0.00000000000E+00 -0.00000000000E+00 -0.45593999997E+02  0.45594000000E+02  0.51100000000E-03 0. -1.
    9900012    2    1    2    0    0  0.13238861180E+02  0.12905764199E+02  0.29750278654E+01  0.72461628603E+02  0.70000075958E+02 0.  0.
         12    1    1    2    0    0 -0.13238861180E+02 -0.12905764199E+02 -0.29750278654E+01  0.18726371397E+02  0.00000000000E+00 0. -1.
         11    1    3    3    0    0 -0.27423466747E+01  0.10774897236E+02 -0.23574426294E+02  0.26064774142E+02  0.51100000000E-03 0. -1.
        -11    1    3    3    0    0 -0.93150173283E+00  0.11553427764E+02 -0.21392237978E+01  0.11786673292E+02  0.51100000000E-03 0.  1.
        -12    1    3    3    0    0  0.16912709587E+02 -0.94225608012E+01  0.28688677957E+02  0.34610181169E+02  0.00000000000E+00 0.  1.
</event>
<event>
 7    1  0.2941727E-013  0.7246167E+02  0.7816164E-02  0.1226708E+00
        -11   -1    0    0    0    0  0.00000000000E+00  0.00000000000E+00  0.45593999997E+02  0.45594000000E+02  0.51100000000E-03 0.  1.
         11   -1    0    0    0    0 -0.00000000000E+00 -0.00000000000E+00 -0.45593999997E+02  0.45594000000E+02  0.51100000000E-03 0. -1.
    9900012    2    1    2    0    0 -0.44450189708E+01  0.15061713693E+02  0.10201079497E+02  0.72461669983E+02  0.70000129862E+02 0.  0.
         12    1    1    2    0    0  0.44450189708E+01 -0.15061713693E+02 -0.10201079497E+02  0.18726330017E+02  0.00000000000E+00 0. -1.
         11    1    3    3    0    0  0.41081081504E+01 -0.36405514847E+01 -0.88217336155E+01  0.10390050622E+02  0.51100000000E-03 0. -1.
        -11    1    3    3    0    0  0.80777094979E+01 -0.21143279129E-01  0.32599367670E+02  0.33585243940E+02  0.51100000000E-03 0.  1.
         12    1    3    3    0    0 -0.16630836619E+02  0.18723408457E+02 -0.13576554558E+02  0.28486375420E+02  0.00000000000E+00 0. -1.
</event>
<event>
 7    1  0.2941727E-013  0.7246156E+02  0.7816164E-02  0.1226708E+00
        -11   -1    0    0    0    0  0.00000000000E+00  0.00000000000E+00  0.45593999997E+02  0.45594000000E+02  0.51100000000E-03 0. -1.
         11   -1    0    0    0    0 -0.00000000000E+00 -0.00000000000E+00 -0.45593999997E+02  0.45594000000E+02  0.51100000000E-03 0.  1.
    9900012    2    1    2    0    0  0.40989419307E+01  0.18054457317E+02 -0.28133073478E+01  0.72461562747E+02  0.69999990168E+02 0.  0.
         12    1    1    2    0    0 -0.40989419307E+01 -0.18054457317E+02  0.28133073478E+01  0.18726437253E+02  0.00000000000E+00 0. -1.
         11    1    3    3    0    0 -0.22972726657E+02  0.19194160252E+02 -0.27096848629E+00  0.29937190616E+02  0.51100000000E-03 0. -1.
        -11    1    3    3    0    0  0.11868570084E+02 -0.11019159662E+02  0.11270673334E+02  0.19731013992E+02  0.51100000000E-03 0.  1.
        -12    1    3    3    0    0  0.15203098503E+02  0.98794567271E+01 -0.13813012195E+02  0.22793358138E+02  0.00000000000E+00 0.  1.
</event>
<event>
 7    1  0.2941727E-013  0.7246157E+02  0.7816164E-02  0.1226708E+00
        -11   -1    0    0    0    0  0.00000000000E+00  0.00000000000E+00  0.45593999997E+02  0.45594000000E+02  0.51100000000E-03 0. -1.
         11   -1    0    0    0    0 -0.00000000000E+00 -0.00000000000E+00 -0.45593999997E+02  0.45594000000E+02  0.51100000000E-03 0.  1.
    9900012    2    1    2    0    0  0.16393286055E+02 -0.18308832337E+01 -0.88649527766E+01  0.72461565507E+02  0.69999993763E+02 0.  0.
         12    1    1    2    0    0 -0.16393286055E+02  0.18308832337E+01  0.88649527766E+01  0.18726434493E+02  0.00000000000E+00 0. -1.
         11    1    3    3    0    0 -0.51014807287E+01  0.38073425528E+01 -0.11311870968E+01  0.64653342875E+01  0.51100000000E-03 0. -1.
        -11    1    3    3    0    0 -0.45492553444E+01  0.11748302925E+02 -0.26603673162E+02  0.29435926548E+02  0.51100000000E-03 0.  1.
         12    1    3    3    0    0  0.26044022128E+02 -0.17386528711E+02  0.18869907482E+02  0.36560304671E+02  0.00000000000E+00 0. -1.
</event>
<event>
 7    1  0.2941727E-013  0.7246110E+02  0.7816164E-02  0.1226709E+00
        -11   -1    0    0    0    0  0.00000000000E+00  0.00000000000E+00  0.45593999997E+02  0.45594000000E+02  0.51100000000E-03 0.  1.
         11   -1    0    0    0    0 -0.00000000000E+00 -0.00000000000E+00 -0.45593999997E+02  0.45594000000E+02  0.51100000000E-03 0. -1.
    9900012    2    1    2    0    0  0.28781687891E+01 -0.11343006681E+02  0.14620157441E+02  0.72461103307E+02  0.69999391660E+02 0.  0.
         12    1    1    2    0    0 -0.28781687891E+01  0.11343006681E+02 -0.14620157441E+02  0.18726896693E+02  0.00000000000E+00 0. -1.
         11    1    3    3    0    0 -0.14469167257E+02 -0.36686133008E+01 -0.81651589313E+01  0.17014268873E+02  0.51100000000E-03 0. -1.
        -11    1    3    3    0    0  0.13296647446E+02  0.17960937074E+02  0.18771267316E+02  0.29184868867E+02  0.51100000000E-03 0.  1.
        -12    1    3    3    0    0  0.40506886004E+01 -0.25635330454E+02  0.40140490565E+01  0.26261965567E+02  0.00000000000E+00 0.  1.
</event>
<event>
 7    1  0.2941727E-013  0.7246155E+02  0.7816164E-02  0.1226708E+00
        -11   -1    0    0    0    0  0.00000000000E+00  0.00000000000E+00  0.45593999997E+02  0.45594000000E+02  0.51100000000E-03 0.  1.
         11   -1    0    0    0    0 -0.00000000000E+00 -0.00000000000E+00 -0.45593999997E+02  0.45594000000E+02  0.51100000000E-03 0. -1.
    9900012    2    1    2    0    0 -0.22859144712E+01  0.15807392450E+02  0.97765517561E+01  0.72461547445E+02  0.69999970235E+02 0.  0.
         12    1    1    2    0    0  0.22859144712E+01 -0.15807392450E+02 -0.97765517561E+01  0.18726452555E+02  0.00000000000E+00 0. -1.
         11    1    3    3    0    0 -0.18701411307E+02  0.58183403472E+01  0.12140775518E+02  0.23043313558E+02  0.51100000000E-03 0.  1.
        -11    1    3    3    0    0  0.30091090552E+02  0.14546628450E+02 -0.72456952907E+01  0.34199096924E+02  0.51100000000E-03 0. -1.
         12    1    3    3    0    0 -0.13675593716E+02 -0.45575763474E+01  0.48814715291E+01  0.15219136964E+02  0.00000000000E+00 0. -1.
</event>
<event>
 7    1  0.2941727E-013  0.7246157E+02  0.7816164E-02  0.1226708E+00
        -11   -1    0    0    0    0  0.00000000000E+00  0.00000000000E+00  0.45593999997E+02  0.45594000000E+02  0.51100000000E-03 0.  1.
         11   -1    0    0    0    0 -0.00000000000E+00 -0.00000000000E+00 -0.45593999997E+02  0.45594000000E+02  0.51100000000E-03 0. -1.
    9900012    2    1    2    0    0  0.15000978327E+02  0.11205518329E+02  0.29364880677E+00  0.72461568909E+02  0.69999998195E+02 0.  0.
         12    1    1    2    0    0 -0.15000978327E+02 -0.11205518329E+02 -0.29364880677E+00  0.18726431091E+02  0.00000000000E+00 0. -1.
         11    1    3    3    0    0  0.19745960266E+02  0.34120864813E+01  0.96089787170E+01  0.22223360530E+02  0.51100000000E-03 0.  1.
        -11    1    3    3    0    0 -0.10776794159E+02  0.22679359050E+02  0.82561430507E+01  0.26432111485E+02  0.51100000000E-03 0. -1.
         12    1    3    3    0    0  0.60318122193E+01 -0.14885927202E+02 -0.17571472961E+02  0.23806096894E+02  0.00000000000E+00 0. -1.
</event>
<event>
 7    1  0.2941727E-013  0.7246159E+02  0.7816164E-02  0.1226708E+00
        -11   -1    0    0    0    0  0.00000000000E+00  0.00000000000E+00  0.45593999997E+02  0.45594000000E+02  0.51100000000E-03 0.  1.
         11   -1    0    0    0    0 -0.00000000000E+00 -0.00000000000E+00 -0.45593999997E+02  0.45594000000E+02  0.51100000000E-03 0. -1.
    9900012    2    1    2    0    0 -0.74124774382E+01 -0.73675547303E+01  0.15538755302E+02  0.72461585479E+02  0.70000019781E+02 0.  0.
         12    1    1    2    0    0  0.74124774382E+01  0.73675547303E+01 -0.15538755302E+02  0.18726414521E+02  0.00000000000E+00 0. -1.
         11    1    3    3    0    0 -0.19013873818E+02  0.15170351350E+02 -0.61090666786E+01  0.25079626265E+02  0.51100000000E-03 0. -1.
        -11    1    3    3    0    0 -0.98855661296E+01 -0.42211943949E+01  0.14864731414E+02  0.18344021917E+02  0.51100000000E-03 0.  1.
         12    1    3    3    0    0  0.21486962509E+02 -0.18316711686E+02  0.67830905667E+01  0.29037937297E+02  0.00000000000E+00 0. -1.
</event>
<event>
 7    1  0.2941727E-013  0.7246164E+02  0.7816164E-02  0.1226708E+00
        -11   -1    0    0    0    0  0.00000000000E+00  0.00000000000E+00  0.45593999997E+02  0.45594000000E+02  0.51100000000E-03 0.  1.
         11   -1    0    0    0    0 -0.00000000000E+00 -0.00000000000E+00 -0.45593999997E+02  0.45594000000E+02  0.51100000000E-03 0. -1.
    9900012    2    1    2    0    0  0.13226761022E+02  0.13253227624E+02  0.28525298583E+00  0.72461638397E+02  0.70000088717E+02 0.  0.
         12    1    1    2    0    0 -0.13226761022E+02 -0.13253227624E+02 -0.28525298583E+00  0.18726361603E+02  0.00000000000E+00 0. -1.
         11    1    3    3    0    0  0.35274576512E+02  0.11769821078E+02  0.16140250584E+01  0.37221358297E+02  0.51100000000E-03 0. -1.
        -11    1    3    3    0    0  0.65413000585E+01 -0.14029866628E+00  0.38274587712E+00  0.65539899938E+01  0.51100000000E-03 0.  1.
        -12    1    3    3    0    0 -0.28589115548E+02  0.16237052120E+01 -0.17115179497E+01  0.28686290107E+02  0.00000000000E+00 0.  1.
</event>
<event>
 7    1  0.2941727E-013  0.7246158E+02  0.7816164E-02  0.1226708E+00
        -11   -1    0    0    0    0  0.00000000000E+00  0.00000000000E+00  0.45593999997E+02  0.45594000000E+02  0.51100000000E-03 0.  1.
         11   -1    0    0    0    0 -0.00000000000E+00 -0.00000000000E+00 -0.45593999997E+02  0.45594000000E+02  0.51100000000E-03 0. -1.
    9900012    2    1    2    0    0 -0.15416348261E+02 -0.47385735936E+01  0.95163537331E+01  0.72461578511E+02  0.70000010704E+02 0.  0.
         12    1    1    2    0    0  0.15416348261E+02  0.47385735936E+01 -0.95163537331E+01  0.18726421489E+02  0.00000000000E+00 0. -1.
         11    1    3    3    0    0 -0.53876533705E+00 -0.67954238344E+01 -0.65673403136E+01  0.94656226543E+01  0.51100000000E-03 0. -1.
        -11    1    3    3    0    0 -0.24779031584E+02  0.23965022426E+01 -0.15882551861E+02  0.29529630596E+02  0.51100000000E-03 0.  1.
        -12    1    3    3    0    0  0.99014486606E+01 -0.33965200178E+00  0.31966245908E+02  0.33466325261E+02  0.00000000000E+00 0.  1.
</event>
<event>
 7    1  0.2941727E-013  0.7246159E+02  0.7816164E-02  0.1226708E+00
        -11   -1    0    0    0    0  0.00000000000E+00  0.00000000000E+00  0.45593999997E+02  0.45594000000E+02  0.51100000000E-03 0. -1.
         11   -1    0    0    0    0 -0.00000000000E+00 -0.00000000000E+00 -0.45593999997E+02  0.45594000000E+02  0.51100000000E-03 0.  1.
    9900012    2    1    2    0    0  0.23006006650E+01 -0.43339098017E+01 -0.18072160244E+02  0.72461587811E+02  0.70000022819E+02 0.  0.
         12    1    1    2    0    0 -0.23006006650E+01  0.43339098017E+01  0.18072160244E+02  0.18726412189E+02  0.00000000000E+00 0. -1.
         11    1    3    3    0    0 -0.14076162849E+02  0.37619737664E+01 -0.39414827069E+01  0.15093909147E+02  0.51100000000E-03 0. -1.
        -11    1    3    3    0    0  0.17733286575E+02  0.20250772967E+02 -0.38896029815E+01  0.27197284242E+02  0.51100000000E-03 0.  1.
        -12    1    3    3    0    0 -0.13565230613E+01 -0.28346656535E+02 -0.10241074555E+02  0.30170394422E+02  0.00000000000E+00 0.  1.
</event>
<event>
 7    1  0.2941727E-013  0.7246155E+02  0.7816164E-02  0.1226708E+00
        -11   -1    0    0    0    0  0.00000000000E+00  0.00000000000E+00  0.45593999997E+02  0.45594000000E+02  0.51100000000E-03 0.  1.
         11   -1    0    0    0    0 -0.00000000000E+00 -0.00000000000E+00 -0.45593999997E+02  0.45594000000E+02  0.51100000000E-03 0. -1.
    9900012    2    1    2    0    0  0.73112870955E+01  0.17044626243E+02 -0.25895514473E+01  0.72461548669E+02  0.69999971828E+02 0.  0.
         12    1    1    2    0    0 -0.73112870955E+01 -0.17044626243E+02  0.25895514473E+01  0.18726451331E+02  0.00000000000E+00 0. -1.
         11    1    3    3    0    0 -0.61352967106E+01  0.22982723348E+00 -0.89054185788E+01  0.10816707753E+02  0.51100000000E-03 0. -1.
        -11    1    3    3    0    0 -0.16185144479E+02 -0.68222954556E+01 -0.10185895076E+02  0.20304065501E+02  0.51100000000E-03 0.  1.
        -12    1    3    3    0    0  0.29631728285E+02  0.23637094465E+02  0.16501762208E+02  0.41340775415E+02  0.00000000000E+00 0.  1.
</event>
<event>
 7    1  0.2941727E-013  0.7246187E+02  0.7816164E-02  0.1226707E+00
        -11   -1    0    0    0    0  0.00000000000E+00  0.00000000000E+00  0.45593999997E+02  0.45594000000E+02  0.51100000000E-03 0. -1.
         11   -1    0    0    0    0 -0.00000000000E+00 -0.00000000000E+00 -0.45593999997E+02  0.45594000000E+02  0.51100000000E-03 0.  1.
    9900012    2    1    2    0    0  0.27888931557E+01  0.83335036276E+01 -0.16536102222E+02  0.72461871611E+02  0.70000392520E+02 0.  0.
         12    1    1    2    0    0 -0.27888931557E+01 -0.83335036276E+01  0.16536102222E+02  0.18726128389E+02  0.00000000000E+00 0. -1.
         11    1    3    3    0    0 -0.34098711120E+01 -0.13764189654E+02  0.50154061530E+00  0.14189139547E+02  0.51100000000E-03 0. -1.
        -11    1    3    3    0    0  0.22138481690E+02 -0.57819032887E+01 -0.11763797074E+02  0.25727994462E+02  0.51100000000E-03 0.  1.
         12    1    3    3    0    0 -0.15939717422E+02  0.27879596570E+02 -0.52738457636E+01  0.32544737602E+02  0.00000000000E+00 0. -1.
</event>
<event>
 7    1  0.2941727E-013  0.7246159E+02  0.7816164E-02  0.1226708E+00
        -11   -1    0    0    0    0  0.00000000000E+00  0.00000000000E+00  0.45593999997E+02  0.45594000000E+02  0.51100000000E-03 0.  1.
         11   -1    0    0    0    0 -0.00000000000E+00 -0.00000000000E+00 -0.45593999997E+02  0.45594000000E+02  0.51100000000E-03 0. -1.
    9900012    2    1    2    0    0  0.13690199254E+02  0.11138458985E+02 -0.62603199148E+01  0.72461590050E+02  0.70000025736E+02 0.  0.
         12    1    1    2    0    0 -0.13690199254E+02 -0.11138458985E+02  0.62603199148E+01  0.18726409950E+02  0.00000000000E+00 0. -1.
         11    1    3    3    0    0  0.75200391286E+01  0.81809709912E+01  0.24919397999E+01  0.11388109548E+02  0.51100000000E-03 0. -1.
        -11    1    3    3    0    0  0.74771257215E+01  0.25901603684E+02  0.12550486290E+02  0.29737437496E+02  0.51100000000E-03 0.  1.
         12    1    3    3    0    0 -0.13069655957E+01 -0.22944115691E+02 -0.21302746005E+02  0.31336043006E+02  0.00000000000E+00 0. -1.
</event>
<event>
 7    1  0.2941727E-013  0.7246150E+02  0.7816164E-02  0.1226708E+00
        -11   -1    0    0    0    0  0.00000000000E+00  0.00000000000E+00  0.45593999997E+02  0.45594000000E+02  0.51100000000E-03 0. -1.
         11   -1    0    0    0    0 -0.00000000000E+00 -0.00000000000E+00 -0.45593999997E+02  0.45594000000E+02  0.51100000000E-03 0.  1.
    9900012    2    1    2    0    0 -0.25569065123E+01  0.13020842805E+02 -0.13213694510E+02  0.72461498969E+02  0.69999907086E+02 0.  0.
         12    1    1    2    0    0  0.25569065123E+01 -0.13020842805E+02  0.13213694510E+02  0.18726501031E+02  0.00000000000E+00 0. -1.
         11    1    3    3    0    0  0.57096523093E+01 -0.11094098805E+02  0.12102006316E+02  0.17382109047E+02  0.51100000000E-03 0. -1.
        -11    1    3    3    0    0  0.12421724274E+02  0.11345029210E+02  0.36996226361E+01  0.17224869510E+02  0.51100000000E-03 0.  1.
         12    1    3    3    0    0 -0.20688283096E+02  0.12769912399E+02 -0.29015323461E+02  0.37854520413E+02  0.00000000000E+00 0. -1.
</event>
<event>
 7    1  0.2941727E-013  0.7246175E+02  0.7816164E-02  0.1226708E+00
        -11   -1    0    0    0    0  0.00000000000E+00  0.00000000000E+00  0.45593999997E+02  0.45594000000E+02  0.51100000000E-03 0.  1.
         11   -1    0    0    0    0 -0.00000000000E+00 -0.00000000000E+00 -0.45593999997E+02  0.45594000000E+02  0.51100000000E-03 0. -1.
    9900012    2    1    2    0    0 -0.80659916938E+01  0.10300148695E+02  0.13398472829E+02  0.72461752130E+02  0.70000236874E+02 0.  0.
         12    1    1    2    0    0  0.80659916938E+01 -0.10300148695E+02 -0.13398472829E+02  0.18726247870E+02  0.00000000000E+00 0. -1.
         11    1    3    3    0    0  0.99478894112E+01 -0.11295017369E+02  0.10470226816E+02  0.18334764000E+02  0.51100000000E-03 0. -1.
        -11    1    3    3    0    0 -0.25780849750E+01 -0.13602892988E+02  0.69349162385E+01  0.15484775855E+02  0.51100000000E-03 0.  1.
         12    1    3    3    0    0 -0.15435796130E+02  0.35198059052E+02 -0.40066702253E+01  0.38642212275E+02  0.00000000000E+00 0. -1.
</event>
<event>
 7    1  0.2941727E-013  0.7246156E+02  0.7816164E-02  0.1226708E+00
        -11   -1    0    0    0    0  0.00000000000E+00  0.00000000000E+00  0.45593999997E+02  0.45594000000E+02  0.51100000000E-03 0. -1.
         11   -1    0    0    0    0 -0.00000000000E+00 -0.00000000000E+00 -0.45593999997E+02  0.45594000000E+02  0.51100000000E-03 0.  1.
    9900012    2    1    2    0    0 -0.12419499929E+02 -0.12521577142E+02 -0.62964961790E+01  0.72461555149E+02  0.69999980271E+02 0.  0.
         12    1    1    2    0    0  0.12419499929E+02  0.12521577142E+02  0.62964961790E+01  0.18726444851E+02  0.00000000000E+00 0. -1.
         11    1    3    3    0    0  0.20028122980E+01 -0.11193890197E+02 -0.10232122001E+02  0.15297410099E+02  0.51100000000E-03 0. -1.
        -11    1    3    3    0    0  0.55824069426E+01  0.92908588728E+01 -0.20905500242E+02  0.23548317700E+02  0.51100000000E-03 0.  1.
         12    1    3    3    0    0 -0.20004719170E+02 -0.10618545818E+02  0.24841126064E+02  0.33615827351E+02  0.00000000000E+00 0. -1.
</event>
<event>
 7    1  0.2941727E-013  0.7246146E+02  0.7816164E-02  0.1226708E+00
        -11   -1    0    0    0    0  0.00000000000E+00  0.00000000000E+00  0.45593999997E+02  0.45594000000E+02  0.51100000000E-03 0.  1.
         11   -1    0    0    0    0 -0.00000000000E+00 -0.00000000000E+00 -0.45593999997E+02  0.45594000000E+02  0.51100000000E-03 0. -1.
    9900012    2    1    2    0    0 -0.17852300799E+02 -0.44390063693E+01  0.35034273339E+01  0.72461456688E+02  0.69999852006E+02 0.  0.
         12    1    1    2    0    0  0.17852300799E+02  0.44390063693E+01 -0.35034273339E+01  0.18726543312E+02  0.00000000000E+00 0. -1.
         11    1    3    3    0    0  0.66548349333E+01  0.87558072243E+01 -0.63738914286E+01  0.12711313085E+02  0.51100000000E-03 0. -1.
        -11    1    3    3    0    0 -0.26551235029E-01 -0.15011955828E+02  0.26252590812E+02  0.30241660790E+02  0.51100000000E-03 0.  1.
        -12    1    3    3    0    0 -0.24480584497E+02  0.18171422340E+01 -0.16375272050E+02  0.29508482813E+02  0.00000000000E+00 0.  1.
</event>
<event>
 7    1  0.2941727E-013  0.7246156E+02  0.7816164E-02  0.1226708E+00
        -11   -1    0    0    0    0  0.00000000000E+00  0.00000000000E+00  0.45593999997E+02  0.45594000000E+02  0.51100000000E-03 0.  1.
         11   -1    0    0    0    0 -0.00000000000E+00 -0.00000000000E+00 -0.45593999997E+02  0.45594000000E+02  0.51100000000E-03 0. -1.
    9900012    2    1    2    0    0 -0.15412278881E+02  0.84086347676E+01  0.65142940142E+01  0.72461561325E+02  0.69999988315E+02 0.  0.
         12    1    1    2    0    0  0.15412278881E+02 -0.84086347676E+01 -0.65142940142E+01  0.18726438675E+02  0.00000000000E+00 0. -1.
         11    1    3    3    0    0 -0.11074313684E+02 -0.28483022355E+01 -0.25691584991E+02  0.28121358232E+02  0.51100000000E-03 0. -1.
        -11    1    3    3    0    0  0.22731718326E+01 -0.86203040167E+01  0.58053054444E+01  0.10638539518E+02  0.51100000000E-03 0.  1.
        -12    1    3    3    0    0 -0.66111370296E+01  0.19877241020E+02  0.26400573560E+02  0.33701663575E+02  0.00000000000E+00 0.  1.
</event>
<event>
 7    1  0.2941727E-013  0.7246160E+02  0.7816164E-02  0.1226708E+00
        -11   -1    0    0    0    0  0.00000000000E+00  0.00000000000E+00  0.45593999997E+02  0.45594000000E+02  0.51100000000E-03 0.  1.
         11   -1    0    0    0    0 -0.00000000000E+00 -0.00000000000E+00 -0.45593999997E+02  0.45594000000E+02  0.51100000000E-03 0. -1.
    9900012    2    1    2    0    0  0.17444388070E+02 -0.56861663490E+01  0.37468692520E+01  0.72461596392E+02  0.70000033997E+02 0.  0.
         12    1    1    2    0    0 -0.17444388070E+02  0.56861663490E+01 -0.37468692520E+01  0.18726403608E+02  0.00000000000E+00 0. -1.
         11    1    3    3    0    0  0.11275222201E+02 -0.29411102054E+02 -0.16411412342E+02  0.35517291775E+02  0.51100000000E-03 0. -1.
        -11    1    3    3    0    0  0.37054924905E+01 -0.22884120900E+01  0.53908932151E+01  0.69303127209E+01  0.51100000000E-03 0.  1.
        -12    1    3    3    0    0  0.24636733787E+01  0.26013347795E+02  0.14767388378E+02  0.30013991896E+02  0.00000000000E+00 0.  1.
</event>
<event>
 7    1  0.2941727E-013  0.7246107E+02  0.7816164E-02  0.1226709E+00
        -11   -1    0    0    0    0  0.00000000000E+00  0.00000000000E+00  0.45593999997E+02  0.45594000000E+02  0.51100000000E-03 0. -1.
         11   -1    0    0    0    0 -0.00000000000E+00 -0.00000000000E+00 -0.45593999997E+02  0.45594000000E+02  0.51100000000E-03 0.  1.
    9900012    2    1    2    0    0 -0.20968173614E+01 -0.83142528621E+00 -0.18590585716E+02  0.72461073174E+02  0.69999352406E+02 0.  0.
         12    1    1    2    0    0  0.20968173614E+01  0.83142528621E+00  0.18590585716E+02  0.18726926826E+02  0.00000000000E+00 0. -1.
         11    1    3    3    0    0 -0.49317397702E+00  0.18561140465E+01 -0.12424483029E+01  0.22873692250E+01  0.51100000000E-03 0. -1.
        -11    1    3    3    0    0  0.14551954523E+02  0.28967490125E+02 -0.94627615535E+01  0.33770086187E+02  0.51100000000E-03 0.  1.
         12    1    3    3    0    0 -0.16155597907E+02 -0.31655029458E+02 -0.78853758600E+01  0.36403617762E+02  0.00000000000E+00 0. -1.
</event>
<event>
 7    1  0.2941727E-013  0.7246156E+02  0.7816164E-02  0.1226708E+00
        -11   -1    0    0    0    0  0.00000000000E+00  0.00000000000E+00  0.45593999997E+02  0.45594000000E+02  0.51100000000E-03 0.  1.
         11   -1    0    0    0    0 -0.00000000000E+00 -0.00000000000E+00 -0.45593999997E+02  0.45594000000E+02  0.51100000000E-03 0. -1.
    9900012    2    1    2    0    0 -0.95849611941E+01  0.11025360357E+01  0.16049687034E+02  0.72461560918E+02  0.69999987786E+02 0.  0.
         12    1    1    2    0    0  0.95849611941E+01 -0.11025360357E+01 -0.16049687034E+02  0.18726439082E+02  0.00000000000E+00 0. -1.
         11    1    3    3    0    0  0.18925794320E+01  0.72795576540E+00 -0.31715971862E+01  0.37644130320E+01  0.51100000000E-03 0. -1.
        -11    1    3    3    0    0 -0.19014396628E+01 -0.32484057597E+01 -0.23993045777E+02  0.24286495397E+02  0.51100000000E-03 0.  1.
        -12    1    3    3    0    0 -0.95761009633E+01  0.36229860300E+01  0.43214329997E+02  0.44410652489E+02  0.00000000000E+00 0.  1.
</event>
<event>
 7    1  0.3360317E-013  0.7246158E+02  0.7816164E-02  0.1226708E+00
        -11   -1    0    0    0    0  0.00000000000E+00  0.00000000000E+00  0.45593999997E+02  0.45594000000E+02  0.51100000000E-03 0. -1.
         11   -1    0    0    0    0 -0.00000000000E+00 -0.00000000000E+00 -0.45593999997E+02  0.45594000000E+02  0.51100000000E-03 0.  1.
    9900012    2    1    2    0    0  0.16385710557E+02 -0.66007121571E+01 -0.62143370313E+01  0.72461577593E+02  0.70000009508E+02 0.  0.
         12    1    1    2    0    0 -0.16385710557E+02  0.66007121571E+01  0.62143370313E+01  0.18726422407E+02  0.00000000000E+00 0. -1.
         11    1    3    3    0    0  0.16426786222E+02  0.42762871279E+01  0.67562419414E+01  0.18269448339E+02  0.51100000000E-03 0. -1.
        -11    1    3    3    0    0  0.19959004104E+02  0.85928266155E+01 -0.14686157194E+02  0.26227499451E+02  0.51100000000E-03 0.  1.
         12    1    3    3    0    0 -0.20000079769E+02 -0.19469825901E+02  0.17155782214E+01  0.27964629803E+02  0.00000000000E+00 0. -1.
</event>
<event>
 7    1  0.2941727E-013  0.7246155E+02  0.7816164E-02  0.1226708E+00
        -11   -1    0    0    0    0  0.00000000000E+00  0.00000000000E+00  0.45593999997E+02  0.45594000000E+02  0.51100000000E-03 0. -1.
         11   -1    0    0    0    0 -0.00000000000E+00 -0.00000000000E+00 -0.45593999997E+02  0.45594000000E+02  0.51100000000E-03 0.  1.
    9900012    2    1    2    0    0 -0.17623331250E+02  0.25795031999E+01  0.57830875974E+01  0.72461554975E+02  0.69999980044E+02 0.  0.
         12    1    1    2    0    0  0.17623331250E+02 -0.25795031999E+01 -0.57830875974E+01  0.18726445025E+02  0.00000000000E+00 0. -1.
         11    1    3    3    0    0 -0.59487639052E+01  0.69224987958E+00 -0.10308365708E+02  0.11921803795E+02  0.51100000000E-03 0.  1.
        -11    1    3    3    0    0 -0.19982927410E+02 -0.23242301037E+02  0.14808298061E+02  0.34041263741E+02  0.51100000000E-03 0. -1.
         12    1    3    3    0    0  0.83083600656E+01  0.25129554358E+02  0.12831552443E+01  0.26498487439E+02  0.00000000000E+00 0. -1.
</event>
<event>
 7    1  0.2941727E-013  0.7246156E+02  0.7816164E-02  0.1226708E+00
        -11   -1    0    0    0    0  0.00000000000E+00  0.00000000000E+00  0.45593999997E+02  0.45594000000E+02  0.51100000000E-03 0.  1.
         11   -1    0    0    0    0 -0.00000000000E+00 -0.00000000000E+00 -0.45593999997E+02  0.45594000000E+02  0.51100000000E-03 0. -1.
    9900012    2    1    2    0    0 -0.82216545453E+01 -0.44848004963E+00 -0.16819123276E+02  0.72461557583E+02  0.69999983442E+02 0.  0.
         12    1    1    2    0    0  0.82216545453E+01  0.44848004963E+00  0.16819123276E+02  0.18726442417E+02  0.00000000000E+00 0. -1.
         11    1    3    3    0    0  0.74033388030E+01 -0.17253771255E+01  0.62560735488E-01  0.76019909079E+01  0.51100000000E-03 0. -1.
        -11    1    3    3    0    0  0.19063882862E+02  0.66709675693E+01  0.81119786710E+01  0.21765514841E+02  0.51100000000E-03 0.  1.
         12    1    3    3    0    0 -0.34688876210E+02 -0.53940704934E+01 -0.24993662682E+02  0.43094051834E+02  0.00000000000E+00 0. -1.
</event>
<event>
 7    1  0.2941727E-013  0.7246154E+02  0.7816164E-02  0.1226708E+00
        -11   -1    0    0    0    0  0.00000000000E+00  0.00000000000E+00  0.45593999997E+02  0.45594000000E+02  0.51100000000E-03 0.  1.
         11   -1    0    0    0    0 -0.00000000000E+00 -0.00000000000E+00 -0.45593999997E+02  0.45594000000E+02  0.51100000000E-03 0. -1.
    9900012    2    1    2    0    0  0.42506230733E+01 -0.16524190239E+02  0.77177373499E+01  0.72461544666E+02  0.69999966615E+02 0.  0.
         12    1    1    2    0    0 -0.42506230733E+01  0.16524190239E+02 -0.77177373499E+01  0.18726455334E+02  0.00000000000E+00 0. -1.
         11    1    3    3    0    0  0.19226608793E+02  0.52207056382E+01 -0.17902028479E+02  0.26784340145E+02  0.51100000000E-03 0. -1.
        -11    1    3    3    0    0  0.48869841917E+01 -0.13851535153E+02  0.38844031452E+01  0.15193295516E+02  0.51100000000E-03 0.  1.
        -12    1    3    3    0    0 -0.19862969912E+02 -0.78933607237E+01  0.21735362684E+02  0.30483909005E+02  0.00000000000E+00 0.  1.
</event>
<event>
 7    1  0.2941727E-013  0.7246159E+02  0.7816164E-02  0.1226708E+00
        -11   -1    0    0    0    0  0.00000000000E+00  0.00000000000E+00  0.45593999997E+02  0.45594000000E+02  0.51100000000E-03 0.  1.
         11   -1    0    0    0    0 -0.00000000000E+00 -0.00000000000E+00 -0.45593999997E+02  0.45594000000E+02  0.51100000000E-03 0. -1.
    9900012    2    1    2    0    0  0.94419734356E+01 -0.81016338897E+01  0.13996106071E+02  0.72461592999E+02  0.70000029576E+02 0.  0.
         12    1    1    2    0    0 -0.94419734356E+01  0.81016338897E+01 -0.13996106071E+02  0.18726407001E+02  0.00000000000E+00 0. -1.
         11    1    3    3    0    0  0.13116197176E+02  0.11961389996E+02 -0.18662443323E+02  0.25756480156E+02  0.51100000000E-03 0. -1.
        -11    1    3    3    0    0  0.66268818390E+01 -0.18310083272E+02  0.10307683266E+02  0.22032318237E+02  0.51100000000E-03 0.  1.
        -12    1    3    3    0    0 -0.10301105580E+02 -0.17529406137E+01  0.22350866128E+02  0.24672794605E+02  0.00000000000E+00 0.  1.
</event>
<event>
 7    1  0.2941727E-013  0.7246159E+02  0.7816164E-02  0.1226708E+00
        -11   -1    0    0    0    0  0.00000000000E+00  0.00000000000E+00  0.45593999997E+02  0.45594000000E+02  0.51100000000E-03 0. -1.
         11   -1    0    0    0    0 -0.00000000000E+00 -0.00000000000E+00 -0.45593999997E+02  0.45594000000E+02  0.51100000000E-03 0.  1.
    9900012    2    1    2    0    0  0.53535689530E+01 -0.16037461658E+02 -0.80509442440E+01  0.72461586029E+02  0.70000020498E+02 0.  0.
         12    1    1    2    0    0 -0.53535689530E+01  0.16037461658E+02  0.80509442440E+01  0.18726413971E+02  0.00000000000E+00 0. -1.
         11    1    3    3    0    0  0.16972516515E+01  0.21341859769E+02 -0.65910174032E+01  0.22400829276E+02  0.51100000000E-03 0. -1.
        -11    1    3    3    0    0  0.16585799914E+02 -0.17218698961E+02  0.65805982542E+01  0.24796705958E+02  0.51100000000E-03 0.  1.
        -12    1    3    3    0    0 -0.12929482612E+02 -0.20160622466E+02 -0.80405250951E+01  0.25264050796E+02  0.00000000000E+00 0.  1.
</event>
<event>
 7    1  0.2941727E-013  0.7246158E+02  0.7816164E-02  0.1226708E+00
        -11   -1    0    0    0    0  0.00000000000E+00  0.00000000000E+00  0.45593999997E+02  0.45594000000E+02  0.51100000000E-03 0.  1.
         11   -1    0    0    0    0 -0.00000000000E+00 -0.00000000000E+00 -0.45593999997E+02  0.45594000000E+02  0.51100000000E-03 0. -1.
    9900012    2    1    2    0    0  0.16107362400E+02 -0.99523316333E+00  0.94995433195E+01  0.72461576534E+02  0.70000008128E+02 0.  0.
         12    1    1    2    0    0 -0.16107362400E+02  0.99523316333E+00 -0.94995433195E+01  0.18726423466E+02  0.00000000000E+00 0. -1.
         11    1    3    3    0    0  0.19534372707E+02  0.34401226647E+01  0.16405629558E+02  0.25740451481E+02  0.51100000000E-03 0. -1.
        -11    1    3    3    0    0  0.33961854105E+01 -0.23961472895E+01  0.19208453595E+02  0.19652996895E+02  0.51100000000E-03 0.  1.
         12    1    3    3    0    0 -0.68231957167E+01 -0.20392085385E+01 -0.26114539834E+02  0.27068128158E+02  0.00000000000E+00 0. -1.
</event>
<event>
 7    1  0.2941727E-013  0.7246157E+02  0.7816164E-02  0.1226708E+00
        -11   -1    0    0    0    0  0.00000000000E+00  0.00000000000E+00  0.45593999997E+02  0.45594000000E+02  0.51100000000E-03 0. -1.
         11   -1    0    0    0    0 -0.00000000000E+00 -0.00000000000E+00 -0.45593999997E+02  0.45594000000E+02  0.51100000000E-03 0.  1.
    9900012    2    1    2    0    0  0.16712168858E+02  0.32834235629E+01 -0.77847005512E+01  0.72461574263E+02  0.70000005169E+02 0.  0.
         12    1    1    2    0    0 -0.16712168858E+02 -0.32834235629E+01  0.77847005512E+01  0.18726425737E+02  0.00000000000E+00 0. -1.
         11    1    3    3    0    0  0.75303594405E+01 -0.50040825022E+01 -0.16489724532E+01  0.91905530521E+01  0.51100000000E-03 0. -1.
        -11    1    3    3    0    0  0.30068999883E+02 -0.13338781061E+02 -0.38200362404E+01  0.33115864949E+02  0.51100000000E-03 0.  1.
         12    1    3    3    0    0 -0.20887190466E+02  0.21626287126E+02 -0.23156918576E+01  0.30155156262E+02  0.00000000000E+00 0. -1.
</event>
<event>
 7    1  0.2941727E-013  0.7246153E+02  0.7816164E-02  0.1226708E+00
        -11   -1    0    0    0    0  0.00000000000E+00  0.00000000000E+00  0.45593999997E+02  0.45594000000E+02  0.51100000000E-03 0. -1.
         11   -1    0    0    0    0 -0.00000000000E+00 -0.00000000000E+00 -0.45593999997E+02  0.45594000000E+02  0.51100000000E-03 0.  1.
    9900012    2    1    2    0    0 -0.90640642527E+00 -0.16942677372E+02 -0.79249545457E+01  0.72461526929E+02  0.69999943508E+02 0.  0.
         12    1    1    2    0    0  0.90640642527E+00  0.16942677372E+02  0.79249545457E+01  0.18726473071E+02  0.00000000000E+00 0. -1.
         11    1    3    3    0    0  0.26412880274E+01 -0.23518196949E+01 -0.17933373589E+00  0.35411324701E+01  0.51100000000E-03 0. -1.
        -11    1    3    3    0    0 -0.36967361813E+00 -0.39213728428E+02 -0.16568849718E+02  0.42572055824E+02  0.51100000000E-03 0.  1.
         12    1    3    3    0    0 -0.31780208345E+01  0.24622870751E+02  0.88232289082E+01  0.26348338635E+02  0.00000000000E+00 0. -1.
</event>
<event>
 7    1  0.2941727E-013  0.7246156E+02  0.7816164E-02  0.1226708E+00
        -11   -1    0    0    0    0  0.00000000000E+00  0.00000000000E+00  0.45593999997E+02  0.45594000000E+02  0.51100000000E-03 0. -1.
         11   -1    0    0    0    0 -0.00000000000E+00 -0.00000000000E+00 -0.45593999997E+02  0.45594000000E+02  0.51100000000E-03 0.  1.
    9900012    2    1    2    0    0 -0.17144062430E+02  0.28499342835E+01  0.69741270720E+01  0.72461562794E+02  0.69999990230E+02 0.  0.
         12    1    1    2    0    0  0.17144062430E+02 -0.28499342835E+01 -0.69741270720E+01  0.18726437206E+02  0.00000000000E+00 0. -1.
         11    1    3    3    0    0  0.23825913258E+01  0.11875357733E+02  0.59881649996E+01  0.13511438970E+02  0.51100000000E-03 0. -1.
        -11    1    3    3    0    0  0.14764205449E+02  0.58283474242E+01 -0.11443016428E+02  0.19567677979E+02  0.51100000000E-03 0.  1.
         12    1    3    3    0    0 -0.34290859205E+02 -0.14853770874E+02  0.12428978501E+02  0.39382445845E+02  0.00000000000E+00 0. -1.
</event>
<event>
 7    1  0.2941727E-013  0.7246157E+02  0.7816164E-02  0.1226708E+00
        -11   -1    0    0    0    0  0.00000000000E+00  0.00000000000E+00  0.45593999997E+02  0.45594000000E+02  0.51100000000E-03 0. -1.
         11   -1    0    0    0    0 -0.00000000000E+00 -0.00000000000E+00 -0.45593999997E+02  0.45594000000E+02  0.51100000000E-03 0.  1.
    9900012    2    1    2    0    0 -0.14738361572E+02  0.74647125837E+01 -0.88169106038E+01  0.72461570859E+02  0.70000000735E+02 0.  0.
         12    1    1    2    0    0  0.14738361572E+02 -0.74647125837E+01  0.88169106038E+01  0.18726429141E+02  0.00000000000E+00 0. -1.
         11    1    3    3    0    0  0.42898283190E+01  0.13552476630E+02  0.21455691038E+02  0.25737500422E+02  0.51100000000E-03 0. -1.
        -11    1    3    3    0    0 -0.23296487249E+01  0.61025803197E+01  0.32828719615E+01  0.73106770081E+01  0.51100000000E-03 0.  1.
        -12    1    3    3    0    0 -0.16698541166E+02 -0.12190344366E+02 -0.33555473603E+02  0.39413393429E+02  0.00000000000E+00 0.  1.
</event>
<event>
 7    1  0.2941727E-013  0.7246166E+02  0.7816164E-02  0.1226708E+00
        -11   -1    0    0    0    0  0.00000000000E+00  0.00000000000E+00  0.45593999997E+02  0.45594000000E+02  0.51100000000E-03 0.  1.
         11   -1    0    0    0    0 -0.00000000000E+00 -0.00000000000E+00 -0.45593999997E+02  0.45594000000E+02  0.51100000000E-03 0. -1.
    9900012    2    1    2    0    0 -0.15112156502E+02 -0.10349483340E+02  0.38970336841E+01  0.72461656228E+02  0.70000111944E+02 0.  0.
         12    1    1    2    0    0  0.15112156502E+02  0.10349483340E+02 -0.38970336841E+01  0.18726343772E+02  0.00000000000E+00 0. -1.
         11    1    3    3    0    0 -0.12664850634E+02  0.11605950007E+02 -0.84315968294E+01  0.19136048247E+02  0.51100000000E-03 0. -1.
        -11    1    3    3    0    0 -0.14894690008E+02  0.95273405353E+01  0.13360876067E+01  0.17731529501E+02  0.51100000000E-03 0.  1.
         12    1    3    3    0    0  0.12447384140E+02 -0.31482773882E+02  0.10992542907E+02  0.35594078479E+02  0.00000000000E+00 0. -1.
</event>
<event>
 7    1  0.2941727E-013  0.7246154E+02  0.7816164E-02  0.1226708E+00
        -11   -1    0    0    0    0  0.00000000000E+00  0.00000000000E+00  0.45593999997E+02  0.45594000000E+02  0.51100000000E-03 0. -1.
         11   -1    0    0    0    0 -0.00000000000E+00 -0.00000000000E+00 -0.45593999997E+02  0.45594000000E+02  0.51100000000E-03 0.  1.
    9900012    2    1    2    0    0  0.14476323378E+02 -0.72249086035E+01 -0.94295782051E+01  0.72461543101E+02  0.69999964575E+02 0.  0.
         12    1    1    2    0    0 -0.14476323378E+02  0.72249086035E+01  0.94295782051E+01  0.18726456899E+02  0.00000000000E+00 0. -1.
         11    1    3    3    0    0  0.23361963277E+02 -0.45378330298E+00  0.14503787612E+01  0.23411340120E+02  0.51100000000E-03 0.  1.
        -11    1    3    3    0    0 -0.80539393303E+01 -0.26645809207E+02 -0.79035902120E+01  0.28936686499E+02  0.51100000000E-03 0. -1.
         12    1    3    3    0    0 -0.83170056824E+00  0.19874683906E+02 -0.29763667543E+01  0.20113516482E+02  0.00000000000E+00 0. -1.
</event>
<event>
 7    1  0.2941727E-013  0.7246158E+02  0.7816164E-02  0.1226708E+00
        -11   -1    0    0    0    0  0.00000000000E+00  0.00000000000E+00  0.45593999997E+02  0.45594000000E+02  0.51100000000E-03 0.  1.
         11   -1    0    0    0    0 -0.00000000000E+00 -0.00000000000E+00 -0.45593999997E+02  0.45594000000E+02  0.51100000000E-03 0. -1.
    9900012    2    1    2    0    0  0.66892239797E+00 -0.16222354024E+02  0.93309568206E+01  0.72461575289E+02  0.70000006507E+02 0.  0.
         12    1    1    2    0    0 -0.66892239797E+00  0.16222354024E+02 -0.93309568206E+01  0.18726424711E+02  0.00000000000E+00 0. -1.
         11    1    3    3    0    0  0.24940237001E+01  0.49152976767E+01 -0.85908832025E+01  0.10207035805E+02  0.51100000000E-03 0. -1.
        -11    1    3    3    0    0 -0.68572833150E+01  0.17752767887E+02  0.12247509228E+02  0.22631495414E+02  0.51100000000E-03 0.  1.
        -12    1    3    3    0    0  0.50321820128E+01 -0.38890419587E+02  0.56743307948E+01  0.39623044071E+02  0.00000000000E+00 0.  1.
</event>
<event>
 7    1  0.2941727E-013  0.7246156E+02  0.7816164E-02  0.1226708E+00
        -11   -1    0    0    0    0  0.00000000000E+00  0.00000000000E+00  0.45593999997E+02  0.45594000000E+02  0.51100000000E-03 0.  1.
         11   -1    0    0    0    0 -0.00000000000E+00 -0.00000000000E+00 -0.45593999997E+02  0.45594000000E+02  0.51100000000E-03 0. -1.
    9900012    2    1    2    0    0  0.93271962877E+01 -0.15110565140E+02 -0.59459120001E+01  0.72461557761E+02  0.69999983673E+02 0.  0.
         12    1    1    2    0    0 -0.93271962877E+01  0.15110565140E+02  0.59459120001E+01  0.18726442239E+02  0.00000000000E+00 0. -1.
         11    1    3    3    0    0  0.78624596791E+01 -0.20901786742E+02  0.30283883702E+01  0.22536062158E+02  0.51100000000E-03 0. -1.
        -11    1    3    3    0    0 -0.10250921730E+02 -0.14671532940E+02 -0.17326497746E+02  0.24910696488E+02  0.51100000000E-03 0.  1.
         12    1    3    3    0    0  0.11715658338E+02  0.20462754542E+02  0.83521973755E+01  0.25014799115E+02  0.00000000000E+00 0. -1.
</event>
<event>
 7    1  0.2941727E-013  0.7246164E+02  0.7816164E-02  0.1226708E+00
        -11   -1    0    0    0    0  0.00000000000E+00  0.00000000000E+00  0.45593999997E+02  0.45594000000E+02  0.51100000000E-03 0.  1.
         11   -1    0    0    0    0 -0.00000000000E+00 -0.00000000000E+00 -0.45593999997E+02  0.45594000000E+02  0.51100000000E-03 0. -1.
    9900012    2    1    2    0    0 -0.13769745297E+02  0.10782256633E+02  0.66942905067E+01  0.72461642398E+02  0.70000093929E+02 0.  0.
         12    1    1    2    0    0  0.13769745297E+02 -0.10782256633E+02 -0.66942905067E+01  0.18726357602E+02  0.00000000000E+00 0. -1.
         11    1    3    3    0    0 -0.21291837329E+02  0.29246094951E+02 -0.87434596397E+01  0.37217260693E+02  0.51100000000E-03 0. -1.
        -11    1    3    3    0    0 -0.46651504582E+01  0.37489530618E+01  0.95455370548E+00  0.60604827279E+01  0.51100000000E-03 0.  1.
        -12    1    3    3    0    0  0.12187242491E+02 -0.22212791379E+02  0.14483196441E+02  0.29183898978E+02  0.00000000000E+00 0.  1.
</event>
<event>
 7    1  0.2941727E-013  0.7246157E+02  0.7816164E-02  0.1226708E+00
        -11   -1    0    0    0    0  0.00000000000E+00  0.00000000000E+00  0.45593999997E+02  0.45594000000E+02  0.51100000000E-03 0. -1.
         11   -1    0    0    0    0 -0.00000000000E+00 -0.00000000000E+00 -0.45593999997E+02  0.45594000000E+02  0.51100000000E-03 0.  1.
    9900012    2    1    2    0    0  0.67452776694E+01  0.43724814637E+00 -0.17463939114E+02  0.72461571453E+02  0.70000001509E+02 0.  0.
         12    1    1    2    0    0 -0.67452776694E+01 -0.43724814637E+00  0.17463939114E+02  0.18726428547E+02  0.00000000000E+00 0. -1.
         11    1    3    3    0    0 -0.20419768226E+02  0.18443763032E+01 -0.15953994758E+01  0.20564871945E+02  0.51100000000E-03 0. -1.
        -11    1    3    3    0    0 -0.51873684802E+01 -0.10392786998E+02 -0.14106704390E+02  0.18273421200E+02  0.51100000000E-03 0.  1.
         12    1    3    3    0    0  0.32352414376E+02  0.89856588410E+01 -0.17618352475E+01  0.33623278308E+02  0.00000000000E+00 0. -1.
</event>
<event>
 7    1  0.2941727E-013  0.7246160E+02  0.7816164E-02  0.1226708E+00
        -11   -1    0    0    0    0  0.00000000000E+00  0.00000000000E+00  0.45593999997E+02  0.45594000000E+02  0.51100000000E-03 0.  1.
         11   -1    0    0    0    0 -0.00000000000E+00 -0.00000000000E+00 -0.45593999997E+02  0.45594000000E+02  0.51100000000E-03 0. -1.
    9900012    2    1    2    0    0 -0.15701321034E+02 -0.40720864600E+01 -0.93575947831E+01  0.72461602843E+02  0.70000042401E+02 0.  0.
         12    1    1    2    0    0  0.15701321034E+02  0.40720864600E+01  0.93575947831E+01  0.18726397157E+02  0.00000000000E+00 0. -1.
         11    1    3    3    0    0 -0.36613261332E+01 -0.27548292418E+01  0.10063318896E+02  0.11057340578E+02  0.51100000000E-03 0. -1.
        -11    1    3    3    0    0 -0.14638592051E+02  0.73391564711E+01  0.17162254355E+02  0.23721183987E+02  0.51100000000E-03 0.  1.
         12    1    3    3    0    0  0.25985971500E+01 -0.86564136892E+01 -0.36583168034E+02  0.37683078278E+02  0.00000000000E+00 0. -1.
</event>
<event>
 7    1  0.2941727E-013  0.7246156E+02  0.7816164E-02  0.1226708E+00
        -11   -1    0    0    0    0  0.00000000000E+00  0.00000000000E+00  0.45593999997E+02  0.45594000000E+02  0.51100000000E-03 0.  1.
         11   -1    0    0    0    0 -0.00000000000E+00 -0.00000000000E+00 -0.45593999997E+02  0.45594000000E+02  0.51100000000E-03 0. -1.
    9900012    2    1    2    0    0 -0.15003543518E+02  0.23757334710E+01  0.10951223363E+02  0.72461555576E+02  0.69999980826E+02 0.  0.
         12    1    1    2    0    0  0.15003543518E+02 -0.23757334710E+01 -0.10951223363E+02  0.18726444424E+02  0.00000000000E+00 0. -1.
         11    1    3    3    0    0  0.90262660126E+00  0.17070141565E+02  0.14288361871E+02  0.22279177566E+02  0.51100000000E-03 0. -1.
        -11    1    3    3    0    0 -0.88312774099E+01 -0.16870169993E+02  0.18849491081E+02  0.26793607644E+02  0.51100000000E-03 0.  1.
         12    1    3    3    0    0 -0.70748927094E+01  0.21757618995E+01 -0.22186629589E+02  0.23388770366E+02  0.00000000000E+00 0. -1.
</event>
<event>
 7    1  0.2941727E-013  0.7246157E+02  0.7816164E-02  0.1226708E+00
        -11   -1    0    0    0    0  0.00000000000E+00  0.00000000000E+00  0.45593999997E+02  0.45594000000E+02  0.51100000000E-03 0.  1.
         11   -1    0    0    0    0 -0.00000000000E+00 -0.00000000000E+00 -0.45593999997E+02  0.45594000000E+02  0.51100000000E-03 0. -1.
    9900012    2    1    2    0    0  0.16627887432E+02 -0.36933317507E+01  0.77814943989E+01  0.72461574955E+02  0.70000006071E+02 0.  0.
         12    1    1    2    0    0 -0.16627887432E+02  0.36933317507E+01 -0.77814943989E+01  0.18726425045E+02  0.00000000000E+00 0. -1.
         11    1    3    3    0    0 -0.14234797952E+01 -0.15568322852E+02 -0.13749753752E+02  0.20819574915E+02  0.51100000000E-03 0. -1.
        -11    1    3    3    0    0  0.36457674876E+01 -0.17674985745E+01 -0.12008385575E+02  0.12673476089E+02  0.51100000000E-03 0.  1.
        -12    1    3    3    0    0  0.14405599740E+02  0.13642489676E+02  0.33539633726E+02  0.38968523951E+02  0.00000000000E+00 0.  1.
</event>
<event>
 7    1  0.2941727E-013  0.7246156E+02  0.7816164E-02  0.1226708E+00
        -11   -1    0    0    0    0  0.00000000000E+00  0.00000000000E+00  0.45593999997E+02  0.45594000000E+02  0.51100000000E-03 0. -1.
         11   -1    0    0    0    0 -0.00000000000E+00 -0.00000000000E+00 -0.45593999997E+02  0.45594000000E+02  0.51100000000E-03 0.  1.
    9900012    2    1    2    0    0 -0.11566058581E+02 -0.71179675510E+01 -0.12893420438E+02  0.72461562438E+02  0.69999989766E+02 0.  0.
         12    1    1    2    0    0  0.11566058581E+02  0.71179675510E+01  0.12893420438E+02  0.18726437562E+02  0.00000000000E+00 0. -1.
         11    1    3    3    0    0  0.10402967526E+02  0.19457684354E+02 -0.16255993382E+02  0.27405848552E+02  0.51100000000E-03 0. -1.
        -11    1    3    3    0    0  0.65727877265E+00  0.55709874207E+01  0.72546431771E+00  0.56563428966E+01  0.51100000000E-03 0.  1.
        -12    1    3    3    0    0 -0.22626304880E+02 -0.32146639326E+02  0.26371086262E+01  0.39399370989E+02  0.00000000000E+00 0.  1.
</event>
<event>
 7    1  0.2941727E-013  0.7246156E+02  0.7816164E-02  0.1226708E+00
        -11   -1    0    0    0    0  0.00000000000E+00  0.00000000000E+00  0.45593999997E+02  0.45594000000E+02  0.51100000000E-03 0.  1.
         11   -1    0    0    0    0 -0.00000000000E+00 -0.00000000000E+00 -0.45593999997E+02  0.45594000000E+02  0.51100000000E-03 0. -1.
    9900012    2    1    2    0    0 -0.15186356060E+02 -0.46532491232E+00 -0.10947031342E+02  0.72461563264E+02  0.69999990841E+02 0.  0.
         12    1    1    2    0    0  0.15186356060E+02  0.46532491232E+00  0.10947031342E+02  0.18726436736E+02  0.00000000000E+00 0. -1.
         11    1    3    3    0    0 -0.12809501171E+02  0.95443017418E+01 -0.58306546702E+01  0.17005103649E+02  0.51100000000E-03 0. -1.
        -11    1    3    3    0    0 -0.64184747824E+01  0.21815085691E+02  0.11544177492E+01  0.22769002236E+02  0.51100000000E-03 0.  1.
        -12    1    3    3    0    0  0.40416198934E+01 -0.31824712345E+02 -0.62707944206E+01  0.32687457378E+02  0.00000000000E+00 0.  1.
</event>
<event>
 7    1  0.2941727E-013  0.7246158E+02  0.7816164E-02  0.1226708E+00
        -11   -1    0    0    0    0  0.00000000000E+00  0.00000000000E+00  0.45593999997E+02  0.45594000000E+02  0.51100000000E-03 0. -1.
         11   -1    0    0    0    0 -0.00000000000E+00 -0.00000000000E+00 -0.45593999997E+02  0.45594000000E+02  0.51100000000E-03 0.  1.
    9900012    2    1    2    0    0  0.14597528424E+02  0.14715864693E+01 -0.11637241327E+02  0.72461580467E+02  0.70000013252E+02 0.  0.
         12    1    1    2    0    0 -0.14597528424E+02 -0.14715864693E+01  0.11637241327E+02  0.18726419533E+02  0.00000000000E+00 0. -1.
         11    1    3    3    0    0  0.11981211022E+02  0.26124213983E+02  0.35478270693E+01  0.28958781931E+02  0.51100000000E-03 0. -1.
        -11    1    3    3    0    0 -0.14277886444E+02 -0.57083201986E+01 -0.53466221734E+01  0.16279721427E+02  0.51100000000E-03 0.  1.
        -12    1    3    3    0    0  0.16894203846E+02 -0.18944307315E+02 -0.98384462231E+01  0.27223077110E+02  0.00000000000E+00 0.  1.
</event>
<event>
 7    1  0.2941727E-013  0.7246159E+02  0.7816164E-02  0.1226708E+00
        -11   -1    0    0    0    0  0.00000000000E+00  0.00000000000E+00  0.45593999997E+02  0.45594000000E+02  0.51100000000E-03 0. -1.
         11   -1    0    0    0    0 -0.00000000000E+00 -0.00000000000E+00 -0.45593999997E+02  0.45594000000E+02  0.51100000000E-03 0.  1.
    9900012    2    1    2    0    0 -0.15878501494E+01  0.53704877228E+01 -0.17869388796E+02  0.72461589174E+02  0.70000024595E+02 0.  0.
         12    1    1    2    0    0  0.15878501494E+01 -0.53704877228E+01  0.17869388796E+02  0.18726410826E+02  0.00000000000E+00 0. -1.
         11    1    3    3    0    0  0.22392862940E+01  0.15877649975E+02 -0.10967343110E+02  0.19426702936E+02  0.51100000000E-03 0. -1.
        -11    1    3    3    0    0  0.13247267512E+02  0.21070526624E+01 -0.22841080505E+02  0.26488577280E+02  0.51100000000E-03 0.  1.
         12    1    3    3    0    0 -0.17074403955E+02 -0.12614214914E+02  0.15939034819E+02  0.26546308958E+02  0.00000000000E+00 0. -1.
</event>
<event>
 7    1  0.2941727E-013  0.7246154E+02  0.7816164E-02  0.1226708E+00
        -11   -1    0    0    0    0  0.00000000000E+00  0.00000000000E+00  0.45593999997E+02  0.45594000000E+02  0.51100000000E-03 0. -1.
         11   -1    0    0    0    0 -0.00000000000E+00 -0.00000000000E+00 -0.45593999997E+02  0.45594000000E+02  0.51100000000E-03 0.  1.
    9900012    2    1    2    0    0  0.58887603365E+01 -0.95215652936E+01  0.15011417903E+02  0.72461538204E+02  0.69999958196E+02 0.  0.
         12    1    1    2    0    0 -0.58887603365E+01  0.95215652936E+01 -0.15011417903E+02  0.18726461796E+02  0.00000000000E+00 0. -1.
         11    1    3    3    0    0  0.18946503725E+02  0.78914383951E+01  0.65084239131E+01  0.21531474298E+02  0.51100000000E-03 0. -1.
        -11    1    3    3    0    0  0.10029492606E+02  0.99342807990E+01 -0.11648445999E+00  0.14117160686E+02  0.51100000000E-03 0.  1.
        -12    1    3    3    0    0 -0.23087235995E+02 -0.27347284488E+02  0.86194784499E+01  0.36812903220E+02  0.00000000000E+00 0.  1.
</event>
<event>
 7    1  0.2941727E-013  0.7246164E+02  0.7816164E-02  0.1226708E+00
        -11   -1    0    0    0    0  0.00000000000E+00  0.00000000000E+00  0.45593999997E+02  0.45594000000E+02  0.51100000000E-03 0.  1.
         11   -1    0    0    0    0 -0.00000000000E+00 -0.00000000000E+00 -0.45593999997E+02  0.45594000000E+02  0.51100000000E-03 0. -1.
    9900012    2    1    2    0    0  0.17598281817E+02  0.80639624963E+00 -0.63503477522E+01  0.72461635847E+02  0.70000085394E+02 0.  0.
         12    1    1    2    0    0 -0.17598281817E+02 -0.80639624963E+00  0.63503477522E+01  0.18726364153E+02  0.00000000000E+00 0. -1.
         11    1    3    3    0    0 -0.63301105873E+01  0.29376786272E+02 -0.95919151102E+01  0.31544741360E+02  0.51100000000E-03 0. -1.
        -11    1    3    3    0    0 -0.88974759674E+00  0.14932920841E+01  0.61685089208E+00  0.18444720975E+01  0.51100000000E-03 0.  1.
        -12    1    3    3    0    0  0.24818140001E+02 -0.30063682106E+02  0.26247164660E+01  0.39072422390E+02  0.00000000000E+00 0.  1.
</event>
<event>
 7    1  0.2941727E-013  0.7246154E+02  0.7816164E-02  0.1226708E+00
        -11   -1    0    0    0    0  0.00000000000E+00  0.00000000000E+00  0.45593999997E+02  0.45594000000E+02  0.51100000000E-03 0. -1.
         11   -1    0    0    0    0 -0.00000000000E+00 -0.00000000000E+00 -0.45593999997E+02  0.45594000000E+02  0.51100000000E-03 0.  1.
    9900012    2    1    2    0    0  0.14275402947E+02 -0.19727619687E+01 -0.11958326057E+02  0.72461535273E+02  0.69999954378E+02 0.  0.
         12    1    1    2    0    0 -0.14275402947E+02  0.19727619687E+01  0.11958326057E+02  0.18726464727E+02  0.00000000000E+00 0. -1.
         11    1    3    3    0    0 -0.42471227796E+01 -0.10702437548E+02  0.98621873688E+01  0.15160572593E+02  0.51100000000E-03 0. -1.
        -11    1    3    3    0    0 -0.79315291167E+01  0.21463345020E+02 -0.48514919506E+01  0.23390624361E+02  0.51100000000E-03 0.  1.
        -12    1    3    3    0    0  0.26454054843E+02 -0.12733669441E+02 -0.16969021475E+02  0.33910338319E+02  0.00000000000E+00 0.  1.
</event>
<event>
 7    1  0.2941727E-013  0.7246161E+02  0.7816164E-02  0.1226708E+00
        -11   -1    0    0    0    0  0.00000000000E+00  0.00000000000E+00  0.45593999997E+02  0.45594000000E+02  0.51100000000E-03 0. -1.
         11   -1    0    0    0    0 -0.00000000000E+00 -0.00000000000E+00 -0.45593999997E+02  0.45594000000E+02  0.51100000000E-03 0.  1.
    9900012    2    1    2    0    0  0.84516517368E+01  0.10725406827E+02 -0.12814563989E+02  0.72461606356E+02  0.70000046977E+02 0.  0.
         12    1    1    2    0    0 -0.84516517368E+01 -0.10725406827E+02  0.12814563989E+02  0.18726393644E+02  0.00000000000E+00 0. -1.
         11    1    3    3    0    0 -0.66055664356E+01 -0.25356648787E+02  0.21630624351E+01  0.26292051746E+02  0.51100000000E-03 0. -1.
        -11    1    3    3    0    0  0.42617071719E+00  0.49123173823E-01 -0.63108943240E+01  0.63254582440E+01  0.51100000000E-03 0.  1.
        -12    1    3    3    0    0  0.14631047455E+02  0.36032932441E+02 -0.86667321001E+01  0.39844096366E+02  0.00000000000E+00 0.  1.
</event>
<event>
 7    1  0.2941727E-013  0.7246199E+02  0.7816164E-02  0.1226707E+00
        -11   -1    0    0    0    0  0.00000000000E+00  0.00000000000E+00  0.45593999997E+02  0.45594000000E+02  0.51100000000E-03 0.  1.
         11   -1    0    0    0    0 -0.00000000000E+00 -0.00000000000E+00 -0.45593999997E+02  0.45594000000E+02  0.51100000000E-03 0. -1.
    9900012    2    1    2    0    0  0.10667910308E+02  0.78509300144E+01  0.13237149112E+02  0.72461987904E+02  0.70000544011E+02 0.  0.
         12    1    1    2    0    0 -0.10667910308E+02 -0.78509300144E+01 -0.13237149112E+02  0.18726012096E+02  0.00000000000E+00 0. -1.
         11    1    3    3    0    0  0.80441335325E+01  0.30337077279E+01  0.87268749340E+01  0.12250298496E+02  0.51100000000E-03 0. -1.
        -11    1    3    3    0    0  0.20962239996E+02  0.23916697320E+02  0.96596711164E+01  0.33237526423E+02  0.51100000000E-03 0.  1.
         12    1    3    3    0    0 -0.18338463221E+02 -0.19099475034E+02 -0.51493969387E+01  0.26974162984E+02  0.00000000000E+00 0. -1.
</event>
<event>
 7    1  0.2941727E-013  0.7246159E+02  0.7816164E-02  0.1226708E+00
        -11   -1    0    0    0    0  0.00000000000E+00  0.00000000000E+00  0.45593999997E+02  0.45594000000E+02  0.51100000000E-03 0.  1.
         11   -1    0    0    0    0 -0.00000000000E+00 -0.00000000000E+00 -0.45593999997E+02  0.45594000000E+02  0.51100000000E-03 0. -1.
    9900012    2    1    2    0    0  0.41797510206E+01 -0.69410463711E+01  0.16882834460E+02  0.72461587030E+02  0.70000021801E+02 0.  0.
         12    1    1    2    0    0 -0.41797510206E+01  0.69410463711E+01 -0.16882834460E+02  0.18726412970E+02  0.00000000000E+00 0. -1.
         11    1    3    3    0    0 -0.28845385898E+01  0.11064414728E+02 -0.11244188671E+02  0.16036633540E+02  0.51100000000E-03 0. -1.
        -11    1    3    3    0    0  0.30821546886E+01  0.14179114822E+02  0.17362515310E+01  0.14613745047E+02  0.51100000000E-03 0.  1.
        -12    1    3    3    0    0  0.39821349218E+01 -0.32184575921E+02  0.26390771601E+02  0.41811208443E+02  0.00000000000E+00 0.  1.
</event>
<event>
 7    1  0.2941727E-013  0.7246156E+02  0.7816164E-02  0.1226708E+00
        -11   -1    0    0    0    0  0.00000000000E+00  0.00000000000E+00  0.45593999997E+02  0.45594000000E+02  0.51100000000E-03 0. -1.
         11   -1    0    0    0    0 -0.00000000000E+00 -0.00000000000E+00 -0.45593999997E+02  0.45594000000E+02  0.51100000000E-03 0.  1.
    9900012    2    1    2    0    0 -0.10030516123E+02  0.15713400961E+02  0.17768656659E+01  0.72461562136E+02  0.69999989373E+02 0.  0.
         12    1    1    2    0    0  0.10030516123E+02 -0.15713400961E+02 -0.17768656659E+01  0.18726437864E+02  0.00000000000E+00 0. -1.
         11    1    3    3    0    0 -0.12339660417E+00 -0.19455017049E+01 -0.77738522112E+01  0.80145481512E+01  0.51100000000E-03 0. -1.
        -11    1    3    3    0    0  0.20450071857E+01  0.27041992423E+02 -0.18303228447E+02  0.32717878605E+02  0.51100000000E-03 0.  1.
         12    1    3    3    0    0 -0.11952126705E+02 -0.93830897566E+01  0.27853946324E+02  0.31729135380E+02  0.00000000000E+00 0. -1.
</event>
<event>
 7    1  0.2941727E-013  0.7246164E+02  0.7816164E-02  0.1226708E+00
        -11   -1    0    0    0    0  0.00000000000E+00  0.00000000000E+00  0.45593999997E+02  0.45594000000E+02  0.51100000000E-03 0.  1.
         11   -1    0    0    0    0 -0.00000000000E+00 -0.00000000000E+00 -0.45593999997E+02  0.45594000000E+02  0.51100000000E-03 0. -1.
    9900012    2    1    2    0    0  0.65413040875E+00 -0.13358410587E+02  0.13107315463E+02  0.72461635200E+02  0.70000084551E+02 0.  0.
         12    1    1    2    0    0 -0.65413040875E+00  0.13358410587E+02 -0.13107315463E+02  0.18726364800E+02  0.00000000000E+00 0. -1.
         11    1    3    3    0    0 -0.41360874329E+01  0.10932602853E+02 -0.90631163874E+01  0.14790845253E+02  0.51100000000E-03 0. -1.
        -11    1    3    3    0    0 -0.12430887374E+02  0.89756102029E+01  0.31265445380E+01  0.15648125141E+02  0.51100000000E-03 0.  1.
        -12    1    3    3    0    0  0.17221105216E+02 -0.33266623643E+02  0.19043887312E+02  0.42022664806E+02  0.00000000000E+00 0.  1.
</event>
<event>
 7    1  0.2941727E-013  0.7246157E+02  0.7816164E-02  0.1226708E+00
        -11   -1    0    0    0    0  0.00000000000E+00  0.00000000000E+00  0.45593999997E+02  0.45594000000E+02  0.51100000000E-03 0.  1.
         11   -1    0    0    0    0 -0.00000000000E+00 -0.00000000000E+00 -0.45593999997E+02  0.45594000000E+02  0.51100000000E-03 0. -1.
    9900012    2    1    2    0    0  0.47368732068E+01 -0.14648740382E+02  0.10660936844E+02  0.72461571164E+02  0.70000001133E+02 0.  0.
         12    1    1    2    0    0 -0.47368732068E+01  0.14648740382E+02 -0.10660936844E+02  0.18726428836E+02  0.00000000000E+00 0. -1.
         11    1    3    3    0    0 -0.98484004166E+01  0.45246157301E+01  0.91420787457E+01  0.14178883677E+02  0.51100000000E-03 0. -1.
        -11    1    3    3    0    0 -0.11440336823E+02 -0.17750834720E+02  0.17742031930E+02  0.27581753700E+02  0.51100000000E-03 0.  1.
         12    1    3    3    0    0  0.26025610446E+02 -0.14225213916E+01 -0.16223173832E+02  0.30700933787E+02  0.00000000000E+00 0. -1.
</event>
<event>
 7    1  0.2941727E-013  0.7246164E+02  0.7816164E-02  0.1226708E+00
        -11   -1    0    0    0    0  0.00000000000E+00  0.00000000000E+00  0.45593999997E+02  0.45594000000E+02  0.51100000000E-03 0.  1.
         11   -1    0    0    0    0 -0.00000000000E+00 -0.00000000000E+00 -0.45593999997E+02  0.45594000000E+02  0.51100000000E-03 0. -1.
    9900012    2    1    2    0    0 -0.17352463829E+02  0.70346642327E+01 -0.28666497947E+00  0.72461636802E+02  0.70000086638E+02 0.  0.
         12    1    1    2    0    0  0.17352463829E+02 -0.70346642327E+01  0.28666497947E+00  0.18726363198E+02  0.00000000000E+00 0. -1.
         11    1    3    3    0    0  0.37772867746E+01  0.18394810254E+02  0.36191711394E+01  0.19124208210E+02  0.51100000000E-03 0. -1.
        -11    1    3    3    0    0  0.10200741826E+02  0.56011415314E+01  0.97510040931E+01  0.15182555824E+02  0.51100000000E-03 0.  1.
         12    1    3    3    0    0 -0.31330492430E+02 -0.16961287553E+02 -0.13656840212E+02  0.38154872768E+02  0.00000000000E+00 0. -1.
</event>
<event>
 7    1  0.2941727E-013  0.7246154E+02  0.7816164E-02  0.1226708E+00
        -11   -1    0    0    0    0  0.00000000000E+00  0.00000000000E+00  0.45593999997E+02  0.45594000000E+02  0.51100000000E-03 0.  1.
         11   -1    0    0    0    0 -0.00000000000E+00 -0.00000000000E+00 -0.45593999997E+02  0.45594000000E+02  0.51100000000E-03 0. -1.
    9900012    2    1    2    0    0  0.55554928685E+01 -0.17118854890E+02  0.51731521244E+01  0.72461542869E+02  0.69999964274E+02 0.  0.
         12    1    1    2    0    0 -0.55554928685E+01  0.17118854890E+02 -0.51731521244E+01  0.18726457131E+02  0.00000000000E+00 0. -1.
         11    1    3    3    0    0 -0.18750327866E+02 -0.14425244996E+02  0.42713163717E+01  0.24039688685E+02  0.51100000000E-03 0. -1.
        -11    1    3    3    0    0  0.16753937395E+01 -0.16471562533E+02  0.11207774666E+02  0.19993337132E+02  0.51100000000E-03 0.  1.
         12    1    3    3    0    0  0.22630426995E+02  0.13777952638E+02 -0.10305938913E+02  0.28428517052E+02  0.00000000000E+00 0. -1.
</event>
<event>
 7    1  0.2941727E-013  0.7246155E+02  0.7816164E-02  0.1226708E+00
        -11   -1    0    0    0    0  0.00000000000E+00  0.00000000000E+00  0.45593999997E+02  0.45594000000E+02  0.51100000000E-03 0.  1.
         11   -1    0    0    0    0 -0.00000000000E+00 -0.00000000000E+00 -0.45593999997E+02  0.45594000000E+02  0.51100000000E-03 0. -1.
    9900012    2    1    2    0    0  0.10361672586E+02 -0.20417355526E+00 -0.15597245849E+02  0.72461547488E+02  0.69999970291E+02 0.  0.
         12    1    1    2    0    0 -0.10361672586E+02  0.20417355526E+00  0.15597245849E+02  0.18726452512E+02  0.00000000000E+00 0. -1.
         11    1    3    3    0    0 -0.81503521917E+01  0.12645696550E+01 -0.54663640946E+01  0.98948731138E+01  0.51100000000E-03 0. -1.
        -11    1    3    3    0    0  0.55958962657E+01 -0.26142272679E+02  0.96326533513E+01  0.28416904946E+02  0.51100000000E-03 0.  1.
         12    1    3    3    0    0  0.12916128512E+02  0.24673529469E+02 -0.19763535105E+02  0.34149769429E+02  0.00000000000E+00 0. -1.
</event>
<event>
 7    1  0.3807254E-013  0.7246171E+02  0.7816164E-02  0.1226708E+00
        -11   -1    0    0    0    0  0.00000000000E+00  0.00000000000E+00  0.45593999997E+02  0.45594000000E+02  0.51100000000E-03 0. -1.
         11   -1    0    0    0    0 -0.00000000000E+00 -0.00000000000E+00 -0.45593999997E+02  0.45594000000E+02  0.51100000000E-03 0.  1.
    9900012    2    1    2    0    0 -0.24920224538E+01 -0.14980830860E+02 -0.10956204896E+02  0.72461711129E+02  0.70000183463E+02 0.  0.
         12    1    1    2    0    0  0.24920224538E+01  0.14980830860E+02  0.10956204896E+02  0.18726288871E+02  0.00000000000E+00 0. -1.
         11    1    3    3    0    0  0.67654639857E+01 -0.56379095954E+01  0.10026844890E+02  0.13345229344E+02  0.51100000000E-03 0. -1.
        -11    1    3    3    0    0  0.17968587923E+02 -0.53969224071E+01 -0.25060554012E+02  0.31305403544E+02  0.51100000000E-03 0.  1.
         12    1    3    3    0    0 -0.27226074363E+02 -0.39459988570E+01  0.40775042263E+01  0.27811078241E+02  0.00000000000E+00 0. -1.
</event>
<event>
 7    1  0.2941727E-013  0.7246157E+02  0.7816164E-02  0.1226708E+00
        -11   -1    0    0    0    0  0.00000000000E+00  0.00000000000E+00  0.45593999997E+02  0.45594000000E+02  0.51100000000E-03 0. -1.
         11   -1    0    0    0    0 -0.00000000000E+00 -0.00000000000E+00 -0.45593999997E+02  0.45594000000E+02  0.51100000000E-03 0.  1.
    9900012    2    1    2    0    0 -0.37882588770E+01  0.17568882520E+02  0.52595169388E+01  0.72461573305E+02  0.70000003922E+02 0.  0.
         12    1    1    2    0    0  0.37882588770E+01 -0.17568882520E+02 -0.52595169388E+01  0.18726426695E+02  0.00000000000E+00 0. -1.
         11    1    3    3    0    0 -0.29868748602E+01  0.11555329000E+02  0.26665370360E+02  0.29214534507E+02  0.51100000000E-03 0. -1.
        -11    1    3    3    0    0 -0.76377965013E+01  0.19257325583E+02 -0.54678869596E+01  0.21426112855E+02  0.51100000000E-03 0.  1.
        -12    1    3    3    0    0  0.68364124845E+01 -0.13243772062E+02 -0.15937966462E+02  0.21820925944E+02  0.00000000000E+00 0.  1.
</event>
<event>
 7    1  0.2941727E-013  0.7246153E+02  0.7816164E-02  0.1226708E+00
        -11   -1    0    0    0    0  0.00000000000E+00  0.00000000000E+00  0.45593999997E+02  0.45594000000E+02  0.51100000000E-03 0.  1.
         11   -1    0    0    0    0 -0.00000000000E+00 -0.00000000000E+00 -0.45593999997E+02  0.45594000000E+02  0.51100000000E-03 0. -1.
    9900012    2    1    2    0    0 -0.10010493400E+02  0.68563942044E+01  0.14263956224E+02  0.72461532988E+02  0.69999951402E+02 0.  0.
         12    1    1    2    0    0  0.10010493400E+02 -0.68563942044E+01 -0.14263956224E+02  0.18726467012E+02  0.00000000000E+00 0. -1.
         11    1    3    3    0    0  0.15318015861E+02 -0.67670482789E+01 -0.15643757341E+02  0.22916406706E+02  0.51100000000E-03 0. -1.
        -11    1    3    3    0    0 -0.65668146188E+00  0.18707261480E-01 -0.47981679392E+01  0.48429326175E+01  0.51100000000E-03 0.  1.
        -12    1    3    3    0    0 -0.24671827799E+02  0.13604735222E+02  0.34705881504E+02  0.44702193664E+02  0.00000000000E+00 0.  1.
</event>
<event>
 7    1  0.2941727E-013  0.7246152E+02  0.7816164E-02  0.1226708E+00
        -11   -1    0    0    0    0  0.00000000000E+00  0.00000000000E+00  0.45593999997E+02  0.45594000000E+02  0.51100000000E-03 0.  1.
         11   -1    0    0    0    0 -0.00000000000E+00 -0.00000000000E+00 -0.45593999997E+02  0.45594000000E+02  0.51100000000E-03 0. -1.
    9900012    2    1    2    0    0 -0.17111143562E+01 -0.29419547364E+00  0.18645824533E+02  0.72461515123E+02  0.69999928129E+02 0.  0.
         12    1    1    2    0    0  0.17111143562E+01  0.29419547364E+00 -0.18645824533E+02  0.18726484877E+02  0.00000000000E+00 0. -1.
         11    1    3    3    0    0 -0.90354768122E+01  0.17876931595E+02 -0.29773217992E+01  0.20250653565E+02  0.51100000000E-03 0. -1.
        -11    1    3    3    0    0 -0.53557038206E+01  0.12585687133E+02  0.27142853217E+01  0.13944548365E+02  0.51100000000E-03 0.  1.
         12    1    3    3    0    0  0.12680066277E+02 -0.30756814202E+02  0.18908861011E+02  0.38266313193E+02  0.00000000000E+00 0. -1.
</event>
<event>
 7    1  0.2941727E-013  0.7246161E+02  0.7816164E-02  0.1226708E+00
        -11   -1    0    0    0    0  0.00000000000E+00  0.00000000000E+00  0.45593999997E+02  0.45594000000E+02  0.51100000000E-03 0.  1.
         11   -1    0    0    0    0 -0.00000000000E+00 -0.00000000000E+00 -0.45593999997E+02  0.45594000000E+02  0.51100000000E-03 0. -1.
    9900012    2    1    2    0    0 -0.60678330730E+00  0.12933684453E+02  0.13528834735E+02  0.72461608229E+02  0.70000049416E+02 0.  0.
         12    1    1    2    0    0  0.60678330730E+00 -0.12933684453E+02 -0.13528834735E+02  0.18726391771E+02  0.00000000000E+00 0. -1.
         11    1    3    3    0    0  0.56084880449E+01 -0.13056715799E+02  0.99463741370E+00  0.14245078780E+02  0.51100000000E-03 0. -1.
        -11    1    3    3    0    0  0.95960787840E+01 -0.11348087649E+02  0.93176750397E+01  0.17540891931E+02  0.51100000000E-03 0.  1.
         12    1    3    3    0    0 -0.15811350136E+02  0.37338487901E+02  0.32165222812E+01  0.40675637517E+02  0.00000000000E+00 0. -1.
</event>
<event>
 7    1  0.2941727E-013  0.7246170E+02  0.7816164E-02  0.1226708E+00
        -11   -1    0    0    0    0  0.00000000000E+00  0.00000000000E+00  0.45593999997E+02  0.45594000000E+02  0.51100000000E-03 0. -1.
         11   -1    0    0    0    0 -0.00000000000E+00 -0.00000000000E+00 -0.45593999997E+02  0.45594000000E+02  0.51100000000E-03 0.  1.
    9900012    2    1    2    0    0  0.91902494330E+01  0.73902093181E+01 -0.14546419536E+02  0.72461702990E+02  0.70000172860E+02 0.  0.
         12    1    1    2    0    0 -0.91902494330E+01 -0.73902093181E+01  0.14546419536E+02  0.18726297010E+02  0.00000000000E+00 0. -1.
         11    1    3    3    0    0  0.69313491096E+01  0.13791459390E+02  0.13423959773E+01  0.15493546392E+02  0.51100000000E-03 0. -1.
        -11    1    3    3    0    0  0.44380157309E+01  0.88926788165E+01 -0.32676294175E+02  0.34154295797E+02  0.51100000000E-03 0.  1.
         12    1    3    3    0    0 -0.21791154074E+01 -0.15293928888E+02  0.16787478661E+02  0.22813860800E+02  0.00000000000E+00 0. -1.
</event>
<event>
 7    1  0.2941727E-013  0.7246156E+02  0.7816164E-02  0.1226708E+00
        -11   -1    0    0    0    0  0.00000000000E+00  0.00000000000E+00  0.45593999997E+02  0.45594000000E+02  0.51100000000E-03 0. -1.
         11   -1    0    0    0    0 -0.00000000000E+00 -0.00000000000E+00 -0.45593999997E+02  0.45594000000E+02  0.51100000000E-03 0.  1.
    9900012    2    1    2    0    0  0.17390824275E+02  0.52834201915E+01  0.45082306607E+01  0.72461563030E+02  0.69999990537E+02 0.  0.
         12    1    1    2    0    0 -0.17390824275E+02 -0.52834201915E+01 -0.45082306607E+01  0.18726436970E+02  0.00000000000E+00 0. -1.
         11    1    3    3    0    0 -0.38285007517E+00 -0.57967508741E+01  0.20458517861E+02  0.21267342293E+02  0.51100000000E-03 0. -1.
        -11    1    3    3    0    0  0.20048827521E+02 -0.13193262386E+02 -0.10585573727E+02  0.26231127096E+02  0.51100000000E-03 0.  1.
        -12    1    3    3    0    0 -0.22751531702E+01  0.24273433451E+02 -0.53647134737E+01  0.24963093641E+02  0.00000000000E+00 0.  1.
</event>
<event>
 7    1  0.2941727E-013  0.7246174E+02  0.7816164E-02  0.1226708E+00
        -11   -1    0    0    0    0  0.00000000000E+00  0.00000000000E+00  0.45593999997E+02  0.45594000000E+02  0.51100000000E-03 0. -1.
         11   -1    0    0    0    0 -0.00000000000E+00 -0.00000000000E+00 -0.45593999997E+02  0.45594000000E+02  0.51100000000E-03 0.  1.
    9900012    2    1    2    0    0  0.11070472079E+02  0.50746574173E+01 -0.14225516320E+02  0.72461739975E+02  0.70000221040E+02 0.  0.
         12    1    1    2    0    0 -0.11070472079E+02 -0.50746574173E+01  0.14225516320E+02  0.18726260025E+02  0.00000000000E+00 0. -1.
         11    1    3    3    0    0 -0.54679515891E+01 -0.58197793148E+01 -0.10411425195E+02  0.13121208051E+02  0.51100000000E-03 0. -1.
        -11    1    3    3    0    0  0.30197473894E+02  0.20180185906E+02 -0.15102850225E+02  0.39334760937E+02  0.51100000000E-03 0.  1.
         12    1    3    3    0    0 -0.13659050226E+02 -0.92857491735E+01  0.11288759100E+02  0.20005770987E+02  0.00000000000E+00 0. -1.
</event>
<event>
 7    1  0.2941727E-013  0.7246159E+02  0.7816164E-02  0.1226708E+00
        -11   -1    0    0    0    0  0.00000000000E+00  0.00000000000E+00  0.45593999997E+02  0.45594000000E+02  0.51100000000E-03 0.  1.
         11   -1    0    0    0    0 -0.00000000000E+00 -0.00000000000E+00 -0.45593999997E+02  0.45594000000E+02  0.51100000000E-03 0. -1.
    9900012    2    1    2    0    0  0.62074849692E+01 -0.57342841457E+01  0.16711179472E+02  0.72461590743E+02  0.70000026638E+02 0.  0.
         12    1    1    2    0    0 -0.62074849692E+01  0.57342841457E+01 -0.16711179472E+02  0.18726409257E+02  0.00000000000E+00 0. -1.
         11    1    3    3    0    0 -0.24406290445E+01 -0.45847236088E+00  0.15552351482E+02  0.15749365191E+02  0.51100000000E-03 0. -1.
        -11    1    3    3    0    0 -0.10450167404E+02  0.72761071272E+01  0.22235354150E+02  0.25623401572E+02  0.51100000000E-03 0.  1.
         12    1    3    3    0    0  0.19098281418E+02 -0.12551918912E+02 -0.21076526160E+02  0.31088823980E+02  0.00000000000E+00 0. -1.
</event>
<event>
 7    1  0.2941727E-013  0.7246158E+02  0.7816164E-02  0.1226708E+00
        -11   -1    0    0    0    0  0.00000000000E+00  0.00000000000E+00  0.45593999997E+02  0.45594000000E+02  0.51100000000E-03 0. -1.
         11   -1    0    0    0    0 -0.00000000000E+00 -0.00000000000E+00 -0.45593999997E+02  0.45594000000E+02  0.51100000000E-03 0.  1.
    9900012    2    1    2    0    0  0.45557307342E+01  0.11628175757E+02 -0.13953837395E+02  0.72461581977E+02  0.70000015218E+02 0.  0.
         12    1    1    2    0    0 -0.45557307342E+01 -0.11628175757E+02  0.13953837395E+02  0.18726418023E+02  0.00000000000E+00 0. -1.
         11    1    3    3    0    0 -0.18087448139E+02  0.82936306963E+01  0.19571551051E+02  0.27910315317E+02  0.51100000000E-03 0. -1.
        -11    1    3    3    0    0  0.28293161600E+00  0.26373528111E+01  0.14578012414E+01  0.30266920672E+01  0.51100000000E-03 0.  1.
        -12    1    3    3    0    0  0.22360247257E+02  0.69719224950E+00 -0.34983189687E+02  0.41524574592E+02  0.00000000000E+00 0.  1.
</event>
<event>
 7    1  0.2941727E-013  0.7246159E+02  0.7816164E-02  0.1226708E+00
        -11   -1    0    0    0    0  0.00000000000E+00  0.00000000000E+00  0.45593999997E+02  0.45594000000E+02  0.51100000000E-03 0.  1.
         11   -1    0    0    0    0 -0.00000000000E+00 -0.00000000000E+00 -0.45593999997E+02  0.45594000000E+02  0.51100000000E-03 0. -1.
    9900012    2    1    2    0    0 -0.27310930233E+01 -0.20675632827E+01  0.18410455481E+02  0.72461586620E+02  0.70000021268E+02 0.  0.
         12    1    1    2    0    0  0.27310930233E+01  0.20675632827E+01 -0.18410455481E+02  0.18726413380E+02  0.00000000000E+00 0. -1.
         11    1    3    3    0    0  0.11682290833E+02  0.41190087939E+01 -0.17305705841E+02  0.21282142925E+02  0.51100000000E-03 0. -1.
        -11    1    3    3    0    0 -0.11015465953E+02 -0.45285536416E+01 -0.29976425876E+01  0.12281455516E+02  0.51100000000E-03 0.  1.
        -12    1    3    3    0    0 -0.33979179030E+01 -0.16580184351E+01  0.38713803910E+02  0.38897988180E+02  0.00000000000E+00 0.  1.
</event>
<event>
 7    1  0.3175774E-013  0.7246160E+02  0.7816164E-02  0.1226708E+00
        -11   -1    0    0    0    0  0.00000000000E+00  0.00000000000E+00  0.45593999997E+02  0.45594000000E+02  0.51100000000E-03 0. -1.
         11   -1    0    0    0    0 -0.00000000000E+00 -0.00000000000E+00 -0.45593999997E+02  0.45594000000E+02  0.51100000000E-03 0.  1.
    9900012    2    1    2    0    0 -0.59865781161E+01  0.37439082008E+01 -0.17344221353E+02  0.72461602042E+02  0.70000041357E+02 0.  0.
         12    1    1    2    0    0  0.59865781161E+01 -0.37439082008E+01  0.17344221353E+02  0.18726397958E+02  0.00000000000E+00 0. -1.
         11    1    3    3    0    0 -0.52495580364E+01  0.14309222811E+01 -0.74550050939E+01  0.92294365680E+01  0.51100000000E-03 0. -1.
        -11    1    3    3    0    0  0.38605725275E+01 -0.20258175532E+02 -0.27402611029E+02  0.34295783816E+02  0.51100000000E-03 0.  1.
         12    1    3    3    0    0 -0.45975926071E+01  0.22571161451E+02  0.17513394770E+02  0.28936381657E+02  0.00000000000E+00 0. -1.
</event>
<event>
 7    1  0.2941727E-013  0.7246159E+02  0.7816164E-02  0.1226708E+00
        -11   -1    0    0    0    0  0.00000000000E+00  0.00000000000E+00  0.45593999997E+02  0.45594000000E+02  0.51100000000E-03 0. -1.
         11   -1    0    0    0    0 -0.00000000000E+00 -0.00000000000E+00 -0.45593999997E+02  0.45594000000E+02  0.51100000000E-03 0.  1.
    9900012    2    1    2    0    0  0.18069203096E+02 -0.33839492722E+01 -0.35680880104E+01  0.72461589099E+02  0.70000024496E+02 0.  0.
         12    1    1    2    0    0 -0.18069203096E+02  0.33839492722E+01  0.35680880104E+01  0.18726410901E+02  0.00000000000E+00 0. -1.
         11    1    3    3    0    0  0.31427504638E+02 -0.69927713482E+01 -0.61003902783E+01  0.32768913023E+02  0.51100000000E-03 0. -1.
        -11    1    3    3    0    0 -0.28766215639E+01 -0.26004162895E+01 -0.16580155812E+02  0.17027585957E+02  0.51100000000E-03 0.  1.
         12    1    3    3    0    0 -0.10481679978E+02  0.62092383656E+01  0.19112458080E+02  0.22665090119E+02  0.00000000000E+00 0. -1.
</event>
<event>
 7    1  0.2941727E-013  0.7246167E+02  0.7816164E-02  0.1226708E+00
        -11   -1    0    0    0    0  0.00000000000E+00  0.00000000000E+00  0.45593999997E+02  0.45594000000E+02  0.51100000000E-03 0.  1.
         11   -1    0    0    0    0 -0.00000000000E+00 -0.00000000000E+00 -0.45593999997E+02  0.45594000000E+02  0.51100000000E-03 0. -1.
    9900012    2    1    2    0    0 -0.36906477974E+01  0.91143112216E+01  0.15936868714E+02  0.72461672688E+02  0.70000133387E+02 0.  0.
         12    1    1    2    0    0  0.36906477974E+01 -0.91143112216E+01 -0.15936868714E+02  0.18726327312E+02  0.00000000000E+00 0. -1.
         11    1    3    3    0    0  0.26834843907E+02 -0.28294128982E+01  0.97181239096E+01  0.28680243329E+02  0.51100000000E-03 0. -1.
        -11    1    3    3    0    0  0.54885566320E+01  0.46050810366E+00  0.25813959199E+00  0.55138877325E+01  0.51100000000E-03 0.  1.
        -12    1    3    3    0    0 -0.36014048336E+02  0.11483216016E+02  0.59606052119E+01  0.38267541626E+02  0.00000000000E+00 0.  1.
</event>
<event>
 7    1  0.2941727E-013  0.7246173E+02  0.7816164E-02  0.1226708E+00
        -11   -1    0    0    0    0  0.00000000000E+00  0.00000000000E+00  0.45593999997E+02  0.45594000000E+02  0.51100000000E-03 0. -1.
         11   -1    0    0    0    0 -0.00000000000E+00 -0.00000000000E+00 -0.45593999997E+02  0.45594000000E+02  0.51100000000E-03 0.  1.
    9900012    2    1    2    0    0 -0.39434749821E+01  0.14977489610E+02  0.10526013764E+02  0.72461730865E+02  0.70000209172E+02 0.  0.
         12    1    1    2    0    0  0.39434749821E+01 -0.14977489610E+02 -0.10526013764E+02  0.18726269135E+02  0.00000000000E+00 0. -1.
         11    1    3    3    0    0 -0.40224794105E+01  0.29266460978E+02 -0.70886031349E+01  0.30380164145E+02  0.51100000000E-03 0. -1.
        -11    1    3    3    0    0  0.15651641989E+02  0.18310907034E+01  0.62622133369E+01  0.16957066558E+02  0.51100000000E-03 0.  1.
        -12    1    3    3    0    0 -0.15572637560E+02 -0.16120062071E+02  0.11352403562E+02  0.25124500162E+02  0.00000000000E+00 0.  1.
</event>
<event>
 7    1  0.2941727E-013  0.7246163E+02  0.7816164E-02  0.1226708E+00
        -11   -1    0    0    0    0  0.00000000000E+00  0.00000000000E+00  0.45593999997E+02  0.45594000000E+02  0.51100000000E-03 0.  1.
         11   -1    0    0    0    0 -0.00000000000E+00 -0.00000000000E+00 -0.45593999997E+02  0.45594000000E+02  0.51100000000E-03 0. -1.
    9900012    2    1    2    0    0 -0.11911467451E+02  0.71424426906E+01 -0.12561030126E+02  0.72461627627E+02  0.70000074687E+02 0.  0.
         12    1    1    2    0    0  0.11911467451E+02 -0.71424426906E+01  0.12561030126E+02  0.18726372373E+02  0.00000000000E+00 0. -1.
         11    1    3    3    0    0  0.28213352130E+01  0.42853094205E+01  0.48929932318E+00  0.51539522021E+01  0.51100000000E-03 0. -1.
        -11    1    3    3    0    0 -0.10346568731E+02  0.30109277497E+02 -0.21527453756E+02  0.38432425650E+02  0.51100000000E-03 0.  1.
         12    1    3    3    0    0 -0.43862339334E+01 -0.27252144227E+02  0.84771243070E+01  0.28875249775E+02  0.00000000000E+00 0. -1.
</event>
<event>
 7    1  0.2941727E-013  0.7246155E+02  0.7816164E-02  0.1226708E+00
        -11   -1    0    0    0    0  0.00000000000E+00  0.00000000000E+00  0.45593999997E+02  0.45594000000E+02  0.51100000000E-03 0. -1.
         11   -1    0    0    0    0 -0.00000000000E+00 -0.00000000000E+00 -0.45593999997E+02  0.45594000000E+02  0.51100000000E-03 0.  1.
    9900012    2    1    2    0    0 -0.10897049625E+02  0.11786125554E+02 -0.96447550553E+01  0.72461554897E+02  0.69999979942E+02 0.  0.
         12    1    1    2    0    0  0.10897049625E+02 -0.11786125554E+02  0.96447550553E+01  0.18726445103E+02  0.00000000000E+00 0. -1.
         11    1    3    3    0    0 -0.17870902987E+02 -0.11683043111E+01  0.84510745644E+01  0.19802898023E+02  0.51100000000E-03 0. -1.
        -11    1    3    3    0    0  0.38364917356E+01 -0.17950413247E+02 -0.76430902348E+01  0.19883481415E+02  0.51100000000E-03 0.  1.
         12    1    3    3    0    0  0.31373616265E+01  0.30904843112E+02 -0.10452739385E+02  0.32775175460E+02  0.00000000000E+00 0. -1.
</event>
<event>
 7    1  0.2941727E-013  0.7246157E+02  0.7816164E-02  0.1226708E+00
        -11   -1    0    0    0    0  0.00000000000E+00  0.00000000000E+00  0.45593999997E+02  0.45594000000E+02  0.51100000000E-03 0. -1.
         11   -1    0    0    0    0 -0.00000000000E+00 -0.00000000000E+00 -0.45593999997E+02  0.45594000000E+02  0.51100000000E-03 0.  1.
    9900012    2    1    2    0    0 -0.17966309892E+02 -0.19761984760E+01  0.48974964870E+01  0.72461571526E+02  0.70000001605E+02 0.  0.
         12    1    1    2    0    0  0.17966309892E+02  0.19761984760E+01 -0.48974964870E+01  0.18726428474E+02  0.00000000000E+00 0. -1.
         11    1    3    3    0    0  0.70261268217E+01 -0.92072942544E+01  0.20014108272E+01  0.11753568444E+02  0.51100000000E-03 0. -1.
        -11    1    3    3    0    0  0.12265764850E+02  0.16155810107E+02 -0.64260212363E+01  0.21277991840E+02  0.51100000000E-03 0.  1.
         12    1    3    3    0    0 -0.37258201563E+02 -0.89247143287E+01  0.93221068961E+01  0.39430011242E+02  0.00000000000E+00 0. -1.
</event>
<event>
 7    1  0.2941727E-013  0.7246156E+02  0.7816164E-02  0.1226708E+00
        -11   -1    0    0    0    0  0.00000000000E+00  0.00000000000E+00  0.45593999997E+02  0.45594000000E+02  0.51100000000E-03 0.  1.
         11   -1    0    0    0    0 -0.00000000000E+00 -0.00000000000E+00 -0.45593999997E+02  0.45594000000E+02  0.51100000000E-03 0. -1.
    9900012    2    1    2    0    0  0.56350265561E+01  0.16962676462E+02 -0.55851117106E+01  0.72461564411E+02  0.69999992336E+02 0.  0.
         12    1    1    2    0    0 -0.56350265561E+01 -0.16962676462E+02  0.55851117106E+01  0.18726435589E+02  0.00000000000E+00 0. -1.
         11    1    3    3    0    0 -0.39304241331E+01 -0.54523046308E+01 -0.55114997397E+00  0.67438584066E+01  0.51100000000E-03 0. -1.
        -11    1    3    3    0    0 -0.18460134636E+02 -0.62946710411E+01  0.11138181286E+02  0.22460154427E+02  0.51100000000E-03 0.  1.
         12    1    3    3    0    0  0.28025585325E+02  0.28709652134E+02 -0.16172143023E+02  0.43257551577E+02  0.00000000000E+00 0. -1.
</event>
<event>
 7    1  0.2941727E-013  0.7246158E+02  0.7816164E-02  0.1226708E+00
        -11   -1    0    0    0    0  0.00000000000E+00  0.00000000000E+00  0.45593999997E+02  0.45594000000E+02  0.51100000000E-03 0. -1.
         11   -1    0    0    0    0 -0.00000000000E+00 -0.00000000000E+00 -0.45593999997E+02  0.45594000000E+02  0.51100000000E-03 0.  1.
    9900012    2    1    2    0    0  0.64249367969E+01  0.28327794221E+01 -0.17360138485E+02  0.72461578550E+02  0.70000010754E+02 0.  0.
         12    1    1    2    0    0 -0.64249367969E+01 -0.28327794221E+01  0.17360138485E+02  0.18726421450E+02  0.00000000000E+00 0. -1.
         11    1    3    3    0    0 -0.11114728905E+02  0.18407264535E+02 -0.12753854664E+02  0.25000507902E+02  0.51100000000E-03 0. -1.
        -11    1    3    3    0    0  0.17149099618E+02  0.41107564770E+01 -0.16755205559E+02  0.24325436278E+02  0.51100000000E-03 0.  1.
        -12    1    3    3    0    0  0.39056608445E+00 -0.19685241590E+02  0.12148921737E+02  0.23135634370E+02  0.00000000000E+00 0.  1.
</event>
<event>
 7    1  0.2941727E-013  0.7246159E+02  0.7816164E-02  0.1226708E+00
        -11   -1    0    0    0    0  0.00000000000E+00  0.00000000000E+00  0.45593999997E+02  0.45594000000E+02  0.51100000000E-03 0. -1.
         11   -1    0    0    0    0 -0.00000000000E+00 -0.00000000000E+00 -0.45593999997E+02  0.45594000000E+02  0.51100000000E-03 0.  1.
    9900012    2    1    2    0    0  0.13271022483E+02  0.58579462621E+01 -0.11842422185E+02  0.72461587227E+02  0.70000022057E+02 0.  0.
         12    1    1    2    0    0 -0.13271022483E+02 -0.58579462621E+01  0.11842422185E+02  0.18726412773E+02  0.00000000000E+00 0. -1.
         11    1    3    3    0    0 -0.42013858245E+01  0.11423919697E+02 -0.63046237393E+01  0.13707876015E+02  0.51100000000E-03 0. -1.
        -11    1    3    3    0    0 -0.88447646848E+01  0.92402860531E+01  0.16856003985E+02  0.21159811418E+02  0.51100000000E-03 0.  1.
         12    1    3    3    0    0  0.26317172992E+02 -0.14806259488E+02 -0.22393802431E+02  0.37593899793E+02  0.00000000000E+00 0. -1.
</event>
<event>
 7    1  0.2941727E-013  0.7246159E+02  0.7816164E-02  0.1226708E+00
        -11   -1    0    0    0    0  0.00000000000E+00  0.00000000000E+00  0.45593999997E+02  0.45594000000E+02  0.51100000000E-03 0.  1.
         11   -1    0    0    0    0 -0.00000000000E+00 -0.00000000000E+00 -0.45593999997E+02  0.45594000000E+02  0.51100000000E-03 0. -1.
    9900012    2    1    2    0    0 -0.54821584688E+01  0.17876532590E+02  0.10266045601E+01  0.72461590951E+02  0.70000026910E+02 0.  0.
         12    1    1    2    0    0  0.54821584688E+01 -0.17876532590E+02 -0.10266045601E+01  0.18726409049E+02  0.00000000000E+00 0. -1.
         11    1    3    3    0    0 -0.27041027688E+02  0.15493811754E+02 -0.16626296770E+01  0.31209609398E+02  0.51100000000E-03 0. -1.
        -11    1    3    3    0    0  0.93497179134E+01  0.18358250411E+02  0.44202735218E+01  0.21070866178E+02  0.51100000000E-03 0.  1.
        -12    1    3    3    0    0  0.12209151306E+02 -0.15975529574E+02 -0.17310392847E+01  0.20181115375E+02  0.00000000000E+00 0.  1.
</event>
<event>
 7    1  0.2941727E-013  0.7246158E+02  0.7816164E-02  0.1226708E+00
        -11   -1    0    0    0    0  0.00000000000E+00  0.00000000000E+00  0.45593999997E+02  0.45594000000E+02  0.51100000000E-03 0. -1.
         11   -1    0    0    0    0 -0.00000000000E+00 -0.00000000000E+00 -0.45593999997E+02  0.45594000000E+02  0.51100000000E-03 0.  1.
    9900012    2    1    2    0    0  0.49409068359E+01 -0.78636004949E+01 -0.16261308746E+02  0.72461576550E+02  0.70000008149E+02 0.  0.
         12    1    1    2    0    0 -0.49409068359E+01  0.78636004949E+01  0.16261308746E+02  0.18726423450E+02  0.00000000000E+00 0. -1.
         11    1    3    3    0    0 -0.54692619576E+01 -0.55016550045E+01  0.22009436596E+01  0.80638196534E+01  0.51100000000E-03 0. -1.
        -11    1    3    3    0    0 -0.24119685552E+02  0.72684122819E+01 -0.12265612908E+02  0.28018463707E+02  0.51100000000E-03 0.  1.
         12    1    3    3    0    0  0.34529854345E+02 -0.96303577724E+01 -0.61966394972E+01  0.36379293190E+02  0.00000000000E+00 0. -1.
</event>
<event>
 7    1  0.2941727E-013  0.7246164E+02  0.7816164E-02  0.1226708E+00
        -11   -1    0    0    0    0  0.00000000000E+00  0.00000000000E+00  0.45593999997E+02  0.45594000000E+02  0.51100000000E-03 0.  1.
         11   -1    0    0    0    0 -0.00000000000E+00 -0.00000000000E+00 -0.45593999997E+02  0.45594000000E+02  0.51100000000E-03 0. -1.
    9900012    2    1    2    0    0 -0.17118041301E+02 -0.72604615990E+01  0.22214943973E+01  0.72461636820E+02  0.70000086662E+02 0.  0.
         12    1    1    2    0    0  0.17118041301E+02  0.72604615990E+01 -0.22214943973E+01  0.18726363180E+02  0.00000000000E+00 0. -1.
         11    1    3    3    0    0 -0.18997848683E+02 -0.65049158510E+01  0.16818308375E+02  0.26193275505E+02  0.51100000000E-03 0. -1.
        -11    1    3    3    0    0 -0.15496467007E+02 -0.79158819964E+01  0.59805367910E+01  0.18400230924E+02  0.51100000000E-03 0.  1.
         12    1    3    3    0    0  0.17376274389E+02  0.71603362484E+01 -0.20577350769E+02  0.27868130391E+02  0.00000000000E+00 0. -1.
</event>
<event>
 7    1  0.2941727E-013  0.7246155E+02  0.7816164E-02  0.1226708E+00
        -11   -1    0    0    0    0  0.00000000000E+00  0.00000000000E+00  0.45593999997E+02  0.45594000000E+02  0.51100000000E-03 0.  1.
         11   -1    0    0    0    0 -0.00000000000E+00 -0.00000000000E+00 -0.45593999997E+02  0.45594000000E+02  0.51100000000E-03 0. -1.
    9900012    2    1    2    0    0  0.64840708045E+01  0.50743291618E+01 -0.16819277574E+02  0.72461545751E+02  0.69999968028E+02 0.  0.
         12    1    1    2    0    0 -0.64840708045E+01 -0.50743291618E+01  0.16819277574E+02  0.18726454249E+02  0.00000000000E+00 0. -1.
         11    1    3    3    0    0  0.17789055405E+01 -0.10197603170E+02 -0.10592964236E+01  0.10405658293E+02  0.51100000000E-03 0. -1.
        -11    1    3    3    0    0  0.18255166056E+02  0.23659690864E+02 -0.28771335721E+02  0.41482789431E+02  0.51100000000E-03 0.  1.
         12    1    3    3    0    0 -0.13550000792E+02 -0.83877585321E+01  0.13011354571E+02  0.20573098027E+02  0.00000000000E+00 0. -1.
</event>
<event>
 7    1  0.2941727E-013  0.7246162E+02  0.7816164E-02  0.1226708E+00
        -11   -1    0    0    0    0  0.00000000000E+00  0.00000000000E+00  0.45593999997E+02  0.45594000000E+02  0.51100000000E-03 0.  1.
         11   -1    0    0    0    0 -0.00000000000E+00 -0.00000000000E+00 -0.45593999997E+02  0.45594000000E+02  0.51100000000E-03 0. -1.
    9900012    2    1    2    0    0 -0.11560422837E+02  0.12341502694E+02  0.80449435798E+01  0.72461623359E+02  0.70000069126E+02 0.  0.
         12    1    1    2    0    0  0.11560422837E+02 -0.12341502694E+02 -0.80449435798E+01  0.18726376641E+02  0.00000000000E+00 0. -1.
         11    1    3    3    0    0 -0.11662530474E+02  0.52614847245E+00 -0.32806163392E+00  0.11679001412E+02  0.51100000000E-03 0. -1.
        -11    1    3    3    0    0 -0.28311922707E+01 -0.22583689104E+02  0.12576169034E+02  0.26003820701E+02  0.51100000000E-03 0.  1.
         12    1    3    3    0    0  0.29332999082E+01  0.34399043325E+02 -0.42031638203E+01  0.34778801246E+02  0.00000000000E+00 0. -1.
</event>
<event>
 7    1  0.2941727E-013  0.7246156E+02  0.7816164E-02  0.1226708E+00
        -11   -1    0    0    0    0  0.00000000000E+00  0.00000000000E+00  0.45593999997E+02  0.45594000000E+02  0.51100000000E-03 0.  1.
         11   -1    0    0    0    0 -0.00000000000E+00 -0.00000000000E+00 -0.45593999997E+02  0.45594000000E+02  0.51100000000E-03 0. -1.
    9900012    2    1    2    0    0  0.12145102327E+02 -0.72063750500E+01  0.12298136004E+02  0.72461561442E+02  0.69999988469E+02 0.  0.
         12    1    1    2    0    0 -0.12145102327E+02  0.72063750500E+01 -0.12298136004E+02  0.18726438558E+02  0.00000000000E+00 0. -1.
         11    1    3    3    0    0  0.15007430173E+02  0.89527483445E+01 -0.17813160658E+02  0.24953624110E+02  0.51100000000E-03 0. -1.
        -11    1    3    3    0    0 -0.11361042674E+02 -0.12618606306E+02  0.10373987303E+01  0.17011134945E+02  0.51100000000E-03 0.  1.
        -12    1    3    3    0    0  0.84987148270E+01 -0.35405170882E+01  0.29073897931E+02  0.30496802388E+02  0.00000000000E+00 0.  1.
</event>
<event>
 7    1  0.2941727E-013  0.7246157E+02  0.7816164E-02  0.1226708E+00
        -11   -1    0    0    0    0  0.00000000000E+00  0.00000000000E+00  0.45593999997E+02  0.45594000000E+02  0.51100000000E-03 0. -1.
         11   -1    0    0    0    0 -0.00000000000E+00 -0.00000000000E+00 -0.45593999997E+02  0.45594000000E+02  0.51100000000E-03 0.  1.
    9900012    2    1    2    0    0  0.15698728261E+02  0.89966539198E+01  0.48259089917E+01  0.72461568189E+02  0.69999997258E+02 0.  0.
         12    1    1    2    0    0 -0.15698728261E+02 -0.89966539198E+01 -0.48259089917E+01  0.18726431811E+02  0.00000000000E+00 0. -1.
         11    1    3    3    0    0  0.62308320101E+01 -0.31227368350E+01  0.24292334920E+01  0.73807810222E+01  0.51100000000E-03 0. -1.
        -11    1    3    3    0    0  0.33671479233E+02 -0.60656989771E+01  0.54826664051E+01  0.34649976176E+02  0.51100000000E-03 0.  1.
         12    1    3    3    0    0 -0.24203582982E+02  0.18185089732E+02 -0.30859909053E+01  0.30430810991E+02  0.00000000000E+00 0. -1.
</event>
<event>
 7    1  0.2941727E-013  0.7246146E+02  0.7816164E-02  0.1226708E+00
        -11   -1    0    0    0    0  0.00000000000E+00  0.00000000000E+00  0.45593999997E+02  0.45594000000E+02  0.51100000000E-03 0.  1.
         11   -1    0    0    0    0 -0.00000000000E+00 -0.00000000000E+00 -0.45593999997E+02  0.45594000000E+02  0.51100000000E-03 0. -1.
    9900012    2    1    2    0    0 -0.13624584401E+02  0.69018520093E+01  0.10835974276E+02  0.72461462686E+02  0.69999859820E+02 0.  0.
         12    1    1    2    0    0  0.13624584401E+02 -0.69018520093E+01 -0.10835974276E+02  0.18726537314E+02  0.00000000000E+00 0. -1.
         11    1    3    3    0    0 -0.14265132165E+01  0.12088147405E+02  0.15135944870E+02  0.19423055244E+02  0.51100000000E-03 0. -1.
        -11    1    3    3    0    0  0.10839505124E+02  0.16282308641E+02  0.50269779993E+01  0.20196013322E+02  0.51100000000E-03 0.  1.
         12    1    3    3    0    0 -0.23037576309E+02 -0.21468604037E+02 -0.93269485928E+01  0.32842394120E+02  0.00000000000E+00 0. -1.
</event>
<event>
 7    1  0.2941727E-013  0.7246153E+02  0.7816164E-02  0.1226708E+00
        -11   -1    0    0    0    0  0.00000000000E+00  0.00000000000E+00  0.45593999997E+02  0.45594000000E+02  0.51100000000E-03 0.  1.
         11   -1    0    0    0    0 -0.00000000000E+00 -0.00000000000E+00 -0.45593999997E+02  0.45594000000E+02  0.51100000000E-03 0. -1.
    9900012    2    1    2    0    0 -0.41257323419E+01 -0.29051679163E+01  0.18033825645E+02  0.72461533826E+02  0.69999952493E+02 0.  0.
         12    1    1    2    0    0  0.41257323419E+01  0.29051679163E+01 -0.18033825645E+02  0.18726466174E+02  0.00000000000E+00 0. -1.
         11    1    3    3    0    0 -0.43869007479E+01 -0.18710263861E+02  0.11461892475E+02  0.22376189383E+02  0.51100000000E-03 0. -1.
        -11    1    3    3    0    0 -0.14478803430E+02 -0.76977955813E+01  0.13782758099E+02  0.21420929640E+02  0.51100000000E-03 0.  1.
         12    1    3    3    0    0  0.14739971836E+02  0.23502891526E+02 -0.72108249299E+01  0.28664414803E+02  0.00000000000E+00 0. -1.
</event>
<event>
 7    1  0.2941727E-013  0.7246147E+02  0.7816164E-02  0.1226708E+00
        -11   -1    0    0    0    0  0.00000000000E+00  0.00000000000E+00  0.45593999997E+02  0.45594000000E+02  0.51100000000E-03 0.  1.
         11   -1    0    0    0    0 -0.00000000000E+00 -0.00000000000E+00 -0.45593999997E+02  0.45594000000E+02  0.51100000000E-03 0. -1.
    9900012    2    1    2    0    0 -0.23653015027E+01 -0.14210192608E+02  0.11964886956E+02  0.72461474827E+02  0.69999875637E+02 0.  0.
         12    1    1    2    0    0  0.23653015027E+01  0.14210192608E+02 -0.11964886956E+02  0.18726525173E+02  0.00000000000E+00 0. -1.
         11    1    3    3    0    0  0.98757958885E+01 -0.71711835826E+01  0.62550710980E+01  0.13714340418E+02  0.51100000000E-03 0. -1.
        -11    1    3    3    0    0 -0.24772277536E+02 -0.25282707249E+02  0.86015015271E+01  0.36426183563E+02  0.51100000000E-03 0.  1.
         12    1    3    3    0    0  0.12531180145E+02  0.18243698223E+02 -0.28916856691E+01  0.22320950846E+02  0.00000000000E+00 0. -1.
</event>
<event>
 7    1  0.2941727E-013  0.7246152E+02  0.7816164E-02  0.1226708E+00
        -11   -1    0    0    0    0  0.00000000000E+00  0.00000000000E+00  0.45593999997E+02  0.45594000000E+02  0.51100000000E-03 0.  1.
         11   -1    0    0    0    0 -0.00000000000E+00 -0.00000000000E+00 -0.45593999997E+02  0.45594000000E+02  0.51100000000E-03 0. -1.
    9900012    2    1    2    0    0  0.12203842217E+02 -0.10107690059E+02  0.99790642216E+01  0.72461524466E+02  0.69999940300E+02 0.  0.
         12    1    1    2    0    0 -0.12203842217E+02  0.10107690059E+02 -0.99790642216E+01  0.18726475534E+02  0.00000000000E+00 0. -1.
         11    1    3    3    0    0  0.18174317097E+02 -0.12923021592E+02 -0.59853807169E+01  0.23089717876E+02  0.51100000000E-03 0. -1.
        -11    1    3    3    0    0  0.24599832578E+01  0.12284137290E+02 -0.12816386119E+02  0.17922368705E+02  0.51100000000E-03 0.  1.
        -12    1    3    3    0    0 -0.84304581371E+01 -0.94688057573E+01  0.28780831058E+02  0.31449437884E+02  0.00000000000E+00 0.  1.
</event>
<event>
 7    1  0.2941727E-013  0.7246148E+02  0.7816164E-02  0.1226708E+00
        -11   -1    0    0    0    0  0.00000000000E+00  0.00000000000E+00  0.45593999997E+02  0.45594000000E+02  0.51100000000E-03 0.  1.
         11   -1    0    0    0    0 -0.00000000000E+00 -0.00000000000E+00 -0.45593999997E+02  0.45594000000E+02  0.51100000000E-03 0. -1.
    9900012    2    1    2    0    0 -0.14832052624E+02  0.10226795579E+02 -0.51093624302E+01  0.72461475568E+02  0.69999876601E+02 0.  0.
         12    1    1    2    0    0  0.14832052624E+02 -0.10226795579E+02  0.51093624302E+01  0.18726524432E+02  0.00000000000E+00 0. -1.
         11    1    3    3    0    0  0.85353198935E+01  0.23137598471E+02 -0.11953046842E+02  0.27405756288E+02  0.51100000000E-03 0. -1.
        -11    1    3    3    0    0 -0.13649350651E+02  0.11698102559E+02  0.42402460588E+01  0.18469706646E+02  0.51100000000E-03 0.  1.
        -12    1    3    3    0    0 -0.97180218662E+01 -0.24608905451E+02  0.26034383527E+01  0.26586012633E+02  0.00000000000E+00 0.  1.
</event>
<event>
 7    1  0.2941727E-013  0.7246154E+02  0.7816164E-02  0.1226708E+00
        -11   -1    0    0    0    0  0.00000000000E+00  0.00000000000E+00  0.45593999997E+02  0.45594000000E+02  0.51100000000E-03 0.  1.
         11   -1    0    0    0    0 -0.00000000000E+00 -0.00000000000E+00 -0.45593999997E+02  0.45594000000E+02  0.51100000000E-03 0. -1.
    9900012    2    1    2    0    0 -0.12890680519E+02  0.26891878112E+00  0.13580804133E+02  0.72461542715E+02  0.69999964073E+02 0.  0.
         12    1    1    2    0    0  0.12890680519E+02 -0.26891878112E+00 -0.13580804133E+02  0.18726457285E+02  0.00000000000E+00 0. -1.
         11    1    3    3    0    0  0.11957204483E+02  0.11097000723E+02  0.10856838408E+02  0.19595639938E+02  0.51100000000E-03 0. -1.
        -11    1    3    3    0    0 -0.97141958608E+01 -0.27473687751E+02 -0.39333636602E+01  0.29404769507E+02  0.51100000000E-03 0.  1.
         12    1    3    3    0    0 -0.15133689141E+02  0.16645605809E+02  0.66573293854E+01  0.23461133270E+02  0.00000000000E+00 0. -1.
</event>
<event>
 7    1  0.2941727E-013  0.7246157E+02  0.7816164E-02  0.1226708E+00
        -11   -1    0    0    0    0  0.00000000000E+00  0.00000000000E+00  0.45593999997E+02  0.45594000000E+02  0.51100000000E-03 0. -1.
         11   -1    0    0    0    0 -0.00000000000E+00 -0.00000000000E+00 -0.45593999997E+02  0.45594000000E+02  0.51100000000E-03 0.  1.
    9900012    2    1    2    0    0  0.12543801410E+02 -0.42743170005E+01 -0.13231112724E+02  0.72461572590E+02  0.70000002990E+02 0.  0.
         12    1    1    2    0    0 -0.12543801410E+02  0.42743170005E+01  0.13231112724E+02  0.18726427410E+02  0.00000000000E+00 0. -1.
         11    1    3    3    0    0  0.22274413626E+02 -0.11576458952E+02  0.35343004179E+01  0.25350644646E+02  0.51100000000E-03 0. -1.
        -11    1    3    3    0    0  0.15724970090E+02 -0.34046601987E+01 -0.89481010549E+01  0.18410184903E+02  0.51100000000E-03 0.  1.
        -12    1    3    3    0    0 -0.25455582306E+02  0.10706802151E+02 -0.78173120870E+01  0.28700743041E+02  0.00000000000E+00 0.  1.
</event>
<event>
 7    1  0.2941727E-013  0.7246156E+02  0.7816164E-02  0.1226708E+00
        -11   -1    0    0    0    0  0.00000000000E+00  0.00000000000E+00  0.45593999997E+02  0.45594000000E+02  0.51100000000E-03 0.  1.
         11   -1    0    0    0    0 -0.00000000000E+00 -0.00000000000E+00 -0.45593999997E+02  0.45594000000E+02  0.51100000000E-03 0. -1.
    9900012    2    1    2    0    0  0.40597021826E+01  0.30995607284E+01  0.18016409901E+02  0.72461561892E+02  0.69999989054E+02 0.  0.
         12    1    1    2    0    0 -0.40597021826E+01 -0.30995607284E+01 -0.18016409901E+02  0.18726438108E+02  0.00000000000E+00 0. -1.
         11    1    3    3    0    0 -0.12647828515E+02  0.26388406989E+01 -0.12455184724E+02  0.17946104679E+02  0.51100000000E-03 0. -1.
        -11    1    3    3    0    0 -0.13582791074E+02 -0.47795387755E+01  0.11095602344E+02  0.18178245127E+02  0.51100000000E-03 0.  1.
        -12    1    3    3    0    0  0.30290321771E+02  0.52402588049E+01  0.19375992281E+02  0.36337212086E+02  0.00000000000E+00 0.  1.
</event>
<event>
 7    1  0.2941727E-013  0.7246157E+02  0.7816164E-02  0.1226708E+00
        -11   -1    0    0    0    0  0.00000000000E+00  0.00000000000E+00  0.45593999997E+02  0.45594000000E+02  0.51100000000E-03 0.  1.
         11   -1    0    0    0    0 -0.00000000000E+00 -0.00000000000E+00 -0.45593999997E+02  0.45594000000E+02  0.51100000000E-03 0. -1.
    9900012    2    1    2    0    0  0.52569086245E+01  0.14304113771E+02  0.10882857774E+02  0.72461565412E+02  0.69999993640E+02 0.  0.
         12    1    1    2    0    0 -0.52569086245E+01 -0.14304113771E+02 -0.10882857774E+02  0.18726434588E+02  0.00000000000E+00 0. -1.
         11    1    3    3    0    0  0.26799403940E+01  0.22747430991E+02  0.13288936941E+01  0.22943270384E+02  0.51100000000E-03 0. -1.
        -11    1    3    3    0    0 -0.91477892326E+01  0.44942665270E+01  0.24499666011E+02  0.26535148659E+02  0.51100000000E-03 0.  1.
         12    1    3    3    0    0  0.11724757463E+02 -0.12937583747E+02 -0.14945701931E+02  0.22983146369E+02  0.00000000000E+00 0. -1.
</event>
<event>
 7    1  0.2941727E-013  0.7246151E+02  0.7816164E-02  0.1226708E+00
        -11   -1    0    0    0    0  0.00000000000E+00  0.00000000000E+00  0.45593999997E+02  0.45594000000E+02  0.51100000000E-03 0. -1.
         11   -1    0    0    0    0 -0.00000000000E+00 -0.00000000000E+00 -0.45593999997E+02  0.45594000000E+02  0.51100000000E-03 0.  1.
    9900012    2    1    2    0    0 -0.45983271635E+01 -0.15230533888E+02  0.98776299604E+01  0.72461512106E+02  0.69999924199E+02 0.  0.
         12    1    1    2    0    0  0.45983271635E+01  0.15230533888E+02 -0.98776299604E+01  0.18726487894E+02  0.00000000000E+00 0. -1.
         11    1    3    3    0    0  0.17355199138E+02  0.85654271054E-02 -0.57674497760E+01  0.18288424964E+02  0.51100000000E-03 0. -1.
        -11    1    3    3    0    0  0.53078569777E+01 -0.11170556678E+02 -0.10469053752E+02  0.16203572721E+02  0.51100000000E-03 0.  1.
         12    1    3    3    0    0 -0.27261383279E+02 -0.40685426369E+01  0.26114133489E+02  0.37969514421E+02  0.00000000000E+00 0. -1.
</event>
<event>
 7    1  0.2941727E-013  0.7246154E+02  0.7816164E-02  0.1226708E+00
        -11   -1    0    0    0    0  0.00000000000E+00  0.00000000000E+00  0.45593999997E+02  0.45594000000E+02  0.51100000000E-03 0. -1.
         11   -1    0    0    0    0 -0.00000000000E+00 -0.00000000000E+00 -0.45593999997E+02  0.45594000000E+02  0.51100000000E-03 0.  1.
    9900012    2    1    2    0    0  0.16520931530E+01 -0.12351667758E+02 -0.13978090717E+02  0.72461544695E+02  0.69999966652E+02 0.  0.
         12    1    1    2    0    0 -0.16520931530E+01  0.12351667758E+02  0.13978090717E+02  0.18726455305E+02  0.00000000000E+00 0. -1.
         11    1    3    3    0    0 -0.85243982526E+01 -0.91267733365E+01  0.15564211611E+02  0.19955150725E+02  0.51100000000E-03 0. -1.
        -11    1    3    3    0    0  0.13107280651E+02  0.14009984639E+02 -0.12214736261E+01  0.19224267833E+02  0.51100000000E-03 0.  1.
         12    1    3    3    0    0 -0.29307892450E+01 -0.17234879061E+02 -0.28320828702E+02  0.33282126137E+02  0.00000000000E+00 0. -1.
</event>
<event>
 7    1  0.3242969E-013  0.7246152E+02  0.7816164E-02  0.1226708E+00
        -11   -1    0    0    0    0  0.00000000000E+00  0.00000000000E+00  0.45593999997E+02  0.45594000000E+02  0.51100000000E-03 0. -1.
         11   -1    0    0    0    0 -0.00000000000E+00 -0.00000000000E+00 -0.45593999997E+02  0.45594000000E+02  0.51100000000E-03 0.  1.
    9900012    2    1    2    0    0  0.74530233607E+01  0.72851090122E+01 -0.15558295052E+02  0.72461523678E+02  0.69999939273E+02 0.  0.
         12    1    1    2    0    0 -0.74530233607E+01 -0.72851090122E+01  0.15558295052E+02  0.18726476322E+02  0.00000000000E+00 0. -1.
         11    1    3    3    0    0 -0.66518500832E+01  0.35908181616E+01  0.22169436902E+02  0.23422745727E+02  0.51100000000E-03 0. -1.
        -11    1    3    3    0    0  0.33953095592E+00 -0.31180754603E+01  0.37030008678E+01  0.48528230479E+01  0.51100000000E-03 0.  1.
        -12    1    3    3    0    0  0.13765342488E+02  0.68123663109E+01 -0.41430732821E+02  0.44185954903E+02  0.00000000000E+00 0.  1.
</event>
<event>
 7    1  0.2941727E-013  0.7246172E+02  0.7816164E-02  0.1226708E+00
        -11   -1    0    0    0    0  0.00000000000E+00  0.00000000000E+00  0.45593999997E+02  0.45594000000E+02  0.51100000000E-03 0. -1.
         11   -1    0    0    0    0 -0.00000000000E+00 -0.00000000000E+00 -0.45593999997E+02  0.45594000000E+02  0.51100000000E-03 0.  1.
    9900012    2    1    2    0    0 -0.10684778246E+02  0.11489250452E+02 -0.10222823151E+02  0.72461722332E+02  0.70000198057E+02 0.  0.
         12    1    1    2    0    0  0.10684778246E+02 -0.11489250452E+02  0.10222823151E+02  0.18726277668E+02  0.00000000000E+00 0. -1.
         11    1    3    3    0    0 -0.44765609750E+01  0.10866415190E+02  0.15327210516E+02  0.19314294181E+02  0.51100000000E-03 0. -1.
        -11    1    3    3    0    0  0.95278115628E+01  0.18822546229E+02 -0.54306972449E+01  0.21784396079E+02  0.51100000000E-03 0.  1.
        -12    1    3    3    0    0 -0.15736028834E+02 -0.18199710966E+02 -0.20119336422E+02  0.31363032072E+02  0.00000000000E+00 0.  1.
</event>
<event>
 7    1  0.2941727E-013  0.7246149E+02  0.7816164E-02  0.1226708E+00
        -11   -1    0    0    0    0  0.00000000000E+00  0.00000000000E+00  0.45593999997E+02  0.45594000000E+02  0.51100000000E-03 0.  1.
         11   -1    0    0    0    0 -0.00000000000E+00 -0.00000000000E+00 -0.45593999997E+02  0.45594000000E+02  0.51100000000E-03 0. -1.
    9900012    2    1    2    0    0 -0.11211781807E+02 -0.14568198755E+02  0.35700970495E+01  0.72461493139E+02  0.69999899491E+02 0.  0.
         12    1    1    2    0    0  0.11211781807E+02  0.14568198755E+02 -0.35700970495E+01  0.18726506861E+02  0.00000000000E+00 0. -1.
         11    1    3    3    0    0 -0.58115165621E+01 -0.18933393891E+02 -0.20455138794E+02  0.28472088654E+02  0.51100000000E-03 0. -1.
        -11    1    3    3    0    0  0.96471934620E+01  0.11784549742E+02  0.68510441063E+00  0.15245108154E+02  0.51100000000E-03 0.  1.
        -12    1    3    3    0    0 -0.15047458707E+02 -0.74193546060E+01  0.23340131433E+02  0.28744296331E+02  0.00000000000E+00 0.  1.
</event>
<event>
 7    1  0.2941727E-013  0.7246169E+02  0.7816164E-02  0.1226708E+00
        -11   -1    0    0    0    0  0.00000000000E+00  0.00000000000E+00  0.45593999997E+02  0.45594000000E+02  0.51100000000E-03 0. -1.
         11   -1    0    0    0    0 -0.00000000000E+00 -0.00000000000E+00 -0.45593999997E+02  0.45594000000E+02  0.51100000000E-03 0.  1.
    9900012    2    1    2    0    0 -0.16951401010E+00 -0.11576717182E+02 -0.14718208378E+02  0.72461687667E+02  0.70000152900E+02 0.  0.
         12    1    1    2    0    0  0.16951401010E+00  0.11576717182E+02  0.14718208378E+02  0.18726312333E+02  0.00000000000E+00 0. -1.
         11    1    3    3    0    0 -0.29880424842E+02 -0.65869989274E+01  0.58593981900E+01  0.31153826266E+02  0.51100000000E-03 0. -1.
        -11    1    3    3    0    0 -0.12949127415E+01 -0.39278578765E+01 -0.53099418054E+01  0.67305533758E+01  0.51100000000E-03 0.  1.
        -12    1    3    3    0    0  0.31005823574E+02 -0.10618603783E+01 -0.15267664763E+02  0.34577308025E+02  0.00000000000E+00 0.  1.
</event>
<event>
 7    1  0.2941727E-013  0.7246154E+02  0.7816164E-02  0.1226708E+00
        -11   -1    0    0    0    0  0.00000000000E+00  0.00000000000E+00  0.45593999997E+02  0.45594000000E+02  0.51100000000E-03 0.  1.
         11   -1    0    0    0    0 -0.00000000000E+00 -0.00000000000E+00 -0.45593999997E+02  0.45594000000E+02  0.51100000000E-03 0. -1.
    9900012    2    1    2    0    0 -0.16822401234E+02 -0.79994971500E+01  0.19222993274E+01  0.72461538171E+02  0.69999958153E+02 0.  0.
         12    1    1    2    0    0  0.16822401234E+02  0.79994971500E+01 -0.19222993274E+01  0.18726461829E+02  0.00000000000E+00 0. -1.
         11    1    3    3    0    0 -0.89774171838E+01 -0.45514122474E+00  0.12514722667E+01  0.90756463088E+01  0.51100000000E-03 0. -1.
        -11    1    3    3    0    0 -0.25863771220E+02  0.78245688886E+01  0.19339923103E+02  0.33229372036E+02  0.51100000000E-03 0.  1.
         12    1    3    3    0    0  0.18018787170E+02 -0.15368924814E+02 -0.18669096042E+02  0.30156519826E+02  0.00000000000E+00 0. -1.
</event>
<event>
 7    1  0.2941727E-013  0.7246165E+02  0.7816164E-02  0.1226708E+00
        -11   -1    0    0    0    0  0.00000000000E+00  0.00000000000E+00  0.45593999997E+02  0.45594000000E+02  0.51100000000E-03 0. -1.
         11   -1    0    0    0    0 -0.00000000000E+00 -0.00000000000E+00 -0.45593999997E+02  0.45594000000E+02  0.51100000000E-03 0.  1.
    9900012    2    1    2    0    0 -0.18613709507E+02  0.90769321723E+00  0.18390622081E+01  0.72461648557E+02  0.70000101951E+02 0.  0.
         12    1    1    2    0    0  0.18613709507E+02 -0.90769321723E+00 -0.18390622081E+01  0.18726351443E+02  0.00000000000E+00 0. -1.
         11    1    3    3    0    0 -0.35765908258E+01 -0.76559482786E+01 -0.61475413795E+01  0.10449775656E+02  0.51100000000E-03 0. -1.
        -11    1    3    3    0    0 -0.35878232527E+02  0.13353087862E+02 -0.21578703253E+01  0.38343303578E+02  0.51100000000E-03 0.  1.
         12    1    3    3    0    0  0.20841113846E+02 -0.47894463662E+01  0.10144473913E+02  0.23668569323E+02  0.00000000000E+00 0. -1.
</event>
<event>
 7    1  0.2941727E-013  0.7246190E+02  0.7816164E-02  0.1226707E+00
        -11   -1    0    0    0    0  0.00000000000E+00  0.00000000000E+00  0.45593999997E+02  0.45594000000E+02  0.51100000000E-03 0. -1.
         11   -1    0    0    0    0 -0.00000000000E+00 -0.00000000000E+00 -0.45593999997E+02  0.45594000000E+02  0.51100000000E-03 0.  1.
    9900012    2    1    2    0    0 -0.15114007900E+02  0.10938479705E+02  0.16072802256E+01  0.72461897288E+02  0.70000425969E+02 0.  0.
         12    1    1    2    0    0  0.15114007900E+02 -0.10938479705E+02 -0.16072802256E+01  0.18726102712E+02  0.00000000000E+00 0. -1.
         11    1    3    3    0    0 -0.65284443397E+01  0.77336324141E+00  0.16460926637E+02  0.17725145477E+02  0.51100000000E-03 0. -1.
        -11    1    3    3    0    0  0.11255025531E+02  0.28034963273E+01  0.14488463841E+02  0.18559385122E+02  0.51100000000E-03 0.  1.
         12    1    3    3    0    0 -0.19840589091E+02  0.73616201361E+01 -0.29342110252E+02  0.36177366689E+02  0.00000000000E+00 0. -1.
</event>
<event>
 7    1  0.2941727E-013  0.7246157E+02  0.7816164E-02  0.1226708E+00
        -11   -1    0    0    0    0  0.00000000000E+00  0.00000000000E+00  0.45593999997E+02  0.45594000000E+02  0.51100000000E-03 0.  1.
         11   -1    0    0    0    0 -0.00000000000E+00 -0.00000000000E+00 -0.45593999997E+02  0.45594000000E+02  0.51100000000E-03 0. -1.
    9900012    2    1    2    0    0 -0.10578279610E+02  0.11303619284E+02  0.10536002853E+02  0.72461570428E+02  0.70000000174E+02 0.  0.
         12    1    1    2    0    0  0.10578279610E+02 -0.11303619284E+02 -0.10536002853E+02  0.18726429572E+02  0.00000000000E+00 0. -1.
         11    1    3    3    0    0  0.37424192545E+01 -0.22131042691E+01 -0.25181545329E+02  0.25554133869E+02  0.51100000000E-03 0. -1.
        -11    1    3    3    0    0 -0.10987416980E+02  0.26975141447E+01  0.21947551785E+01  0.11524619951E+02  0.51100000000E-03 0.  1.
        -12    1    3    3    0    0 -0.33332818840E+01  0.10819209408E+02  0.33522793003E+02  0.35382816608E+02  0.00000000000E+00 0.  1.
</event>
<event>
 7    1  0.2941727E-013  0.7246158E+02  0.7816164E-02  0.1226708E+00
        -11   -1    0    0    0    0  0.00000000000E+00  0.00000000000E+00  0.45593999997E+02  0.45594000000E+02  0.51100000000E-03 0.  1.
         11   -1    0    0    0    0 -0.00000000000E+00 -0.00000000000E+00 -0.45593999997E+02  0.45594000000E+02  0.51100000000E-03 0. -1.
    9900012    2    1    2    0    0  0.18065113867E+02 -0.48878352416E+01 -0.66309918601E+00  0.72461575544E+02  0.70000006838E+02 0.  0.
         12    1    1    2    0    0 -0.18065113867E+02  0.48878352416E+01  0.66309918601E+00  0.18726424456E+02  0.00000000000E+00 0. -1.
         11    1    3    3    0    0  0.10398745369E+02 -0.18839413526E+02  0.80606873336E+01  0.22978948797E+02  0.51100000000E-03 0. -1.
        -11    1    3    3    0    0  0.18433302675E+02  0.17611042673E+02  0.10156205834E+02  0.27442375785E+02  0.51100000000E-03 0.  1.
        -12    1    3    3    0    0 -0.10766934177E+02 -0.36594643884E+01 -0.18879992354E+02  0.22040250962E+02  0.00000000000E+00 0.  1.
</event>
<event>
 7    1  0.2941727E-013  0.7246152E+02  0.7816164E-02  0.1226708E+00
        -11   -1    0    0    0    0  0.00000000000E+00  0.00000000000E+00  0.45593999997E+02  0.45594000000E+02  0.51100000000E-03 0.  1.
         11   -1    0    0    0    0 -0.00000000000E+00 -0.00000000000E+00 -0.45593999997E+02  0.45594000000E+02  0.51100000000E-03 0. -1.
    9900012    2    1    2    0    0  0.13081910364E+02 -0.67417029667E+00  0.13382453092E+02  0.72461523152E+02  0.69999938588E+02 0.  0.
         12    1    1    2    0    0 -0.13081910364E+02  0.67417029667E+00 -0.13382453092E+02  0.18726476848E+02  0.00000000000E+00 0. -1.
         11    1    3    3    0    0  0.18307031980E+02 -0.10983117805E+02 -0.16169860019E+02  0.26781349292E+02  0.51100000000E-03 0. -1.
        -11    1    3    3    0    0 -0.10414047088E+01 -0.11745976522E+02  0.63383067789E+01  0.13387554717E+02  0.51100000000E-03 0.  1.
         12    1    3    3    0    0 -0.41837169064E+01  0.22054924030E+02  0.23214006332E+02  0.32292619143E+02  0.00000000000E+00 0. -1.
</event>
<event>
 7    1  0.2941727E-013  0.7246172E+02  0.7816164E-02  0.1226708E+00
        -11   -1    0    0    0    0  0.00000000000E+00  0.00000000000E+00  0.45593999997E+02  0.45594000000E+02  0.51100000000E-03 0.  1.
         11   -1    0    0    0    0 -0.00000000000E+00 -0.00000000000E+00 -0.45593999997E+02  0.45594000000E+02  0.51100000000E-03 0. -1.
    9900012    2    1    2    0    0  0.26632307821E+01  0.93632133698E+01  0.15997215464E+02  0.72461722596E+02  0.70000198402E+02 0.  0.
         12    1    1    2    0    0 -0.26632307821E+01 -0.93632133698E+01 -0.15997215464E+02  0.18726277404E+02  0.00000000000E+00 0. -1.
         11    1    3    3    0    0  0.60955636507E+01  0.28810716618E+02  0.36854826591E+01  0.29678208688E+02  0.51100000000E-03 0.  1.
        -11    1    3    3    0    0  0.13885499370E+02 -0.15143867176E+02 -0.92275253468E+00  0.20566849013E+02  0.51100000000E-03 0. -1.
         12    1    3    3    0    0 -0.17317832239E+02 -0.43036360718E+01  0.13234485339E+02  0.22216664896E+02  0.00000000000E+00 0. -1.
</event>
<event>
 7    1  0.2941727E-013  0.7246156E+02  0.7816164E-02  0.1226708E+00
        -11   -1    0    0    0    0  0.00000000000E+00  0.00000000000E+00  0.45593999997E+02  0.45594000000E+02  0.51100000000E-03 0. -1.
         11   -1    0    0    0    0 -0.00000000000E+00 -0.00000000000E+00 -0.45593999997E+02  0.45594000000E+02  0.51100000000E-03 0.  1.
    9900012    2    1    2    0    0  0.13910172247E+02 -0.33180849735E+01 -0.12090370408E+02  0.72461557827E+02  0.69999983760E+02 0.  0.
         12    1    1    2    0    0 -0.13910172247E+02  0.33180849735E+01  0.12090370408E+02  0.18726442173E+02  0.00000000000E+00 0. -1.
         11    1    3    3    0    0  0.30265905784E+02 -0.11817572534E+02 -0.29794101605E+02  0.44083654161E+02  0.51100000000E-03 0. -1.
        -11    1    3    3    0    0 -0.26832791468E+01  0.50158270504E+01 -0.64849380594E-01  0.56888235763E+01  0.51100000000E-03 0.  1.
        -12    1    3    3    0    0 -0.13672454390E+02  0.34836605105E+01  0.17768580577E+02  0.22689080090E+02  0.00000000000E+00 0.  1.
</event>
<event>
 7    1  0.2941727E-013  0.7246163E+02  0.7816164E-02  0.1226708E+00
        -11   -1    0    0    0    0  0.00000000000E+00  0.00000000000E+00  0.45593999997E+02  0.45594000000E+02  0.51100000000E-03 0. -1.
         11   -1    0    0    0    0 -0.00000000000E+00 -0.00000000000E+00 -0.45593999997E+02  0.45594000000E+02  0.51100000000E-03 0.  1.
    9900012    2    1    2    0    0 -0.11051725760E+02 -0.23099834269E+01 -0.14939893783E+02  0.72461625766E+02  0.70000072262E+02 0.  0.
         12    1    1    2    0    0  0.11051725760E+02  0.23099834269E+01  0.14939893783E+02  0.18726374234E+02  0.00000000000E+00 0. -1.
         11    1    3    3    0    0 -0.10138770766E+02  0.20661916821E+02  0.15838754928E+01  0.23069853515E+02  0.51100000000E-03 0. -1.
        -11    1    3    3    0    0 -0.20464839155E+02 -0.93421939605E+01 -0.10399674003E+02  0.24783854609E+02  0.51100000000E-03 0.  1.
        -12    1    3    3    0    0  0.19551884161E+02 -0.13629706288E+02 -0.61240952734E+01  0.24607917642E+02  0.00000000000E+00 0.  1.
</event>
<event>
 7    1  0.2941727E-013  0.7246155E+02  0.7816164E-02  0.1226708E+00
        -11   -1    0    0    0    0  0.00000000000E+00  0.00000000000E+00  0.45593999997E+02  0.45594000000E+02  0.51100000000E-03 0. -1.
         11   -1    0    0    0    0 -0.00000000000E+00 -0.00000000000E+00 -0.45593999997E+02  0.45594000000E+02  0.51100000000E-03 0.  1.
    9900012    2    1    2    0    0 -0.88769837259E+01 -0.30275567686E+01 -0.16208424071E+02  0.72461549431E+02  0.69999972822E+02 0.  0.
         12    1    1    2    0    0  0.88769837259E+01  0.30275567686E+01  0.16208424071E+02  0.18726450569E+02  0.00000000000E+00 0. -1.
         11    1    3    3    0    0  0.14473034689E+02 -0.17552131215E+01 -0.76046227004E+01  0.16443229393E+02  0.51100000000E-03 0. -1.
        -11    1    3    3    0    0 -0.25002154342E+02 -0.36423176928E+01 -0.27243426633E+02  0.37156136706E+02  0.51100000000E-03 0.  1.
        -12    1    3    3    0    0  0.16521359277E+01  0.23699740457E+01  0.18639625263E+02  0.18862183332E+02  0.00000000000E+00 0.  1.
</event>
<event>
 7    1  0.2941727E-013  0.7246152E+02  0.7816164E-02  0.1226708E+00
        -11   -1    0    0    0    0  0.00000000000E+00  0.00000000000E+00  0.45593999997E+02  0.45594000000E+02  0.51100000000E-03 0.  1.
         11   -1    0    0    0    0 -0.00000000000E+00 -0.00000000000E+00 -0.45593999997E+02  0.45594000000E+02  0.51100000000E-03 0. -1.
    9900012    2    1    2    0    0  0.29513691316E+01 -0.95727566256E+01  0.15821910318E+02  0.72461518877E+02  0.69999933019E+02 0.  0.
         12    1    1    2    0    0 -0.29513691316E+01  0.95727566256E+01 -0.15821910318E+02  0.18726481123E+02  0.00000000000E+00 0. -1.
         11    1    3    3    0    0 -0.47920803964E+01 -0.22237197987E+01  0.16974486634E+01  0.55489004762E+01  0.51100000000E-03 0. -1.
        -11    1    3    3    0    0  0.12376332413E+02 -0.35077694258E+02  0.62581120604E+01  0.37719785330E+02  0.51100000000E-03 0.  1.
         12    1    3    3    0    0 -0.46328828853E+01  0.27728657431E+02  0.78663495938E+01  0.29192833071E+02  0.00000000000E+00 0. -1.
</event>
<event>
 7    1  0.2941727E-013  0.7246158E+02  0.7816164E-02  0.1226708E+00
        -11   -1    0    0    0    0  0.00000000000E+00  0.00000000000E+00  0.45593999997E+02  0.45594000000E+02  0.51100000000E-03 0.  1.
         11   -1    0    0    0    0 -0.00000000000E+00 -0.00000000000E+00 -0.45593999997E+02  0.45594000000E+02  0.51100000000E-03 0. -1.
    9900012    2    1    2    0    0  0.73988219773E+01  0.12849917499E+02  0.11437468261E+02  0.72461584790E+02  0.70000018883E+02 0.  0.
         12    1    1    2    0    0 -0.73988219773E+01 -0.12849917499E+02 -0.11437468261E+02  0.18726415210E+02  0.00000000000E+00 0. -1.
         11    1    3    3    0    0  0.31257569852E+02  0.53727351288E+01  0.24233415429E+01  0.31808403612E+02  0.51100000000E-03 0. -1.
        -11    1    3    3    0    0 -0.13004814142E+02  0.92018814377E+01 -0.99153178702E+01  0.18764683360E+02  0.51100000000E-03 0.  1.
        -12    1    3    3    0    0 -0.10853933733E+02 -0.17246990671E+01  0.18929444588E+02  0.21888497819E+02  0.00000000000E+00 0.  1.
</event>
<event>
 7    1  0.2941727E-013  0.7246160E+02  0.7816164E-02  0.1226708E+00
        -11   -1    0    0    0    0  0.00000000000E+00  0.00000000000E+00  0.45593999997E+02  0.45594000000E+02  0.51100000000E-03 0.  1.
         11   -1    0    0    0    0 -0.00000000000E+00 -0.00000000000E+00 -0.45593999997E+02  0.45594000000E+02  0.51100000000E-03 0. -1.
    9900012    2    1    2    0    0 -0.87064651813E+01  0.14019524369E+02 -0.88503365026E+01  0.72461600034E+02  0.70000038741E+02 0.  0.
         12    1    1    2    0    0  0.87064651813E+01 -0.14019524369E+02  0.88503365026E+01  0.18726399966E+02  0.00000000000E+00 0. -1.
         11    1    3    3    0    0 -0.15435771973E+01  0.41646711048E+00  0.33445379832E+01  0.37070217157E+01  0.51100000000E-03 0. -1.
        -11    1    3    3    0    0 -0.14811834452E+02 -0.17098213465E+02  0.14909127098E+02  0.27092829580E+02  0.51100000000E-03 0.  1.
         12    1    3    3    0    0  0.76489464680E+01  0.30701270724E+02 -0.27104001584E+02  0.41661748739E+02  0.00000000000E+00 0. -1.
</event>
<event>
 7    1  0.2941727E-013  0.7246153E+02  0.7816164E-02  0.1226708E+00
        -11   -1    0    0    0    0  0.00000000000E+00  0.00000000000E+00  0.45593999997E+02  0.45594000000E+02  0.51100000000E-03 0.  1.
         11   -1    0    0    0    0 -0.00000000000E+00 -0.00000000000E+00 -0.45593999997E+02  0.45594000000E+02  0.51100000000E-03 0. -1.
    9900012    2    1    2    0    0  0.58140144371E+01 -0.11825902505E+02  0.13305107031E+02  0.72461531912E+02  0.69999950000E+02 0.  0.
         12    1    1    2    0    0 -0.58140144371E+01  0.11825902505E+02 -0.13305107031E+02  0.18726468088E+02  0.00000000000E+00 0. -1.
         11    1    3    3    0    0 -0.81550280440E+01 -0.66251721649E+01  0.25051481182E+02  0.27165678683E+02  0.51100000000E-03 0. -1.
        -11    1    3    3    0    0  0.11330169900E+02 -0.13290911033E+02  0.11250613104E+02  0.20774921457E+02  0.51100000000E-03 0.  1.
         12    1    3    3    0    0  0.26388725807E+01  0.80901806929E+01 -0.22996987255E+02  0.24520931772E+02  0.00000000000E+00 0. -1.
</event>
<event>
 7    1  0.2941727E-013  0.7246166E+02  0.7816164E-02  0.1226708E+00
        -11   -1    0    0    0    0  0.00000000000E+00  0.00000000000E+00  0.45593999997E+02  0.45594000000E+02  0.51100000000E-03 0.  1.
         11   -1    0    0    0    0 -0.00000000000E+00 -0.00000000000E+00 -0.45593999997E+02  0.45594000000E+02  0.51100000000E-03 0. -1.
    9900012    2    1    2    0    0  0.13527222911E+01  0.15227452459E+02  0.10815305155E+02  0.72461655146E+02  0.70000110535E+02 0.  0.
         12    1    1    2    0    0 -0.13527222911E+01 -0.15227452459E+02 -0.10815305155E+02  0.18726344854E+02  0.00000000000E+00 0. -1.
         11    1    3    3    0    0  0.19325171214E+02  0.50741341687E+01  0.17050294392E+02  0.26266359076E+02  0.51100000000E-03 0. -1.
        -11    1    3    3    0    0 -0.80651051632E+01 -0.33888926353E+01  0.16062124372E+02  0.18289952274E+02  0.51100000000E-03 0.  1.
        -12    1    3    3    0    0 -0.99073437595E+01  0.13542210925E+02 -0.22297113608E+02  0.27905343796E+02  0.00000000000E+00 0.  1.
</event>
<event>
 7    1  0.2941727E-013  0.7246160E+02  0.7816164E-02  0.1226708E+00
        -11   -1    0    0    0    0  0.00000000000E+00  0.00000000000E+00  0.45593999997E+02  0.45594000000E+02  0.51100000000E-03 0.  1.
         11   -1    0    0    0    0 -0.00000000000E+00 -0.00000000000E+00 -0.45593999997E+02  0.45594000000E+02  0.51100000000E-03 0. -1.
    9900012    2    1    2    0    0  0.61481456867E+01  0.11513070216E+02  0.13428616746E+02  0.72461595409E+02  0.70000032717E+02 0.  0.
         12    1    1    2    0    0 -0.61481456867E+01 -0.11513070216E+02 -0.13428616746E+02  0.18726404591E+02  0.00000000000E+00 0. -1.
         11    1    3    3    0    0  0.79323614348E+01  0.33312916880E+02  0.15355319140E+02  0.37529436648E+02  0.51100000000E-03 0. -1.
        -11    1    3    3    0    0 -0.53362683970E+01  0.41228941796E+01  0.43501534459E+01  0.80248272308E+01  0.51100000000E-03 0.  1.
        -12    1    3    3    0    0  0.35520526489E+01 -0.25922740843E+02 -0.62768558402E+01  0.26907331530E+02  0.00000000000E+00 0.  1.
</event>
<event>
 7    1  0.2941727E-013  0.7246149E+02  0.7816164E-02  0.1226708E+00
        -11   -1    0    0    0    0  0.00000000000E+00  0.00000000000E+00  0.45593999997E+02  0.45594000000E+02  0.51100000000E-03 0. -1.
         11   -1    0    0    0    0 -0.00000000000E+00 -0.00000000000E+00 -0.45593999997E+02  0.45594000000E+02  0.51100000000E-03 0.  1.
    9900012    2    1    2    0    0 -0.16887782538E+02  0.80219068275E+01 -0.10648079995E+01  0.72461494606E+02  0.69999901402E+02 0.  0.
         12    1    1    2    0    0  0.16887782538E+02 -0.80219068275E+01  0.10648079995E+01  0.18726505394E+02  0.00000000000E+00 0. -1.
         11    1    3    3    0    0  0.15021556116E+02 -0.67740939197E+01  0.20874703992E+01  0.16610027980E+02  0.51100000000E-03 0. -1.
        -11    1    3    3    0    0 -0.10088225380E+02 -0.22819910518E+01  0.18156591247E+02  0.20895970435E+02  0.51100000000E-03 0.  1.
        -12    1    3    3    0    0 -0.21821113274E+02  0.17077991799E+02 -0.21308869645E+02  0.34955496191E+02  0.00000000000E+00 0.  1.
</event>
<event>
 7    1  0.2941727E-013  0.7246186E+02  0.7816164E-02  0.1226707E+00
        -11   -1    0    0    0    0  0.00000000000E+00  0.00000000000E+00  0.45593999997E+02  0.45594000000E+02  0.51100000000E-03 0.  1.
         11   -1    0    0    0    0 -0.00000000000E+00 -0.00000000000E+00 -0.45593999997E+02  0.45594000000E+02  0.51100000000E-03 0. -1.
    9900012    2    1    2    0    0 -0.32818039845E+01 -0.15906190801E+02 -0.93215535430E+01  0.72461855078E+02  0.70000370982E+02 0.  0.
         12    1    1    2    0    0  0.32818039845E+01  0.15906190801E+02  0.93215535430E+01  0.18726144922E+02  0.00000000000E+00 0. -1.
         11    1    3    3    0    0  0.76022559027E+01 -0.15631648022E+02  0.41438411567E+01  0.17869363013E+02  0.51100000000E-03 0. -1.
        -11    1    3    3    0    0  0.53626343700E+00  0.11371575402E+02  0.16751797557E+02  0.20253963247E+02  0.51100000000E-03 0.  1.
        -12    1    3    3    0    0 -0.11420323324E+02 -0.11646118180E+02 -0.30217192256E+02  0.34338528817E+02  0.00000000000E+00 0.  1.
</event>
<event>
 7    1  0.2941727E-013  0.7246160E+02  0.7816164E-02  0.1226708E+00
        -11   -1    0    0    0    0  0.00000000000E+00  0.00000000000E+00  0.45593999997E+02  0.45594000000E+02  0.51100000000E-03 0.  1.
         11   -1    0    0    0    0 -0.00000000000E+00 -0.00000000000E+00 -0.45593999997E+02  0.45594000000E+02  0.51100000000E-03 0. -1.
    9900012    2    1    2    0    0 -0.12448837835E+02  0.13970170465E+02  0.73415051331E+00  0.72461596094E+02  0.70000033609E+02 0.  0.
         12    1    1    2    0    0  0.12448837835E+02 -0.13970170465E+02 -0.73415051331E+00  0.18726403906E+02  0.00000000000E+00 0. -1.
         11    1    3    3    0    0 -0.16422900787E+02 -0.13812359758E+02 -0.16364016631E+02  0.26986552076E+02  0.51100000000E-03 0. -1.
        -11    1    3    3    0    0  0.32093757045E+01  0.62486902764E+01 -0.91371380525E+01  0.11525342278E+02  0.51100000000E-03 0.  1.
        -12    1    3    3    0    0  0.76468724797E+00  0.21533839947E+02  0.26235305197E+02  0.33949701740E+02  0.00000000000E+00 0.  1.
</event>
<event>
 7    1  0.2941727E-013  0.7246156E+02  0.7816164E-02  0.1226708E+00
        -11   -1    0    0    0    0  0.00000000000E+00  0.00000000000E+00  0.45593999997E+02  0.45594000000E+02  0.51100000000E-03 0. -1.
         11   -1    0    0    0    0 -0.00000000000E+00 -0.00000000000E+00 -0.45593999997E+02  0.45594000000E+02  0.51100000000E-03 0.  1.
    9900012    2    1    2    0    0  0.91458401116E+01  0.15836131979E+02 -0.40311606335E+01  0.72461555505E+02  0.69999980734E+02 0.  0.
         12    1    1    2    0    0 -0.91458401116E+01 -0.15836131979E+02  0.40311606335E+01  0.18726444495E+02  0.00000000000E+00 0. -1.
         11    1    3    3    0    0  0.46390941445E+01  0.18590833984E+02  0.66475623371E+00  0.19172433435E+02  0.51100000000E-03 0. -1.
        -11    1    3    3    0    0  0.24615624731E+01  0.76760620563E+01  0.22601073602E+02  0.23995619324E+02  0.51100000000E-03 0.  1.
        -12    1    3    3    0    0  0.20451834940E+01 -0.10430764062E+02 -0.27296990469E+02  0.29293502746E+02  0.00000000000E+00 0.  1.
</event>
<event>
 7    1  0.2941727E-013  0.7246154E+02  0.7816164E-02  0.1226708E+00
        -11   -1    0    0    0    0  0.00000000000E+00  0.00000000000E+00  0.45593999997E+02  0.45594000000E+02  0.51100000000E-03 0. -1.
         11   -1    0    0    0    0 -0.00000000000E+00 -0.00000000000E+00 -0.45593999997E+02  0.45594000000E+02  0.51100000000E-03 0.  1.
    9900012    2    1    2    0    0  0.11017388705E+02  0.14991930704E+02  0.21305594724E+01  0.72461544815E+02  0.69999966809E+02 0.  0.
         12    1    1    2    0    0 -0.11017388705E+02 -0.14991930704E+02 -0.21305594724E+01  0.18726455185E+02  0.00000000000E+00 0. -1.
         11    1    3    3    0    0  0.10511411368E+02  0.25818927598E+02 -0.12617444027E+02  0.30599128832E+02  0.51100000000E-03 0. -1.
        -11    1    3    3    0    0 -0.14582766241E+02  0.66810719642E+01  0.67840305567E+01  0.17415994508E+02  0.51100000000E-03 0.  1.
         12    1    3    3    0    0  0.15088743579E+02 -0.17508068858E+02  0.79639729425E+01  0.24446421475E+02  0.00000000000E+00 0. -1.
</event>
<event>
 7    1  0.2941727E-013  0.7246155E+02  0.7816164E-02  0.1226708E+00
        -11   -1    0    0    0    0  0.00000000000E+00  0.00000000000E+00  0.45593999997E+02  0.45594000000E+02  0.51100000000E-03 0.  1.
         11   -1    0    0    0    0 -0.00000000000E+00 -0.00000000000E+00 -0.45593999997E+02  0.45594000000E+02  0.51100000000E-03 0. -1.
    9900012    2    1    2    0    0 -0.13582400292E+02 -0.11171068762E+02  0.64347280653E+01  0.72461545443E+02  0.69999967627E+02 0.  0.
         12    1    1    2    0    0  0.13582400292E+02  0.11171068762E+02 -0.64347280653E+01  0.18726454557E+02  0.00000000000E+00 0. -1.
         11    1    3    3    0    0  0.28728956245E+01  0.34293255488E+01  0.25485555520E+02  0.25875226442E+02  0.51100000000E-03 0. -1.
        -11    1    3    3    0    0 -0.15526622671E+02  0.76194632561E+01  0.11462210620E-01  0.17295443432E+02  0.51100000000E-03 0.  1.
         12    1    3    3    0    0 -0.92867324596E+00 -0.22219857567E+02 -0.19062289665E+02  0.29290875569E+02  0.00000000000E+00 0. -1.
</event>
<event>
 7    1  0.2941727E-013  0.7246157E+02  0.7816164E-02  0.1226708E+00
        -11   -1    0    0    0    0  0.00000000000E+00  0.00000000000E+00  0.45593999997E+02  0.45594000000E+02  0.51100000000E-03 0. -1.
         11   -1    0    0    0    0 -0.00000000000E+00 -0.00000000000E+00 -0.45593999997E+02  0.45594000000E+02  0.51100000000E-03 0.  1.
    9900012    2    1    2    0    0 -0.11901271644E+02  0.13223675040E+02  0.58457889639E+01  0.72461572233E+02  0.70000002525E+02 0.  0.
         12    1    1    2    0    0  0.11901271644E+02 -0.13223675040E+02 -0.58457889639E+01  0.18726427767E+02  0.00000000000E+00 0. -1.
         11    1    3    3    0    0  0.17730108184E+02  0.25152533267E+01  0.59006587693E+01  0.18854734410E+02  0.51100000000E-03 0. -1.
        -11    1    3    3    0    0  0.75431101827E+01 -0.15488051821E+01 -0.10568535029E+02  0.13076361942E+02  0.51100000000E-03 0.  1.
         12    1    3    3    0    0 -0.37174490010E+02  0.12257226895E+02  0.10513665223E+02  0.40530475881E+02  0.00000000000E+00 0. -1.
</event>
<event>
 7    1  0.2941727E-013  0.7246152E+02  0.7816164E-02  0.1226708E+00
        -11   -1    0    0    0    0  0.00000000000E+00  0.00000000000E+00  0.45593999997E+02  0.45594000000E+02  0.51100000000E-03 0. -1.
         11   -1    0    0    0    0 -0.00000000000E+00 -0.00000000000E+00 -0.45593999997E+02  0.45594000000E+02  0.51100000000E-03 0.  1.
    9900012    2    1    2    0    0  0.13798787221E+02 -0.69595342566E+01 -0.10575422842E+02  0.72461515703E+02  0.69999928885E+02 0.  0.
         12    1    1    2    0    0 -0.13798787221E+02  0.69595342566E+01  0.10575422842E+02  0.18726484297E+02  0.00000000000E+00 0. -1.
         11    1    3    3    0    0 -0.42234715139E+01 -0.55460343264E+01  0.30068672411E+01  0.75919338278E+01  0.51100000000E-03 0. -1.
        -11    1    3    3    0    0 -0.28466778203E+01 -0.24880895566E+02  0.85359940878E+01  0.26457999435E+02  0.51100000000E-03 0.  1.
         12    1    3    3    0    0  0.20868936555E+02  0.23467395636E+02 -0.22118284171E+02  0.38411582440E+02  0.00000000000E+00 0. -1.
</event>
<event>
 7    1  0.2941727E-013  0.7246167E+02  0.7816164E-02  0.1226708E+00
        -11   -1    0    0    0    0  0.00000000000E+00  0.00000000000E+00  0.45593999997E+02  0.45594000000E+02  0.51100000000E-03 0. -1.
         11   -1    0    0    0    0 -0.00000000000E+00 -0.00000000000E+00 -0.45593999997E+02  0.45594000000E+02  0.51100000000E-03 0.  1.
    9900012    2    1    2    0    0  0.12066586945E+01  0.94752066060E+01 -0.16107132972E+02  0.72461673665E+02  0.70000134659E+02 0.  0.
         12    1    1    2    0    0 -0.12066586945E+01 -0.94752066060E+01  0.16107132972E+02  0.18726326335E+02  0.00000000000E+00 0. -1.
         11    1    3    3    0    0  0.25014051915E+02  0.77763990518E+01  0.30510170430E+00  0.26196722366E+02  0.51100000000E-03 0. -1.
        -11    1    3    3    0    0 -0.13687051890E+02  0.15856475738E+02  0.18627559612E+01  0.21029338371E+02  0.51100000000E-03 0.  1.
        -12    1    3    3    0    0 -0.10120341330E+02 -0.14157668184E+02 -0.18274990638E+02  0.25235612928E+02  0.00000000000E+00 0.  1.
</event>
<event>
 7    1  0.2941727E-013  0.7246156E+02  0.7816164E-02  0.1226708E+00
        -11   -1    0    0    0    0  0.00000000000E+00  0.00000000000E+00  0.45593999997E+02  0.45594000000E+02  0.51100000000E-03 0. -1.
         11   -1    0    0    0    0 -0.00000000000E+00 -0.00000000000E+00 -0.45593999997E+02  0.45594000000E+02  0.51100000000E-03 0.  1.
    9900012    2    1    2    0    0 -0.17723865080E+02 -0.58797604622E+01  0.14044479207E+01  0.72461562794E+02  0.69999990230E+02 0.  0.
         12    1    1    2    0    0  0.17723865080E+02  0.58797604622E+01 -0.14044479207E+01  0.18726437206E+02  0.00000000000E+00 0. -1.
         11    1    3    3    0    0  0.11252237359E+01 -0.14372635831E+02  0.17761630044E+02  0.22876063718E+02  0.51100000000E-03 0. -1.
        -11    1    3    3    0    0 -0.24588962574E+02  0.97683450773E+01  0.54378524330E+01  0.27011254791E+02  0.51100000000E-03 0.  1.
         12    1    3    3    0    0  0.57398737589E+01 -0.12754697086E+01 -0.21795034556E+02  0.22574244285E+02  0.00000000000E+00 0. -1.
</event>
<event>
 7    1  0.2941727E-013  0.7246159E+02  0.7816164E-02  0.1226708E+00
        -11   -1    0    0    0    0  0.00000000000E+00  0.00000000000E+00  0.45593999997E+02  0.45594000000E+02  0.51100000000E-03 0.  1.
         11   -1    0    0    0    0 -0.00000000000E+00 -0.00000000000E+00 -0.45593999997E+02  0.45594000000E+02  0.51100000000E-03 0. -1.
    9900012    2    1    2    0    0  0.51297234065E+01  0.37512395128E+01  0.17615127111E+02  0.72461586482E+02  0.70000021088E+02 0.  0.
         12    1    1    2    0    0 -0.51297234065E+01 -0.37512395128E+01 -0.17615127111E+02  0.18726413518E+02  0.00000000000E+00 0. -1.
         11    1    3    3    0    0 -0.64797055237E+01 -0.15735261032E+02 -0.71076697593E+01  0.18441908608E+02  0.51100000000E-03 0. -1.
        -11    1    3    3    0    0  0.60061526888E+01 -0.87828885150E+01  0.22771047773E+02  0.25134311563E+02  0.51100000000E-03 0.  1.
         12    1    3    3    0    0  0.56032762414E+01  0.28269389060E+02  0.19517490970E+01  0.28885366312E+02  0.00000000000E+00 0. -1.
</event>
<event>
 7    1  0.2941727E-013  0.7246159E+02  0.7816164E-02  0.1226708E+00
        -11   -1    0    0    0    0  0.00000000000E+00  0.00000000000E+00  0.45593999997E+02  0.45594000000E+02  0.51100000000E-03 0.  1.
         11   -1    0    0    0    0 -0.00000000000E+00 -0.00000000000E+00 -0.45593999997E+02  0.45594000000E+02  0.51100000000E-03 0. -1.
    9900012    2    1    2    0    0 -0.15431008727E+02  0.55614524554E+01  0.90350854996E+01  0.72461586736E+02  0.70000021418E+02 0.  0.
         12    1    1    2    0    0  0.15431008727E+02 -0.55614524554E+01 -0.90350854996E+01  0.18726413264E+02  0.00000000000E+00 0. -1.
         11    1    3    3    0    0 -0.95678677012E+01  0.29766585295E+02  0.90383169258E+01  0.32546656750E+02  0.51100000000E-03 0.  1.
        -11    1    3    3    0    0  0.49911175831E+01  0.13302910332E+01  0.93101000752E+01  0.10647013320E+02  0.51100000000E-03 0. -1.
        -12    1    3    3    0    0 -0.10854258609E+02 -0.25535423873E+02 -0.93133315014E+01  0.29267916666E+02  0.00000000000E+00 0.  1.
</event>
<event>
 7    1  0.2941727E-013  0.7246158E+02  0.7816164E-02  0.1226708E+00
        -11   -1    0    0    0    0  0.00000000000E+00  0.00000000000E+00  0.45593999997E+02  0.45594000000E+02  0.51100000000E-03 0.  1.
         11   -1    0    0    0    0 -0.00000000000E+00 -0.00000000000E+00 -0.45593999997E+02  0.45594000000E+02  0.51100000000E-03 0. -1.
    9900012    2    1    2    0    0 -0.84064399134E+01  0.16545835769E+02 -0.24991912193E+01  0.72461578290E+02  0.70000010416E+02 0.  0.
         12    1    1    2    0    0  0.84064399134E+01 -0.16545835769E+02  0.24991912193E+01  0.18726421710E+02  0.00000000000E+00 0. -1.
         11    1    3    3    0    0  0.76668822706E+01 -0.21445915190E+01  0.65495130845E+01  0.10309048377E+02  0.51100000000E-03 0. -1.
        -11    1    3    3    0    0 -0.16289179205E+02  0.15137040939E+01  0.21553365032E+02  0.27058754659E+02  0.51100000000E-03 0.  1.
        -12    1    3    3    0    0  0.21585702084E+00  0.17176723194E+02 -0.30602069336E+02  0.35093775254E+02  0.00000000000E+00 0.  1.
</event>
<event>
 7    1  0.2941727E-013  0.7246154E+02  0.7816164E-02  0.1226708E+00
        -11   -1    0    0    0    0  0.00000000000E+00  0.00000000000E+00  0.45593999997E+02  0.45594000000E+02  0.51100000000E-03 0. -1.
         11   -1    0    0    0    0 -0.00000000000E+00 -0.00000000000E+00 -0.45593999997E+02  0.45594000000E+02  0.51100000000E-03 0.  1.
    9900012    2    1    2    0    0 -0.10007141225E+02  0.33016337573E+00 -0.15824930889E+02  0.72461539550E+02  0.69999959950E+02 0.  0.
         12    1    1    2    0    0  0.10007141225E+02 -0.33016337573E+00  0.15824930889E+02  0.18726460450E+02  0.00000000000E+00 0. -1.
         11    1    3    3    0    0 -0.47790646454E+01  0.11710598409E+02 -0.85082984326E+01  0.15243645118E+02  0.51100000000E-03 0. -1.
        -11    1    3    3    0    0  0.16636277808E+02 -0.20755098977E+02 -0.16961957506E+02  0.31547549438E+02  0.51100000000E-03 0.  1.
         12    1    3    3    0    0 -0.21864354387E+02  0.93746639435E+01  0.96453250500E+01  0.25670344995E+02  0.00000000000E+00 0. -1.
</event>
<event>
 7    1  0.2941727E-013  0.7246157E+02  0.7816164E-02  0.1226708E+00
        -11   -1    0    0    0    0  0.00000000000E+00  0.00000000000E+00  0.45593999997E+02  0.45594000000E+02  0.51100000000E-03 0.  1.
         11   -1    0    0    0    0 -0.00000000000E+00 -0.00000000000E+00 -0.45593999997E+02  0.45594000000E+02  0.51100000000E-03 0. -1.
    9900012    2    1    2    0    0  0.28125635859E+01 -0.10603470389E+02  0.15176789461E+02  0.72461573844E+02  0.70000004624E+02 0.  0.
         12    1    1    2    0    0 -0.28125635859E+01  0.10603470389E+02 -0.15176789461E+02  0.18726426156E+02  0.00000000000E+00 0. -1.
         11    1    3    3    0    0 -0.42411192048E+01 -0.16112160878E+01 -0.89469305237E+01  0.10031484210E+02  0.51100000000E-03 0. -1.
        -11    1    3    3    0    0  0.29524147250E+01 -0.69060683617E+01 -0.18287622441E+02  0.19769867671E+02  0.51100000000E-03 0.  1.
         12    1    3    3    0    0  0.41012680657E+01 -0.20861859399E+01  0.42411342426E+02  0.42660221963E+02  0.00000000000E+00 0. -1.
</event>
<event>
 7    1  0.2941727E-013  0.7246154E+02  0.7816164E-02  0.1226708E+00
        -11   -1    0    0    0    0  0.00000000000E+00  0.00000000000E+00  0.45593999997E+02  0.45594000000E+02  0.51100000000E-03 0.  1.
         11   -1    0    0    0    0 -0.00000000000E+00 -0.00000000000E+00 -0.45593999997E+02  0.45594000000E+02  0.51100000000E-03 0. -1.
    9900012    2    1    2    0    0  0.15483302974E+02  0.48119552627E+00  0.10522169989E+02  0.72461540607E+02  0.69999961327E+02 0.  0.
         12    1    1    2    0    0 -0.15483302974E+02 -0.48119552627E+00 -0.10522169989E+02  0.18726459393E+02  0.00000000000E+00 0. -1.
         11    1    3    3    0    0  0.33683615663E+02  0.23394131720E+01 -0.11629258593E+02  0.35711321368E+02  0.51100000000E-03 0. -1.
        -11    1    3    3    0    0  0.34325009456E+01 -0.12524605619E+01 -0.21259641094E+01  0.42273447761E+01  0.51100000000E-03 0.  1.
        -12    1    3    3    0    0 -0.21632813635E+02 -0.60575708381E+00  0.24277392692E+02  0.32522874463E+02  0.00000000000E+00 0.  1.
</event>
<event>
 7    1  0.2941727E-013  0.7246156E+02  0.7816164E-02  0.1226708E+00
        -11   -1    0    0    0    0  0.00000000000E+00  0.00000000000E+00  0.45593999997E+02  0.45594000000E+02  0.51100000000E-03 0. -1.
         11   -1    0    0    0    0 -0.00000000000E+00 -0.00000000000E+00 -0.45593999997E+02  0.45594000000E+02  0.51100000000E-03 0.  1.
    9900012    2    1    2    0    0 -0.15472797686E+02 -0.10546800420E+02 -0.19287598763E+00  0.72461556972E+02  0.69999982645E+02 0.  0.
         12    1    1    2    0    0  0.15472797686E+02  0.10546800420E+02  0.19287598763E+00  0.18726443028E+02  0.00000000000E+00 0. -1.
         11    1    3    3    0    0  0.23895289689E+01 -0.12881549115E+02  0.18612401424E+02  0.22761055409E+02  0.51100000000E-03 0. -1.
        -11    1    3    3    0    0  0.84894453726E+01 -0.12790620225E+02 -0.88881145304E+01  0.17738918474E+02  0.51100000000E-03 0.  1.
        -12    1    3    3    0    0 -0.26351772027E+02  0.15125368919E+02 -0.99171628816E+01  0.31961583089E+02  0.00000000000E+00 0.  1.
</event>
<event>
 7    1  0.2941727E-013  0.7246143E+02  0.7816164E-02  0.1226708E+00
        -11   -1    0    0    0    0  0.00000000000E+00  0.00000000000E+00  0.45593999997E+02  0.45594000000E+02  0.51100000000E-03 0.  1.
         11   -1    0    0    0    0 -0.00000000000E+00 -0.00000000000E+00 -0.45593999997E+02  0.45594000000E+02  0.51100000000E-03 0. -1.
    9900012    2    1    2    0    0  0.14558970026E+02 -0.76956255626E+01 -0.89161702739E+01  0.72461431885E+02  0.69999819695E+02 0.  0.
         12    1    1    2    0    0 -0.14558970026E+02  0.76956255626E+01  0.89161702739E+01  0.18726568115E+02  0.00000000000E+00 0. -1.
         11    1    3    3    0    0  0.15604661660E+02  0.20648907035E+02 -0.16166907343E+02  0.30516417231E+02  0.51100000000E-03 0. -1.
        -11    1    3    3    0    0  0.86076613106E+01  0.23942332130E+01  0.31142337599E+01  0.94616403487E+01  0.51100000000E-03 0.  1.
        -12    1    3    3    0    0 -0.96533529445E+01 -0.30738765811E+02  0.41365033096E+01  0.32483374305E+02  0.00000000000E+00 0.  1.
</event>
<event>
 7    1  0.2941727E-013  0.7246141E+02  0.7816164E-02  0.1226708E+00
        -11   -1    0    0    0    0  0.00000000000E+00  0.00000000000E+00  0.45593999997E+02  0.45594000000E+02  0.51100000000E-03 0.  1.
         11   -1    0    0    0    0 -0.00000000000E+00 -0.00000000000E+00 -0.45593999997E+02  0.45594000000E+02  0.51100000000E-03 0. -1.
    9900012    2    1    2    0    0 -0.11604897981E+02  0.13155816127E+02  0.65525478875E+01  0.72461413580E+02  0.69999795851E+02 0.  0.
         12    1    1    2    0    0  0.11604897981E+02 -0.13155816127E+02 -0.65525478875E+01  0.18726586420E+02  0.00000000000E+00 0. -1.
         11    1    3    3    0    0 -0.92763335088E+01 -0.10889313033E+01 -0.88135932096E+01  0.12841945346E+02  0.51100000000E-03 0. -1.
        -11    1    3    3    0    0  0.11992137209E+02 -0.18391394013E+02  0.63873885934E+01  0.22865989195E+02  0.51100000000E-03 0.  1.
        -12    1    3    3    0    0 -0.14320701682E+02  0.32636141443E+02  0.89787525037E+01  0.36753479039E+02  0.00000000000E+00 0.  1.
</event>
<event>
 7    1  0.2941727E-013  0.7246155E+02  0.7816164E-02  0.1226708E+00
        -11   -1    0    0    0    0  0.00000000000E+00  0.00000000000E+00  0.45593999997E+02  0.45594000000E+02  0.51100000000E-03 0.  1.
         11   -1    0    0    0    0 -0.00000000000E+00 -0.00000000000E+00 -0.45593999997E+02  0.45594000000E+02  0.51100000000E-03 0. -1.
    9900012    2    1    2    0    0 -0.10895060050E+02 -0.12865998535E+02  0.81513080255E+01  0.72461546136E+02  0.69999968529E+02 0.  0.
         12    1    1    2    0    0  0.10895060050E+02  0.12865998535E+02 -0.81513080255E+01  0.18726453864E+02  0.00000000000E+00 0. -1.
         11    1    3    3    0    0 -0.76656954853E+00 -0.46287480595E+01  0.52091906279E+01  0.70106065879E+01  0.51100000000E-03 0. -1.
        -11    1    3    3    0    0  0.57810350246E+01  0.72286408513E+01  0.29457102895E+02  0.30877087391E+02  0.51100000000E-03 0.  1.
         12    1    3    3    0    0 -0.15909525526E+02 -0.15465891327E+02 -0.26514985498E+02  0.34573852157E+02  0.00000000000E+00 0. -1.
</event>
<event>
 7    1  0.2941727E-013  0.7246150E+02  0.7816164E-02  0.1226708E+00
        -11   -1    0    0    0    0  0.00000000000E+00  0.00000000000E+00  0.45593999997E+02  0.45594000000E+02  0.51100000000E-03 0. -1.
         11   -1    0    0    0    0 -0.00000000000E+00 -0.00000000000E+00 -0.45593999997E+02  0.45594000000E+02  0.51100000000E-03 0.  1.
    9900012    2    1    2    0    0  0.15554691520E+02  0.10386954233E+02 -0.91902446146E+00  0.72461498659E+02  0.69999906682E+02 0.  0.
         12    1    1    2    0    0 -0.15554691520E+02 -0.10386954233E+02  0.91902446146E+00  0.18726501341E+02  0.00000000000E+00 0. -1.
         11    1    3    3    0    0  0.85714600457E+01 -0.88630325071E+01  0.28287647952E+01  0.12650106050E+02  0.51100000000E-03 0. -1.
        -11    1    3    3    0    0  0.68251186494E+01  0.13340912599E+02 -0.29661507944E+02  0.33232021415E+02  0.51100000000E-03 0.  1.
         12    1    3    3    0    0  0.15811282455E+00  0.59090741411E+01  0.25913718688E+02  0.26579371194E+02  0.00000000000E+00 0. -1.
</event>
<event>
 7    1  0.2941727E-013  0.7246150E+02  0.7816164E-02  0.1226708E+00
        -11   -1    0    0    0    0  0.00000000000E+00  0.00000000000E+00  0.45593999997E+02  0.45594000000E+02  0.51100000000E-03 0.  1.
         11   -1    0    0    0    0 -0.00000000000E+00 -0.00000000000E+00 -0.45593999997E+02  0.45594000000E+02  0.51100000000E-03 0. -1.
    9900012    2    1    2    0    0  0.94906996761E+00  0.12151562234E+02  0.14216909878E+02  0.72461502062E+02  0.69999911115E+02 0.  0.
         12    1    1    2    0    0 -0.94906996761E+00 -0.12151562234E+02 -0.14216909878E+02  0.18726497938E+02  0.00000000000E+00 0. -1.
         11    1    3    3    0    0  0.13320369939E+02  0.64931988931E+01  0.96117174304E+01  0.17662927260E+02  0.51100000000E-03 0. -1.
        -11    1    3    3    0    0 -0.32311920712E+02  0.34442654065E+01  0.10043015958E+02  0.34011547364E+02  0.51100000000E-03 0.  1.
         12    1    3    3    0    0  0.19940620740E+02  0.22140979348E+01 -0.54378235100E+01  0.20787027438E+02  0.00000000000E+00 0. -1.
</event>
<event>
 7    1  0.2941727E-013  0.7246156E+02  0.7816164E-02  0.1226708E+00
        -11   -1    0    0    0    0  0.00000000000E+00  0.00000000000E+00  0.45593999997E+02  0.45594000000E+02  0.51100000000E-03 0.  1.
         11   -1    0    0    0    0 -0.00000000000E+00 -0.00000000000E+00 -0.45593999997E+02  0.45594000000E+02  0.51100000000E-03 0. -1.
    9900012    2    1    2    0    0  0.27653937672E+01 -0.16412275837E+02  0.85830896446E+01  0.72461558035E+02  0.69999984030E+02 0.  0.
         12    1    1    2    0    0 -0.27653937672E+01  0.16412275837E+02 -0.85830896446E+01  0.18726441965E+02  0.00000000000E+00 0. -1.
         11    1    3    3    0    0  0.15178490344E+02 -0.29907586007E+02 -0.16772992422E+01  0.33580702835E+02  0.51100000000E-03 0. -1.
        -11    1    3    3    0    0  0.54477786032E+01 -0.60668870431E+01 -0.36815440151E+01  0.89464616860E+01  0.51100000000E-03 0.  1.
        -12    1    3    3    0    0 -0.17860875180E+02  0.19562197213E+02  0.13941932902E+02  0.29934393514E+02  0.00000000000E+00 0.  1.
</event>
<event>
 7    1  0.2941727E-013  0.7246157E+02  0.7816164E-02  0.1226708E+00
        -11   -1    0    0    0    0  0.00000000000E+00  0.00000000000E+00  0.45593999997E+02  0.45594000000E+02  0.51100000000E-03 0.  1.
         11   -1    0    0    0    0 -0.00000000000E+00 -0.00000000000E+00 -0.45593999997E+02  0.45594000000E+02  0.51100000000E-03 0. -1.
    9900012    2    1    2    0    0  0.86900250887E+01 -0.14162837018E+02  0.86357704395E+01  0.72461574299E+02  0.70000005217E+02 0.  0.
         12    1    1    2    0    0 -0.86900250887E+01  0.14162837018E+02 -0.86357704395E+01  0.18726425701E+02  0.00000000000E+00 0. -1.
         11    1    3    3    0    0 -0.64047797688E+01 -0.42643647272E+01  0.15997091503E+02  0.17751420992E+02  0.51100000000E-03 0. -1.
        -11    1    3    3    0    0  0.60860322140E+01 -0.28884333883E+02 -0.14002015238E+02  0.32671102873E+02  0.51100000000E-03 0.  1.
         12    1    3    3    0    0  0.90087726435E+01  0.18985861592E+02  0.66406941751E+01  0.22039050434E+02  0.00000000000E+00 0. -1.
</event>
<event>
 7    1  0.2941727E-013  0.7246176E+02  0.7816164E-02  0.1226708E+00
        -11   -1    0    0    0    0  0.00000000000E+00  0.00000000000E+00  0.45593999997E+02  0.45594000000E+02  0.51100000000E-03 0.  1.
         11   -1    0    0    0    0 -0.00000000000E+00 -0.00000000000E+00 -0.45593999997E+02  0.45594000000E+02  0.51100000000E-03 0. -1.
    9900012    2    1    2    0    0  0.15844435548E+02  0.92115121038E+01  0.38437156362E+01  0.72461755236E+02  0.70000240920E+02 0.  0.
         12    1    1    2    0    0 -0.15844435548E+02 -0.92115121038E+01 -0.38437156362E+01  0.18726244764E+02  0.00000000000E+00 0. -1.
         11    1    3    3    0    0 -0.18928574320E+02  0.12530061184E+02  0.19814746365E+02  0.30131669931E+02  0.51100000000E-03 0. -1.
        -11    1    3    3    0    0  0.10146323690E+01  0.83832175363E+00  0.30767419207E+01  0.33464314298E+01  0.51100000000E-03 0.  1.
        -12    1    3    3    0    0  0.33758377499E+02 -0.41568708339E+01 -0.19047772650E+02  0.38983653875E+02  0.00000000000E+00 0.  1.
</event>
<event>
 7    1  0.2941727E-013  0.7246157E+02  0.7816164E-02  0.1226708E+00
        -11   -1    0    0    0    0  0.00000000000E+00  0.00000000000E+00  0.45593999997E+02  0.45594000000E+02  0.51100000000E-03 0. -1.
         11   -1    0    0    0    0 -0.00000000000E+00 -0.00000000000E+00 -0.45593999997E+02  0.45594000000E+02  0.51100000000E-03 0.  1.
    9900012    2    1    2    0    0 -0.91504773361E+01 -0.13261476167E+02 -0.95436422620E+01  0.72461572331E+02  0.70000002654E+02 0.  0.
         12    1    1    2    0    0  0.91504773361E+01  0.13261476167E+02  0.95436422620E+01  0.18726427669E+02  0.00000000000E+00 0. -1.
         11    1    3    3    0    0  0.87611451999E+00 -0.18900858233E+02 -0.17748575483E+02  0.25942666604E+02  0.51100000000E-03 0. -1.
        -11    1    3    3    0    0 -0.13374736382E+02 -0.14818807293E+02 -0.66222890638E+01  0.21031769673E+02  0.51100000000E-03 0.  1.
        -12    1    3    3    0    0  0.33481445256E+01  0.20458189358E+02  0.14827222285E+02  0.25487136055E+02  0.00000000000E+00 0.  1.
</event>
<event>
 7    1  0.2941727E-013  0.7246157E+02  0.7816164E-02  0.1226708E+00
        -11   -1    0    0    0    0  0.00000000000E+00  0.00000000000E+00  0.45593999997E+02  0.45594000000E+02  0.51100000000E-03 0.  1.
         11   -1    0    0    0    0 -0.00000000000E+00 -0.00000000000E+00 -0.45593999997E+02  0.45594000000E+02  0.51100000000E-03 0. -1.
    9900012    2    1    2    0    0  0.79517411005E+01 -0.16354215119E+02  0.44708679026E+01  0.72461569521E+02  0.69999998992E+02 0.  0.
         12    1    1    2    0    0 -0.79517411005E+01  0.16354215119E+02 -0.44708679026E+01  0.18726430479E+02  0.00000000000E+00 0. -1.
         11    1    3    3    0    0 -0.25564817143E+02  0.72290310927E+01 -0.14061874310E+01  0.26604438154E+02  0.51100000000E-03 0. -1.
        -11    1    3    3    0    0  0.41378274628E+01 -0.82275585225E+01  0.85936563297E+01  0.12596240103E+02  0.51100000000E-03 0.  1.
        -12    1    3    3    0    0  0.29378730781E+02 -0.15355687689E+02 -0.27166009961E+01  0.33260891264E+02  0.00000000000E+00 0.  1.
</event>
<event>
 7    1  0.2941727E-013  0.7246158E+02  0.7816164E-02  0.1226708E+00
        -11   -1    0    0    0    0  0.00000000000E+00  0.00000000000E+00  0.45593999997E+02  0.45594000000E+02  0.51100000000E-03 0.  1.
         11   -1    0    0    0    0 -0.00000000000E+00 -0.00000000000E+00 -0.45593999997E+02  0.45594000000E+02  0.51100000000E-03 0. -1.
    9900012    2    1    2    0    0  0.14022984262E+02  0.24789390712E+01  0.12160991308E+02  0.72461576527E+02  0.70000008119E+02 0.  0.
         12    1    1    2    0    0 -0.14022984262E+02 -0.24789390712E+01 -0.12160991308E+02  0.18726423473E+02  0.00000000000E+00 0. -1.
         11    1    3    3    0    0  0.46607649311E+01  0.10924266414E+02  0.15293880925E+02  0.19364016123E+02  0.51100000000E-03 0. -1.
        -11    1    3    3    0    0 -0.51882572983E+01  0.39672520141E+01  0.21179729369E+02  0.22163890424E+02  0.51100000000E-03 0.  1.
         12    1    3    3    0    0  0.14550476629E+02 -0.12412579357E+02 -0.24312618986E+02  0.30933669979E+02  0.00000000000E+00 0. -1.
</event>
<event>
 7    1  0.2941727E-013  0.7246159E+02  0.7816164E-02  0.1226708E+00
        -11   -1    0    0    0    0  0.00000000000E+00  0.00000000000E+00  0.45593999997E+02  0.45594000000E+02  0.51100000000E-03 0.  1.
         11   -1    0    0    0    0 -0.00000000000E+00 -0.00000000000E+00 -0.45593999997E+02  0.45594000000E+02  0.51100000000E-03 0. -1.
    9900012    2    1    2    0    0  0.41548621049E+01 -0.10992609760E+02  0.14580060420E+02  0.72461587896E+02  0.70000022929E+02 0.  0.
         12    1    1    2    0    0 -0.41548621049E+01  0.10992609760E+02 -0.14580060420E+02  0.18726412104E+02  0.00000000000E+00 0. -1.
         11    1    3    3    0    0 -0.20778468530E+02 -0.51990292463E+01  0.54510978326E+00  0.21425960993E+02  0.51100000000E-03 0. -1.
        -11    1    3    3    0    0 -0.81566206313E-01  0.69541288063E+01 -0.11267268631E+02  0.13240766714E+02  0.51100000000E-03 0.  1.
        -12    1    3    3    0    0  0.25014896841E+02 -0.12747709320E+02  0.25302219267E+02  0.37794860189E+02  0.00000000000E+00 0.  1.
</event>
<event>
 7    1  0.2941727E-013  0.7246156E+02  0.7816164E-02  0.1226708E+00
        -11   -1    0    0    0    0  0.00000000000E+00  0.00000000000E+00  0.45593999997E+02  0.45594000000E+02  0.51100000000E-03 0. -1.
         11   -1    0    0    0    0 -0.00000000000E+00 -0.00000000000E+00 -0.45593999997E+02  0.45594000000E+02  0.51100000000E-03 0.  1.
    9900012    2    1    2    0    0  0.12452530452E+02 -0.48149267203E+01 -0.13131276058E+02  0.72461562942E+02  0.69999990422E+02 0.  0.
         12    1    1    2    0    0 -0.12452530452E+02  0.48149267203E+01  0.13131276058E+02  0.18726437058E+02  0.00000000000E+00 0. -1.
         11    1    3    3    0    0 -0.10735845681E+02 -0.99469086638E+01 -0.18863612632E+02  0.23875411122E+02  0.51100000000E-03 0. -1.
        -11    1    3    3    0    0 -0.11091238142E+02 -0.53625951782E+01  0.27196482269E+00  0.12322619676E+02  0.51100000000E-03 0.  1.
         12    1    3    3    0    0  0.34279614275E+02  0.10494577122E+02  0.54603717513E+01  0.36263532143E+02  0.00000000000E+00 0. -1.
</event>
<event>
 7    1  0.2941727E-013  0.7246165E+02  0.7816164E-02  0.1226708E+00
        -11   -1    0    0    0    0  0.00000000000E+00  0.00000000000E+00  0.45593999997E+02  0.45594000000E+02  0.51100000000E-03 0. -1.
         11   -1    0    0    0    0 -0.00000000000E+00 -0.00000000000E+00 -0.45593999997E+02  0.45594000000E+02  0.51100000000E-03 0.  1.
    9900012    2    1    2    0    0  0.91936524204E+01  0.13954375292E+02 -0.84515186155E+01  0.72461654880E+02  0.70000110189E+02 0.  0.
         12    1    1    2    0    0 -0.91936524204E+01 -0.13954375292E+02  0.84515186155E+01  0.18726345120E+02  0.00000000000E+00 0. -1.
         11    1    3    3    0    0  0.26514328688E+01  0.48688945417E+01 -0.12130865018E+02  0.13337695328E+02  0.51100000000E-03 0. -1.
        -11    1    3    3    0    0  0.16049308609E+02  0.16894681831E+02 -0.21114296013E+02  0.31445573255E+02  0.51100000000E-03 0.  1.
         12    1    3    3    0    0 -0.95070890573E+01 -0.78092010799E+01  0.24793642415E+02  0.27678386298E+02  0.00000000000E+00 0. -1.
</event>
<event>
 7    1  0.2941727E-013  0.7246159E+02  0.7816164E-02  0.1226708E+00
        -11   -1    0    0    0    0  0.00000000000E+00  0.00000000000E+00  0.45593999997E+02  0.45594000000E+02  0.51100000000E-03 0.  1.
         11   -1    0    0    0    0 -0.00000000000E+00 -0.00000000000E+00 -0.45593999997E+02  0.45594000000E+02  0.51100000000E-03 0. -1.
    9900012    2    1    2    0    0  0.15249049521E+02  0.93627107608E+01  0.55212933881E+01  0.72461586976E+02  0.70000021730E+02 0.  0.
         12    1    1    2    0    0 -0.15249049521E+02 -0.93627107608E+01 -0.55212933881E+01  0.18726413024E+02  0.00000000000E+00 0. -1.
         11    1    3    3    0    0  0.57382010525E+01 -0.21087730461E+02  0.15806745157E+02  0.26971698501E+02  0.51100000000E-03 0. -1.
        -11    1    3    3    0    0  0.94043633327E+01  0.21752110583E+02  0.81864355397E+01  0.25072177640E+02  0.51100000000E-03 0.  1.
         12    1    3    3    0    0  0.10648513585E+00  0.86983306390E+01 -0.18471887309E+02  0.20417710835E+02  0.00000000000E+00 0. -1.
</event>
<event>
 7    1  0.2941727E-013  0.7246154E+02  0.7816164E-02  0.1226708E+00
        -11   -1    0    0    0    0  0.00000000000E+00  0.00000000000E+00  0.45593999997E+02  0.45594000000E+02  0.51100000000E-03 0.  1.
         11   -1    0    0    0    0 -0.00000000000E+00 -0.00000000000E+00 -0.45593999997E+02  0.45594000000E+02  0.51100000000E-03 0. -1.
    9900012    2    1    2    0    0 -0.63793347973E+01 -0.81849302685E+01  0.15588180985E+02  0.72461537911E+02  0.69999957814E+02 0.  0.
         12    1    1    2    0    0  0.63793347973E+01  0.81849302685E+01 -0.15588180985E+02  0.18726462089E+02  0.00000000000E+00 0. -1.
         11    1    3    3    0    0  0.13690590880E+02 -0.36726042091E+01 -0.17341628674E+02  0.22397597765E+02  0.51100000000E-03 0. -1.
        -11    1    3    3    0    0 -0.17529038267E+02 -0.52826737070E+01  0.13334819568E+01  0.18356252298E+02  0.51100000000E-03 0.  1.
        -12    1    3    3    0    0 -0.25408874109E+01  0.77034764763E+00  0.31596327702E+02  0.31707687847E+02  0.00000000000E+00 0.  1.
</event>
<event>
 7    1  0.2941727E-013  0.7246159E+02  0.7816164E-02  0.1226708E+00
        -11   -1    0    0    0    0  0.00000000000E+00  0.00000000000E+00  0.45593999997E+02  0.45594000000E+02  0.51100000000E-03 0. -1.
         11   -1    0    0    0    0 -0.00000000000E+00 -0.00000000000E+00 -0.45593999997E+02  0.45594000000E+02  0.51100000000E-03 0.  1.
    9900012    2    1    2    0    0  0.32098853535E+01 -0.36664675302E+01 -0.18081267225E+02  0.72461586232E+02  0.70000020762E+02 0.  0.
         12    1    1    2    0    0 -0.32098853535E+01  0.36664675302E+01  0.18081267225E+02  0.18726413768E+02  0.00000000000E+00 0. -1.
         11    1    3    3    0    0  0.19725976385E+02  0.29721085347E+01 -0.12807752480E+02  0.23706245956E+02  0.51100000000E-03 0. -1.
        -11    1    3    3    0    0 -0.23124085169E+00  0.18395426297E+02  0.17514491684E+00  0.18397713363E+02  0.51100000000E-03 0.  1.
        -12    1    3    3    0    0 -0.16284850180E+02 -0.25034002362E+02 -0.54486596618E+01  0.30357626913E+02  0.00000000000E+00 0.  1.
</event>
<event>
 7    1  0.2941727E-013  0.7246161E+02  0.7816164E-02  0.1226708E+00
        -11   -1    0    0    0    0  0.00000000000E+00  0.00000000000E+00  0.45593999997E+02  0.45594000000E+02  0.51100000000E-03 0. -1.
         11   -1    0    0    0    0 -0.00000000000E+00 -0.00000000000E+00 -0.45593999997E+02  0.45594000000E+02  0.51100000000E-03 0.  1.
    9900012    2    1    2    0    0  0.87839243526E+01 -0.77866651131E+01 -0.14590693724E+02  0.72461606221E+02  0.70000046801E+02 0.  0.
         12    1    1    2    0    0 -0.87839243526E+01  0.77866651131E+01  0.14590693724E+02  0.18726393779E+02  0.00000000000E+00 0. -1.
         11    1    3    3    0    0  0.24128311196E+02  0.11976775641E+02 -0.17730738637E+02  0.32248994539E+02  0.51100000000E-03 0. -1.
        -11    1    3    3    0    0 -0.87552992612E+01  0.56386725426E+01 -0.64762543400E+01  0.12263431972E+02  0.51100000000E-03 0.  1.
        -12    1    3    3    0    0 -0.65890875823E+01 -0.25402113297E+02  0.96162992523E+01  0.27949179709E+02  0.00000000000E+00 0.  1.
</event>
<event>
 7    1  0.2941727E-013  0.7246163E+02  0.7816164E-02  0.1226708E+00
        -11   -1    0    0    0    0  0.00000000000E+00  0.00000000000E+00  0.45593999997E+02  0.45594000000E+02  0.51100000000E-03 0.  1.
         11   -1    0    0    0    0 -0.00000000000E+00 -0.00000000000E+00 -0.45593999997E+02  0.45594000000E+02  0.51100000000E-03 0. -1.
    9900012    2    1    2    0    0  0.18176626360E+02  0.24728927978E+01 -0.37645469406E+01  0.72461634675E+02  0.70000083868E+02 0.  0.
         12    1    1    2    0    0 -0.18176626360E+02 -0.24728927978E+01  0.37645469406E+01  0.18726365325E+02  0.00000000000E+00 0. -1.
         11    1    3    3    0    0  0.79238641500E+01  0.41540409384E+01 -0.18889014651E+02  0.20900683097E+02  0.51100000000E-03 0. -1.
        -11    1    3    3    0    0  0.88239780466E+01  0.17686573189E+02 -0.80352484812E+01  0.21336416713E+02  0.51100000000E-03 0.  1.
        -12    1    3    3    0    0  0.14287841631E+01 -0.19367721330E+02  0.23159716192E+02  0.30224534865E+02  0.00000000000E+00 0.  1.
</event>
<event>
 7    1  0.2941727E-013  0.7246158E+02  0.7816164E-02  0.1226708E+00
        -11   -1    0    0    0    0  0.00000000000E+00  0.00000000000E+00  0.45593999997E+02  0.45594000000E+02  0.51100000000E-03 0. -1.
         11   -1    0    0    0    0 -0.00000000000E+00 -0.00000000000E+00 -0.45593999997E+02  0.45594000000E+02  0.51100000000E-03 0.  1.
    9900012    2    1    2    0    0 -0.10660578839E+00  0.18722558864E+02  0.36512003931E+00  0.72461577815E+02  0.70000009797E+02 0.  0.
         12    1    1    2    0    0  0.10660578839E+00 -0.18722558864E+02 -0.36512003931E+00  0.18726422185E+02  0.00000000000E+00 0. -1.
         11    1    3    3    0    0  0.40968880158E+01  0.20069723066E+02  0.16707529041E+02  0.26433308575E+02  0.51100000000E-03 0. -1.
        -11    1    3    3    0    0 -0.41016881395E+01  0.13189846969E+02  0.92297631558E+01  0.16612779323E+02  0.51100000000E-03 0.  1.
        -12    1    3    3    0    0 -0.10180566466E+00 -0.14537011171E+02 -0.25572172157E+02  0.29415489916E+02  0.00000000000E+00 0.  1.
</event>
<event>
 7    1  0.2941727E-013  0.7246156E+02  0.7816164E-02  0.1226708E+00
        -11   -1    0    0    0    0  0.00000000000E+00  0.00000000000E+00  0.45593999997E+02  0.45594000000E+02  0.51100000000E-03 0.  1.
         11   -1    0    0    0    0 -0.00000000000E+00 -0.00000000000E+00 -0.45593999997E+02  0.45594000000E+02  0.51100000000E-03 0. -1.
    9900012    2    1    2    0    0  0.91849299576E+01 -0.11871827917E+02  0.11197152947E+02  0.72461562257E+02  0.69999989530E+02 0.  0.
         12    1    1    2    0    0 -0.91849299576E+01  0.11871827917E+02 -0.11197152947E+02  0.18726437743E+02  0.00000000000E+00 0. -1.
         11    1    3    3    0    0  0.35871854861E+01 -0.36175748628E+02 -0.23333161616E+00  0.36353914953E+02  0.51100000000E-03 0. -1.
        -11    1    3    3    0    0  0.21600857970E+01 -0.22244050442E+01 -0.41273622118E+01  0.51622734855E+01  0.51100000000E-03 0.  1.
        -12    1    3    3    0    0  0.34376586744E+01  0.26528325755E+02  0.15557846775E+02  0.30945373819E+02  0.00000000000E+00 0.  1.
</event>
<event>
 7    1  0.2941727E-013  0.7246153E+02  0.7816164E-02  0.1226708E+00
        -11   -1    0    0    0    0  0.00000000000E+00  0.00000000000E+00  0.45593999997E+02  0.45594000000E+02  0.51100000000E-03 0. -1.
         11   -1    0    0    0    0 -0.00000000000E+00 -0.00000000000E+00 -0.45593999997E+02  0.45594000000E+02  0.51100000000E-03 0.  1.
    9900012    2    1    2    0    0  0.46944863402E+01 -0.17283615831E+02  0.54698238852E+01  0.72461533395E+02  0.69999951931E+02 0.  0.
         12    1    1    2    0    0 -0.46944863402E+01  0.17283615831E+02 -0.54698238852E+01  0.18726466605E+02  0.00000000000E+00 0. -1.
         11    1    3    3    0    0  0.84326766839E+01 -0.78198386516E+01  0.30175408197E+01  0.11889721000E+02  0.51100000000E-03 0. -1.
        -11    1    3    3    0    0  0.21496505948E+02 -0.69521970315E+01 -0.17277059830E+02  0.28441687857E+02  0.51100000000E-03 0.  1.
         12    1    3    3    0    0 -0.25234696291E+02 -0.25115801478E+01  0.19729342895E+02  0.32130124538E+02  0.00000000000E+00 0. -1.
</event>
<event>
 7    1  0.2941727E-013  0.7246160E+02  0.7816164E-02  0.1226708E+00
        -11   -1    0    0    0    0  0.00000000000E+00  0.00000000000E+00  0.45593999997E+02  0.45594000000E+02  0.51100000000E-03 0.  1.
         11   -1    0    0    0    0 -0.00000000000E+00 -0.00000000000E+00 -0.45593999997E+02  0.45594000000E+02  0.51100000000E-03 0. -1.
    9900012    2    1    2    0    0  0.66422315520E+01  0.13318523412E+02  0.11365556873E+02  0.72461596477E+02  0.70000034107E+02 0.  0.
         12    1    1    2    0    0 -0.66422315520E+01 -0.13318523412E+02 -0.11365556873E+02  0.18726403523E+02  0.00000000000E+00 0. -1.
         11    1    3    3    0    0  0.15996301139E+02  0.52985037021E+01  0.21256337605E+01  0.16984525627E+02  0.51100000000E-03 0. -1.
        -11    1    3    3    0    0  0.11017437553E+02  0.17773026104E+02 -0.12305472779E+02  0.24262915070E+02  0.51100000000E-03 0.  1.
         12    1    3    3    0    0 -0.20371507140E+02 -0.97530063941E+01  0.21545395892E+02  0.31214155779E+02  0.00000000000E+00 0. -1.
</event>
<event>
 7    1  0.2941727E-013  0.7246170E+02  0.7816164E-02  0.1226708E+00
        -11   -1    0    0    0    0  0.00000000000E+00  0.00000000000E+00  0.45593999997E+02  0.45594000000E+02  0.51100000000E-03 0.  1.
         11   -1    0    0    0    0 -0.00000000000E+00 -0.00000000000E+00 -0.45593999997E+02  0.45594000000E+02  0.51100000000E-03 0. -1.
    9900012    2    1    2    0    0 -0.52770348710E+01  0.14829879435E+02  0.10144062095E+02  0.72461697191E+02  0.70000165307E+02 0.  0.
         12    1    1    2    0    0  0.52770348710E+01 -0.14829879435E+02 -0.10144062095E+02  0.18726302809E+02  0.00000000000E+00 0. -1.
         11    1    3    3    0    0 -0.56015628843E+01 -0.91388085477E+01 -0.22312323450E+01  0.10948686061E+02  0.51100000000E-03 0. -1.
        -11    1    3    3    0    0  0.24067007112E+02  0.52723812156E+01  0.18334239863E+02  0.30710961994E+02  0.51100000000E-03 0.  1.
         12    1    3    3    0    0 -0.23742479098E+02  0.18696306767E+02 -0.59589454224E+01  0.30802049137E+02  0.00000000000E+00 0. -1.
</event>
<event>
 7    1  0.2941727E-013  0.7246166E+02  0.7816164E-02  0.1226708E+00
        -11   -1    0    0    0    0  0.00000000000E+00  0.00000000000E+00  0.45593999997E+02  0.45594000000E+02  0.51100000000E-03 0. -1.
         11   -1    0    0    0    0 -0.00000000000E+00 -0.00000000000E+00 -0.45593999997E+02  0.45594000000E+02  0.51100000000E-03 0.  1.
    9900012    2    1    2    0    0 -0.20891569341E+01 -0.56076048387E+01 -0.17744461020E+02  0.72461662782E+02  0.70000120482E+02 0.  0.
         12    1    1    2    0    0  0.20891569341E+01  0.56076048387E+01  0.17744461020E+02  0.18726337218E+02  0.00000000000E+00 0. -1.
         11    1    3    3    0    0 -0.81246003235E+01 -0.46492286797E+01  0.12921315675E+02  0.15955715489E+02  0.51100000000E-03 0. -1.
        -11    1    3    3    0    0  0.14008600628E+02  0.33067720325E+01  0.82249570058E+01  0.16577863277E+02  0.51100000000E-03 0.  1.
        -12    1    3    3    0    0 -0.79731572382E+01 -0.42651481915E+01 -0.38890733700E+02  0.39928084016E+02  0.00000000000E+00 0.  1.
</event>
<event>
 7    1  0.2941727E-013  0.7246167E+02  0.7816164E-02  0.1226708E+00
        -11   -1    0    0    0    0  0.00000000000E+00  0.00000000000E+00  0.45593999997E+02  0.45594000000E+02  0.51100000000E-03 0.  1.
         11   -1    0    0    0    0 -0.00000000000E+00 -0.00000000000E+00 -0.45593999997E+02  0.45594000000E+02  0.51100000000E-03 0. -1.
    9900012    2    1    2    0    0  0.16131614318E+02 -0.93215403862E+01  0.18855138700E+01  0.72461674727E+02  0.70000136043E+02 0.  0.
         12    1    1    2    0    0 -0.16131614318E+02  0.93215403862E+01 -0.18855138700E+01  0.18726325273E+02  0.00000000000E+00 0. -1.
         11    1    3    3    0    0 -0.16984229675E+01 -0.24352652788E+01 -0.17709691573E+01  0.34570926473E+01  0.51100000000E-03 0. -1.
        -11    1    3    3    0    0  0.38910738840E+02 -0.19266380282E+02 -0.34200879854E+01  0.43553828860E+02  0.51100000000E-03 0.  1.
         12    1    3    3    0    0 -0.21080701554E+02  0.12380105175E+02  0.70765710128E+01  0.25450753220E+02  0.00000000000E+00 0. -1.
</event>
<event>
 7    1  0.2941727E-013  0.7246162E+02  0.7816164E-02  0.1226708E+00
        -11   -1    0    0    0    0  0.00000000000E+00  0.00000000000E+00  0.45593999997E+02  0.45594000000E+02  0.51100000000E-03 0. -1.
         11   -1    0    0    0    0 -0.00000000000E+00 -0.00000000000E+00 -0.45593999997E+02  0.45594000000E+02  0.51100000000E-03 0.  1.
    9900012    2    1    2    0    0 -0.90632256217E+00  0.97902493580E+01 -0.15937589651E+02  0.72461623763E+02  0.70000069653E+02 0.  0.
         12    1    1    2    0    0  0.90632256217E+00 -0.97902493580E+01  0.15937589651E+02  0.18726376237E+02  0.00000000000E+00 0. -1.
         11    1    3    3    0    0  0.19312332667E+02  0.61090483272E+01 -0.14257433023E+02  0.24770164738E+02  0.51100000000E-03 0. -1.
        -11    1    3    3    0    0  0.74647852754E+01  0.28589253139E+01  0.13811260862E+02  0.15957675270E+02  0.51100000000E-03 0.  1.
        -12    1    3    3    0    0 -0.27683440505E+02  0.82227571691E+00 -0.15491417490E+02  0.31733783755E+02  0.00000000000E+00 0.  1.
</event>
<event>
 7    1  0.2941727E-013  0.7246154E+02  0.7816164E-02  0.1226708E+00
        -11   -1    0    0    0    0  0.00000000000E+00  0.00000000000E+00  0.45593999997E+02  0.45594000000E+02  0.51100000000E-03 0. -1.
         11   -1    0    0    0    0 -0.00000000000E+00 -0.00000000000E+00 -0.45593999997E+02  0.45594000000E+02  0.51100000000E-03 0.  1.
    9900012    2    1    2    0    0 -0.56609906697E+01  0.14856688666E+01 -0.17788378364E+02  0.72461536582E+02  0.69999956083E+02 0.  0.
         12    1    1    2    0    0  0.56609906697E+01 -0.14856688666E+01  0.17788378364E+02  0.18726463418E+02  0.00000000000E+00 0. -1.
         11    1    3    3    0    0 -0.15354155319E+02 -0.76462794581E+01 -0.24625588866E+01  0.17328585391E+02  0.51100000000E-03 0.  1.
        -11    1    3    3    0    0  0.13413351492E+01  0.11912952757E+02  0.17463644804E+02  0.21182457682E+02  0.51100000000E-03 0. -1.
        -12    1    3    3    0    0  0.83518295005E+01 -0.27810044319E+01 -0.32789464281E+02  0.33950493509E+02  0.00000000000E+00 0.  1.
</event>
<event>
 7    1  0.2941727E-013  0.7246158E+02  0.7816164E-02  0.1226708E+00
        -11   -1    0    0    0    0  0.00000000000E+00  0.00000000000E+00  0.45593999997E+02  0.45594000000E+02  0.51100000000E-03 0. -1.
         11   -1    0    0    0    0 -0.00000000000E+00 -0.00000000000E+00 -0.45593999997E+02  0.45594000000E+02  0.51100000000E-03 0.  1.
    9900012    2    1    2    0    0 -0.12109204606E+01 -0.36242207464E+01 -0.18332419420E+02  0.72461577326E+02  0.70000009160E+02 0.  0.
         12    1    1    2    0    0  0.12109204606E+01  0.36242207464E+01  0.18332419420E+02  0.18726422674E+02  0.00000000000E+00 0. -1.
         11    1    3    3    0    0  0.10191230733E+01 -0.49023491313E+01  0.11969742521E+02  0.12974836227E+02  0.51100000000E-03 0. -1.
        -11    1    3    3    0    0 -0.41647860833E+01 -0.12381313730E+02  0.10280547758E+02  0.16623237810E+02  0.51100000000E-03 0.  1.
        -12    1    3    3    0    0  0.19347425494E+01  0.13659442115E+02 -0.40582709699E+02  0.42863503289E+02  0.00000000000E+00 0.  1.
</event>
<event>
 7    1  0.2941727E-013  0.7246154E+02  0.7816164E-02  0.1226708E+00
        -11   -1    0    0    0    0  0.00000000000E+00  0.00000000000E+00  0.45593999997E+02  0.45594000000E+02  0.51100000000E-03 0. -1.
         11   -1    0    0    0    0 -0.00000000000E+00 -0.00000000000E+00 -0.45593999997E+02  0.45594000000E+02  0.51100000000E-03 0.  1.
    9900012    2    1    2    0    0 -0.56461941740E+01 -0.68853955014E+01 -0.16473988559E+02  0.72461535333E+02  0.69999954457E+02 0.  0.
         12    1    1    2    0    0  0.56461941740E+01  0.68853955014E+01  0.16473988559E+02  0.18726464667E+02  0.00000000000E+00 0. -1.
         11    1    3    3    0    0  0.49560118990E+01 -0.12759267941E+02 -0.26663736705E+02  0.29971917317E+02  0.51100000000E-03 0. -1.
        -11    1    3    3    0    0  0.54366974760E+01 -0.13208788254E+02 -0.25266959515E+01  0.14505652667E+02  0.51100000000E-03 0.  1.
         12    1    3    3    0    0 -0.16038903549E+02  0.19082660694E+02  0.12716444097E+02  0.27983965349E+02  0.00000000000E+00 0. -1.
</event>
<event>
 7    1  0.2941727E-013  0.7246157E+02  0.7816164E-02  0.1226708E+00
        -11   -1    0    0    0    0  0.00000000000E+00  0.00000000000E+00  0.45593999997E+02  0.45594000000E+02  0.51100000000E-03 0. -1.
         11   -1    0    0    0    0 -0.00000000000E+00 -0.00000000000E+00 -0.45593999997E+02  0.45594000000E+02  0.51100000000E-03 0.  1.
    9900012    2    1    2    0    0 -0.47867362270E+01  0.17757433839E+02 -0.35270281169E+01  0.72461568744E+02  0.69999997981E+02 0.  0.
         12    1    1    2    0    0  0.47867362270E+01 -0.17757433839E+02  0.35270281169E+01  0.18726431256E+02  0.00000000000E+00 0. -1.
         11    1    3    3    0    0  0.53025573775E+01  0.46551488127E+01  0.34125100942E+01  0.78379047337E+01  0.51100000000E-03 0. -1.
        -11    1    3    3    0    0 -0.32192372824E+02 -0.21618740387E+01  0.88611209648E+01  0.33459558162E+02  0.51100000000E-03 0.  1.
         12    1    3    3    0    0  0.22103079219E+02  0.15264159065E+02 -0.15800659176E+02  0.31164105848E+02  0.00000000000E+00 0. -1.
</event>
<event>
 7    1  0.2941727E-013  0.7246156E+02  0.7816164E-02  0.1226708E+00
        -11   -1    0    0    0    0  0.00000000000E+00  0.00000000000E+00  0.45593999997E+02  0.45594000000E+02  0.51100000000E-03 0.  1.
         11   -1    0    0    0    0 -0.00000000000E+00 -0.00000000000E+00 -0.45593999997E+02  0.45594000000E+02  0.51100000000E-03 0. -1.
    9900012    2    1    2    0    0  0.11832882703E+02  0.12075708057E+02  0.80522997410E+01  0.72461564961E+02  0.69999993052E+02 0.  0.
         12    1    1    2    0    0 -0.11832882703E+02 -0.12075708057E+02 -0.80522997410E+01  0.18726435039E+02  0.00000000000E+00 0. -1.
         11    1    3    3    0    0 -0.15148285282E+02  0.52823575401E+01 -0.39198422496E+01  0.16514811888E+02  0.51100000000E-03 0. -1.
        -11    1    3    3    0    0 -0.22573314760E+01  0.16481981743E+02  0.18054226265E+02  0.24550078490E+02  0.51100000000E-03 0.  1.
         12    1    3    3    0    0  0.29238499461E+02 -0.96886312263E+01 -0.60820842740E+01  0.31396674584E+02  0.00000000000E+00 0. -1.
</event>
<event>
 7    1  0.2941727E-013  0.7246141E+02  0.7816164E-02  0.1226708E+00
        -11   -1    0    0    0    0  0.00000000000E+00  0.00000000000E+00  0.45593999997E+02  0.45594000000E+02  0.51100000000E-03 0.  1.
         11   -1    0    0    0    0 -0.00000000000E+00 -0.00000000000E+00 -0.45593999997E+02  0.45594000000E+02  0.51100000000E-03 0. -1.
    9900012    2    1    2    0    0  0.14947264008E+02  0.99797865116E+01  0.52600704647E+01  0.72461409776E+02  0.69999790894E+02 0.  0.
         12    1    1    2    0    0 -0.14947264008E+02 -0.99797865116E+01 -0.52600704647E+01  0.18726590224E+02  0.00000000000E+00 0. -1.
         11    1    3    3    0    0  0.67585627399E+01 -0.36407111465E+01 -0.14409778764E+01  0.78108492152E+01  0.51100000000E-03 0. -1.
        -11    1    3    3    0    0  0.21190978878E+02 -0.43092409637E+01  0.27010475594E+02  0.34600475944E+02  0.51100000000E-03 0.  1.
         12    1    3    3    0    0 -0.13002277610E+02  0.17929738622E+02 -0.20309427253E+02  0.30050084616E+02  0.00000000000E+00 0. -1.
</event>
<event>
 7    1  0.2941727E-013  0.7246155E+02  0.7816164E-02  0.1226708E+00
        -11   -1    0    0    0    0  0.00000000000E+00  0.00000000000E+00  0.45593999997E+02  0.45594000000E+02  0.51100000000E-03 0.  1.
         11   -1    0    0    0    0 -0.00000000000E+00 -0.00000000000E+00 -0.45593999997E+02  0.45594000000E+02  0.51100000000E-03 0. -1.
    9900012    2    1    2    0    0 -0.14396418879E+02  0.46947349881E+01 -0.11017372490E+02  0.72461550530E+02  0.69999974254E+02 0.  0.
         12    1    1    2    0    0  0.14396418879E+02 -0.46947349881E+01  0.11017372490E+02  0.18726449470E+02  0.00000000000E+00 0. -1.
         11    1    3    3    0    0  0.55412673108E+01  0.27090632545E+02 -0.77116569090E+01  0.28706752998E+02  0.51100000000E-03 0. -1.
        -11    1    3    3    0    0 -0.19429758128E+02 -0.69734683618E+01  0.10400955014E+02  0.23115462950E+02  0.51100000000E-03 0.  1.
        -12    1    3    3    0    0 -0.50792806141E+00 -0.15422429196E+02 -0.13706670595E+02  0.20639334583E+02  0.00000000000E+00 0.  1.
</event>
<event>
 7    1  0.2941727E-013  0.7246145E+02  0.7816164E-02  0.1226708E+00
        -11   -1    0    0    0    0  0.00000000000E+00  0.00000000000E+00  0.45593999997E+02  0.45594000000E+02  0.51100000000E-03 0.  1.
         11   -1    0    0    0    0 -0.00000000000E+00 -0.00000000000E+00 -0.45593999997E+02  0.45594000000E+02  0.51100000000E-03 0. -1.
    9900012    2    1    2    0    0  0.77504093825E+01  0.97785471879E+01  0.13964054660E+02  0.72461450578E+02  0.69999844047E+02 0.  0.
         12    1    1    2    0    0 -0.77504093825E+01 -0.97785471879E+01 -0.13964054660E+02  0.18726549422E+02  0.00000000000E+00 0. -1.
         11    1    3    3    0    0 -0.71229198228E+01 -0.13546721519E+02  0.69167410260E+01  0.16795563623E+02  0.51100000000E-03 0. -1.
        -11    1    3    3    0    0  0.15655255427E+02 -0.12005001358E+02  0.55888928240E+00  0.19736246795E+02  0.51100000000E-03 0.  1.
         12    1    3    3    0    0 -0.78192622136E+00  0.35330270065E+02  0.64884243517E+01  0.35929640160E+02  0.00000000000E+00 0. -1.
</event>
<event>
 7    1  0.2941727E-013  0.7246157E+02  0.7816164E-02  0.1226708E+00
        -11   -1    0    0    0    0  0.00000000000E+00  0.00000000000E+00  0.45593999997E+02  0.45594000000E+02  0.51100000000E-03 0.  1.
         11   -1    0    0    0    0 -0.00000000000E+00 -0.00000000000E+00 -0.45593999997E+02  0.45594000000E+02  0.51100000000E-03 0. -1.
    9900012    2    1    2    0    0  0.13129992529E+02 -0.13189619035E+02 -0.20775994493E+01  0.72461570186E+02  0.69999999859E+02 0.  0.
         12    1    1    2    0    0 -0.13129992529E+02  0.13189619035E+02  0.20775994493E+01  0.18726429814E+02  0.00000000000E+00 0. -1.
         11    1    3    3    0    0  0.82745839865E+01 -0.16037219257E+02 -0.74599697348E+01  0.19527219217E+02  0.51100000000E-03 0. -1.
        -11    1    3    3    0    0 -0.13225066332E+02 -0.80723103047E+01  0.21403868842E+02  0.26423288494E+02  0.51100000000E-03 0.  1.
         12    1    3    3    0    0  0.18080474875E+02  0.10919910527E+02 -0.16021498557E+02  0.26511062476E+02  0.00000000000E+00 0. -1.
</event>
<event>
 7    1  0.2941727E-013  0.7246157E+02  0.7816164E-02  0.1226708E+00
        -11   -1    0    0    0    0  0.00000000000E+00  0.00000000000E+00  0.45593999997E+02  0.45594000000E+02  0.51100000000E-03 0. -1.
         11   -1    0    0    0    0 -0.00000000000E+00 -0.00000000000E+00 -0.45593999997E+02  0.45594000000E+02  0.51100000000E-03 0.  1.
    9900012    2    1    2    0    0  0.15065917862E+02 -0.80950074405E+01 -0.76268062296E+01  0.72461569487E+02  0.69999998949E+02 0.  0.
         12    1    1    2    0    0 -0.15065917862E+02  0.80950074405E+01  0.76268062296E+01  0.18726430513E+02  0.00000000000E+00 0. -1.
         11    1    3    3    0    0  0.13229249703E+02  0.26710986434E+02 -0.25902805912E+01  0.29919882984E+02  0.51100000000E-03 0. -1.
        -11    1    3    3    0    0  0.45321369475E+00  0.27653219551E+01  0.29897848539E+01  0.40977093482E+01  0.51100000000E-03 0.  1.
        -12    1    3    3    0    0  0.13834544641E+01 -0.37571315829E+02 -0.80263104923E+01  0.38443977155E+02  0.00000000000E+00 0.  1.
</event>
<event>
 7    1  0.2941727E-013  0.7246172E+02  0.7816164E-02  0.1226708E+00
        -11   -1    0    0    0    0  0.00000000000E+00  0.00000000000E+00  0.45593999997E+02  0.45594000000E+02  0.51100000000E-03 0.  1.
         11   -1    0    0    0    0 -0.00000000000E+00 -0.00000000000E+00 -0.45593999997E+02  0.45594000000E+02  0.51100000000E-03 0. -1.
    9900012    2    1    2    0    0  0.92303522907E+01 -0.12717020386E+02  0.10185845615E+02  0.72461722693E+02  0.70000198527E+02 0.  0.
         12    1    1    2    0    0 -0.92303522907E+01  0.12717020386E+02 -0.10185845615E+02  0.18726277307E+02  0.00000000000E+00 0. -1.
         11    1    3    3    0    0  0.26415780706E+01  0.11795186091E+01 -0.93138340256E+01  0.97527792638E+01  0.51100000000E-03 0. -1.
        -11    1    3    3    0    0  0.29087151366E+02 -0.10519557911E+01  0.22278197144E+02  0.36653609015E+02  0.51100000000E-03 0.  1.
         12    1    3    3    0    0 -0.22498377146E+02 -0.12844583204E+02 -0.27785175031E+01  0.26055334414E+02  0.00000000000E+00 0. -1.
</event>
<event>
 7    1  0.2941727E-013  0.7246150E+02  0.7816164E-02  0.1226708E+00
        -11   -1    0    0    0    0  0.00000000000E+00  0.00000000000E+00  0.45593999997E+02  0.45594000000E+02  0.51100000000E-03 0. -1.
         11   -1    0    0    0    0 -0.00000000000E+00 -0.00000000000E+00 -0.45593999997E+02  0.45594000000E+02  0.51100000000E-03 0.  1.
    9900012    2    1    2    0    0 -0.50279817044E+01  0.17898381333E+02  0.22470487858E+01  0.72461497854E+02  0.69999905634E+02 0.  0.
         12    1    1    2    0    0  0.50279817044E+01 -0.17898381333E+02 -0.22470487858E+01  0.18726502146E+02  0.00000000000E+00 0. -1.
         11    1    3    3    0    0 -0.15310615679E+01  0.12229300756E+01  0.64932997488E+01  0.67825252954E+01  0.51100000000E-03 0. -1.
        -11    1    3    3    0    0 -0.11658858962E+02 -0.12038406280E+02 -0.24443601423E+02  0.29636832976E+02  0.51100000000E-03 0.  1.
         12    1    3    3    0    0  0.81619388255E+01  0.28713857537E+02  0.20197350460E+02  0.36042139583E+02  0.00000000000E+00 0. -1.
</event>
<event>
 7    1  0.2941727E-013  0.7246154E+02  0.7816164E-02  0.1226708E+00
        -11   -1    0    0    0    0  0.00000000000E+00  0.00000000000E+00  0.45593999997E+02  0.45594000000E+02  0.51100000000E-03 0. -1.
         11   -1    0    0    0    0 -0.00000000000E+00 -0.00000000000E+00 -0.45593999997E+02  0.45594000000E+02  0.51100000000E-03 0.  1.
    9900012    2    1    2    0    0 -0.49363697084E+01  0.17251609710E+02  0.53567419481E+01  0.72461535630E+02  0.69999954844E+02 0.  0.
         12    1    1    2    0    0  0.49363697084E+01 -0.17251609710E+02 -0.53567419481E+01  0.18726464370E+02  0.00000000000E+00 0. -1.
         11    1    3    3    0    0  0.59535434252E+01 -0.82571833037E+01 -0.18906523915E+02  0.21472829395E+02  0.51100000000E-03 0. -1.
        -11    1    3    3    0    0 -0.16001397766E+02  0.20027011843E+02  0.42232692633E-01  0.25634502486E+02  0.51100000000E-03 0.  1.
        -12    1    3    3    0    0  0.51114846322E+01  0.54817811708E+01  0.24221033170E+02  0.25354203750E+02  0.00000000000E+00 0.  1.
</event>
<event>
 7    1  0.2941727E-013  0.7246158E+02  0.7816164E-02  0.1226708E+00
        -11   -1    0    0    0    0  0.00000000000E+00  0.00000000000E+00  0.45593999997E+02  0.45594000000E+02  0.51100000000E-03 0. -1.
         11   -1    0    0    0    0 -0.00000000000E+00 -0.00000000000E+00 -0.45593999997E+02  0.45594000000E+02  0.51100000000E-03 0.  1.
    9900012    2    1    2    0    0 -0.13466494629E+01 -0.17364834907E+02 -0.68795291840E+01  0.72461578080E+02  0.70000010142E+02 0.  0.
         12    1    1    2    0    0  0.13466494629E+01  0.17364834907E+02  0.68795291840E+01  0.18726421920E+02  0.00000000000E+00 0. -1.
         11    1    3    3    0    0  0.26098400335E+02 -0.48268888249E+01 -0.84886456574E+01  0.27865434882E+02  0.51100000000E-03 0. -1.
        -11    1    3    3    0    0  0.16889441728E+01 -0.29633864390E+00 -0.10585518119E+02  0.10723504237E+02  0.51100000000E-03 0.  1.
        -12    1    3    3    0    0 -0.29133993971E+02 -0.12241607439E+02  0.12194634592E+02  0.33872638961E+02  0.00000000000E+00 0.  1.
</event>
<event>
 7    1  0.2941727E-013  0.7246156E+02  0.7816164E-02  0.1226708E+00
        -11   -1    0    0    0    0  0.00000000000E+00  0.00000000000E+00  0.45593999997E+02  0.45594000000E+02  0.51100000000E-03 0.  1.
         11   -1    0    0    0    0 -0.00000000000E+00 -0.00000000000E+00 -0.45593999997E+02  0.45594000000E+02  0.51100000000E-03 0. -1.
    9900012    2    1    2    0    0 -0.15829816115E+02  0.10002299600E+02  0.22468258097E+00  0.72461559928E+02  0.69999986495E+02 0.  0.
         12    1    1    2    0    0  0.15829816115E+02 -0.10002299600E+02 -0.22468258097E+00  0.18726440072E+02  0.00000000000E+00 0. -1.
         11    1    3    3    0    0 -0.76712319228E+01 -0.10748298854E+01  0.65540028324E+01  0.10146822748E+02  0.51100000000E-03 0. -1.
        -11    1    3    3    0    0 -0.13794718748E+02  0.58660828605E+01  0.25496334960E+02  0.29576482044E+02  0.51100000000E-03 0.  1.
         12    1    3    3    0    0  0.56361345559E+01  0.52110466248E+01 -0.31825655211E+02  0.32738255135E+02  0.00000000000E+00 0. -1.
</event>
<event>
 7    1  0.2941727E-013  0.7246157E+02  0.7816164E-02  0.1226708E+00
        -11   -1    0    0    0    0  0.00000000000E+00  0.00000000000E+00  0.45593999997E+02  0.45594000000E+02  0.51100000000E-03 0.  1.
         11   -1    0    0    0    0 -0.00000000000E+00 -0.00000000000E+00 -0.45593999997E+02  0.45594000000E+02  0.51100000000E-03 0. -1.
    9900012    2    1    2    0    0 -0.66622227036E+01 -0.12564741753E+02 -0.12182831463E+02  0.72461566033E+02  0.69999994448E+02 0.  0.
         12    1    1    2    0    0  0.66622227036E+01  0.12564741753E+02  0.12182831463E+02  0.18726433967E+02  0.00000000000E+00 0. -1.
         11    1    3    3    0    0 -0.12952506137E+01  0.95180027489E+01 -0.56858519875E+01  0.11162390585E+02  0.51100000000E-03 0. -1.
        -11    1    3    3    0    0 -0.27965391658E+02 -0.79617316117E+01  0.90442773169E+01  0.30450800536E+02  0.51100000000E-03 0.  1.
         12    1    3    3    0    0  0.22598419568E+02 -0.14121012890E+02 -0.15541256793E+02  0.30848374912E+02  0.00000000000E+00 0. -1.
</event>
<event>
 7    1  0.2941727E-013  0.7246154E+02  0.7816164E-02  0.1226708E+00
        -11   -1    0    0    0    0  0.00000000000E+00  0.00000000000E+00  0.45593999997E+02  0.45594000000E+02  0.51100000000E-03 0.  1.
         11   -1    0    0    0    0 -0.00000000000E+00 -0.00000000000E+00 -0.45593999997E+02  0.45594000000E+02  0.51100000000E-03 0. -1.
    9900012    2    1    2    0    0 -0.14242254994E+02  0.65129227627E+00 -0.12141425861E+02  0.72461541956E+02  0.69999963084E+02 0.  0.
         12    1    1    2    0    0  0.14242254994E+02 -0.65129227627E+00  0.12141425861E+02  0.18726458044E+02  0.00000000000E+00 0. -1.
         11    1    3    3    0    0  0.75091243785E+00  0.15458768808E+02  0.18912273332E+02  0.24437910823E+02  0.51100000000E-03 0. -1.
        -11    1    3    3    0    0 -0.81921137099E+01  0.17794572238E+00  0.41340549640E+01  0.91778430158E+01  0.51100000000E-03 0.  1.
         12    1    3    3    0    0 -0.68010537219E+01 -0.14985422254E+02 -0.35187754156E+02  0.38845788117E+02  0.00000000000E+00 0. -1.
</event>
<event>
 7    1  0.2941727E-013  0.7246131E+02  0.7816164E-02  0.1226709E+00
        -11   -1    0    0    0    0  0.00000000000E+00  0.00000000000E+00  0.45593999997E+02  0.45594000000E+02  0.51100000000E-03 0. -1.
         11   -1    0    0    0    0 -0.00000000000E+00 -0.00000000000E+00 -0.45593999997E+02  0.45594000000E+02  0.51100000000E-03 0.  1.
    9900012    2    1    2    0    0 -0.58680994187E+01  0.13274526774E+02 -0.11833910656E+02  0.72461305330E+02  0.69999654834E+02 0.  0.
         12    1    1    2    0    0  0.58680994187E+01 -0.13274526774E+02  0.11833910656E+02  0.18726694670E+02  0.00000000000E+00 0. -1.
         11    1    3    3    0    0 -0.10280103045E+02 -0.25091424960E+01 -0.33024296735E+01  0.11085231467E+02  0.51100000000E-03 0. -1.
        -11    1    3    3    0    0 -0.17831833845E+02 -0.13854601190E+02 -0.90189255849E+01  0.24315947264E+02  0.51100000000E-03 0.  1.
         12    1    3    3    0    0  0.22243837471E+02  0.29638270460E+02  0.48744460258E+00  0.37060126598E+02  0.00000000000E+00 0. -1.
</event>
<event>
 7    1  0.2941727E-013  0.7246157E+02  0.7816164E-02  0.1226708E+00
        -11   -1    0    0    0    0  0.00000000000E+00  0.00000000000E+00  0.45593999997E+02  0.45594000000E+02  0.51100000000E-03 0.  1.
         11   -1    0    0    0    0 -0.00000000000E+00 -0.00000000000E+00 -0.45593999997E+02  0.45594000000E+02  0.51100000000E-03 0. -1.
    9900012    2    1    2    0    0 -0.16575957641E+02  0.86201704863E+01  0.12687008783E+01  0.72461566468E+02  0.69999995015E+02 0.  0.
         12    1    1    2    0    0  0.16575957641E+02 -0.86201704863E+01 -0.12687008783E+01  0.18726433532E+02  0.00000000000E+00 0. -1.
         11    1    3    3    0    0  0.15145974366E+02 -0.69597282739E+01  0.15994360136E+01  0.16745045624E+02  0.51100000000E-03 0. -1.
        -11    1    3    3    0    0  0.13241207803E+01  0.21510321986E+02  0.38199048503E+01  0.21886957786E+02  0.51100000000E-03 0.  1.
        -12    1    3    3    0    0 -0.33046052786E+02 -0.59304232259E+01 -0.41506399857E+01  0.33829563058E+02  0.00000000000E+00 0.  1.
</event>
<event>
 7    1  0.2941727E-013  0.7246161E+02  0.7816164E-02  0.1226708E+00
        -11   -1    0    0    0    0  0.00000000000E+00  0.00000000000E+00  0.45593999997E+02  0.45594000000E+02  0.51100000000E-03 0.  1.
         11   -1    0    0    0    0 -0.00000000000E+00 -0.00000000000E+00 -0.45593999997E+02  0.45594000000E+02  0.51100000000E-03 0. -1.
    9900012    2    1    2    0    0 -0.96978641290E+01  0.81373704029E+01  0.13799003578E+02  0.72461605112E+02  0.70000045357E+02 0.  0.
         12    1    1    2    0    0  0.96978641290E+01 -0.81373704029E+01 -0.13799003578E+02  0.18726394888E+02  0.00000000000E+00 0. -1.
         11    1    3    3    0    0 -0.18614760456E+02  0.31465960862E+01 -0.49443093479E+01  0.19515546852E+02  0.51100000000E-03 0. -1.
        -11    1    3    3    0    0 -0.18947910489E+02 -0.83095189345E+00  0.18983525406E+00  0.18967072274E+02  0.51100000000E-03 0.  1.
         12    1    3    3    0    0  0.27864806816E+02  0.58217262101E+01  0.18553477672E+02  0.33978985986E+02  0.00000000000E+00 0. -1.
</event>
<event>
 7    1  0.2941727E-013  0.7246154E+02  0.7816164E-02  0.1226708E+00
        -11   -1    0    0    0    0  0.00000000000E+00  0.00000000000E+00  0.45593999997E+02  0.45594000000E+02  0.51100000000E-03 0. -1.
         11   -1    0    0    0    0 -0.00000000000E+00 -0.00000000000E+00 -0.45593999997E+02  0.45594000000E+02  0.51100000000E-03 0.  1.
    9900012    2    1    2    0    0 -0.11702389192E+02  0.19419897683E+01 -0.14490096816E+02  0.72461544308E+02  0.69999966148E+02 0.  0.
         12    1    1    2    0    0  0.11702389192E+02 -0.19419897683E+01  0.14490096816E+02  0.18726455692E+02  0.00000000000E+00 0. -1.
         11    1    3    3    0    0  0.95323171799E+01  0.19247813094E+01  0.99317533301E+01  0.13899984834E+02  0.51100000000E-03 0. -1.
        -11    1    3    3    0    0 -0.23967204436E+01 -0.73340308057E+01  0.13520412157E+02  0.15567074930E+02  0.51100000000E-03 0.  1.
        -12    1    3    3    0    0 -0.18837985928E+02  0.73512392646E+01 -0.37942262303E+02  0.42994484544E+02  0.00000000000E+00 0.  1.
</event>
<event>
 7    1  0.2941727E-013  0.7246150E+02  0.7816164E-02  0.1226708E+00
        -11   -1    0    0    0    0  0.00000000000E+00  0.00000000000E+00  0.45593999997E+02  0.45594000000E+02  0.51100000000E-03 0.  1.
         11   -1    0    0    0    0 -0.00000000000E+00 -0.00000000000E+00 -0.45593999997E+02  0.45594000000E+02  0.51100000000E-03 0. -1.
    9900012    2    1    2    0    0  0.18673169107E+02 -0.96681813544E+00  0.10294848936E+01  0.72461499501E+02  0.69999907778E+02 0.  0.
         12    1    1    2    0    0 -0.18673169107E+02  0.96681813544E+00 -0.10294848936E+01  0.18726500499E+02  0.00000000000E+00 0. -1.
         11    1    3    3    0    0 -0.46394550650E+01  0.14205761086E+02 -0.11899513153E+02  0.19103052239E+02  0.51100000000E-03 0. -1.
        -11    1    3    3    0    0  0.18472103256E+02  0.40595723982E+01 -0.11312708576E+02  0.22038060313E+02  0.51100000000E-03 0.  1.
        -12    1    3    3    0    0  0.48405209158E+01 -0.19232151619E+02  0.24241706622E+02  0.31320386949E+02  0.00000000000E+00 0.  1.
</event>
<event>
 7    1  0.2941727E-013  0.7246158E+02  0.7816164E-02  0.1226708E+00
        -11   -1    0    0    0    0  0.00000000000E+00  0.00000000000E+00  0.45593999997E+02  0.45594000000E+02  0.51100000000E-03 0.  1.
         11   -1    0    0    0    0 -0.00000000000E+00 -0.00000000000E+00 -0.45593999997E+02  0.45594000000E+02  0.51100000000E-03 0. -1.
    9900012    2    1    2    0    0 -0.40227297587E+01 -0.17056454659E+02 -0.66010390236E+01  0.72461582392E+02  0.70000015759E+02 0.  0.
         12    1    1    2    0    0  0.40227297587E+01  0.17056454659E+02  0.66010390236E+01  0.18726417608E+02  0.00000000000E+00 0. -1.
         11    1    3    3    0    0  0.13812546772E+02 -0.65130175608E+01 -0.19318520958E+02  0.24625415699E+02  0.51100000000E-03 0. -1.
        -11    1    3    3    0    0 -0.67294814063E+01 -0.20595698775E+02 -0.72736641808E+01  0.22855522722E+02  0.51100000000E-03 0.  1.
        -12    1    3    3    0    0 -0.11105795124E+02  0.10052261677E+02  0.19991146116E+02  0.24980643971E+02  0.00000000000E+00 0.  1.
</event>
<event>
 7    1  0.2941727E-013  0.7246162E+02  0.7816164E-02  0.1226708E+00
        -11   -1    0    0    0    0  0.00000000000E+00  0.00000000000E+00  0.45593999997E+02  0.45594000000E+02  0.51100000000E-03 0.  1.
         11   -1    0    0    0    0 -0.00000000000E+00 -0.00000000000E+00 -0.45593999997E+02  0.45594000000E+02  0.51100000000E-03 0. -1.
    9900012    2    1    2    0    0  0.17569671052E+02 -0.64728446610E+01 -0.29390536669E+00  0.72461616493E+02  0.70000060182E+02 0.  0.
         12    1    1    2    0    0 -0.17569671052E+02  0.64728446610E+01  0.29390536669E+00  0.18726383507E+02  0.00000000000E+00 0. -1.
         11    1    3    3    0    0 -0.15934193544E+01 -0.24991773947E+02 -0.38148288711E+01  0.25331416656E+02  0.51100000000E-03 0. -1.
        -11    1    3    3    0    0  0.13299028542E+02 -0.28337334236E+00  0.18216561304E+02  0.22556319882E+02  0.51100000000E-03 0.  1.
         12    1    3    3    0    0  0.58640618653E+01  0.18802302628E+02 -0.14695637800E+02  0.24573879955E+02  0.00000000000E+00 0. -1.
</event>
<event>
 7    1  0.2941727E-013  0.7246158E+02  0.7816164E-02  0.1226708E+00
        -11   -1    0    0    0    0  0.00000000000E+00  0.00000000000E+00  0.45593999997E+02  0.45594000000E+02  0.51100000000E-03 0. -1.
         11   -1    0    0    0    0 -0.00000000000E+00 -0.00000000000E+00 -0.45593999997E+02  0.45594000000E+02  0.51100000000E-03 0.  1.
    9900012    2    1    2    0    0 -0.10660031638E+02 -0.18653245333E+01 -0.15282773430E+02  0.72461578189E+02  0.70000010284E+02 0.  0.
         12    1    1    2    0    0  0.10660031638E+02  0.18653245333E+01  0.15282773430E+02  0.18726421811E+02  0.00000000000E+00 0. -1.
         11    1    3    3    0    0 -0.18876309351E+00  0.23982244400E+01 -0.10749664152E+02  0.11015552261E+02  0.51100000000E-03 0. -1.
        -11    1    3    3    0    0  0.12685741286E+02  0.39706430839E+00 -0.26377628736E+02  0.29272256319E+02  0.51100000000E-03 0.  1.
         12    1    3    3    0    0 -0.23157009831E+02 -0.46606132817E+01  0.21844519458E+02  0.32173769608E+02  0.00000000000E+00 0. -1.
</event>
<event>
 7    1  0.2941727E-013  0.7246156E+02  0.7816164E-02  0.1226708E+00
        -11   -1    0    0    0    0  0.00000000000E+00  0.00000000000E+00  0.45593999997E+02  0.45594000000E+02  0.51100000000E-03 0. -1.
         11   -1    0    0    0    0 -0.00000000000E+00 -0.00000000000E+00 -0.45593999997E+02  0.45594000000E+02  0.51100000000E-03 0.  1.
    9900012    2    1    2    0    0  0.15487534051E+00  0.11969676751E+02 -0.14400774842E+02  0.72461562433E+02  0.69999989760E+02 0.  0.
         12    1    1    2    0    0 -0.15487534051E+00 -0.11969676751E+02  0.14400774842E+02  0.18726437567E+02  0.00000000000E+00 0. -1.
         11    1    3    3    0    0 -0.10552327472E+02  0.24730835731E+02  0.40647833155E+00  0.26891096592E+02  0.51100000000E-03 0. -1.
        -11    1    3    3    0    0 -0.13706801943E+02 -0.92857346595E+01 -0.12612435718E+02  0.20812852343E+02  0.51100000000E-03 0.  1.
        -12    1    3    3    0    0  0.24414004756E+02 -0.34754243207E+01 -0.21948174560E+01  0.24757613498E+02  0.00000000000E+00 0.  1.
</event>
<event>
 7    1  0.2941727E-013  0.7246184E+02  0.7816164E-02  0.1226707E+00
        -11   -1    0    0    0    0  0.00000000000E+00  0.00000000000E+00  0.45593999997E+02  0.45594000000E+02  0.51100000000E-03 0. -1.
         11   -1    0    0    0    0 -0.00000000000E+00 -0.00000000000E+00 -0.45593999997E+02  0.45594000000E+02  0.51100000000E-03 0.  1.
    9900012    2    1    2    0    0 -0.15914085694E+02 -0.36074446283E+01 -0.91868051580E+01  0.72461837306E+02  0.70000347831E+02 0.  0.
         12    1    1    2    0    0  0.15914085694E+02  0.36074446283E+01  0.91868051580E+01  0.18726162694E+02  0.00000000000E+00 0. -1.
         11    1    3    3    0    0  0.98481706201E+00 -0.24654670924E+01 -0.93143194107E+01  0.96852949864E+01  0.51100000000E-03 0. -1.
        -11    1    3    3    0    0 -0.77153897448E+01 -0.99993593374E+01 -0.28642938083E+02  0.31303870821E+02  0.51100000000E-03 0.  1.
         12    1    3    3    0    0 -0.91835130116E+01  0.88573818015E+01  0.28770452336E+02  0.31472671498E+02  0.00000000000E+00 0. -1.
</event>
<event>
 7    1  0.2941727E-013  0.7246156E+02  0.7816164E-02  0.1226708E+00
        -11   -1    0    0    0    0  0.00000000000E+00  0.00000000000E+00  0.45593999997E+02  0.45594000000E+02  0.51100000000E-03 0.  1.
         11   -1    0    0    0    0 -0.00000000000E+00 -0.00000000000E+00 -0.45593999997E+02  0.45594000000E+02  0.51100000000E-03 0. -1.
    9900012    2    1    2    0    0  0.49803489566E+01  0.12977981142E+02  0.12547809152E+02  0.72461564547E+02  0.69999992513E+02 0.  0.
         12    1    1    2    0    0 -0.49803489566E+01 -0.12977981142E+02 -0.12547809152E+02  0.18726435453E+02  0.00000000000E+00 0. -1.
         11    1    3    3    0    0  0.44864040872E+01 -0.26524547752E+01  0.14248978325E+02  0.15172235219E+02  0.51100000000E-03 0. -1.
        -11    1    3    3    0    0  0.13759227992E+02  0.27960363895E+01  0.22701331788E+02  0.26692407903E+02  0.51100000000E-03 0.  1.
         12    1    3    3    0    0 -0.13265283122E+02  0.12834399528E+02 -0.24402500961E+02  0.30596921426E+02  0.00000000000E+00 0. -1.
</event>
<event>
 7    1  0.2941727E-013  0.7246155E+02  0.7816164E-02  0.1226708E+00
        -11   -1    0    0    0    0  0.00000000000E+00  0.00000000000E+00  0.45593999997E+02  0.45594000000E+02  0.51100000000E-03 0. -1.
         11   -1    0    0    0    0 -0.00000000000E+00 -0.00000000000E+00 -0.45593999997E+02  0.45594000000E+02  0.51100000000E-03 0.  1.
    9900012    2    1    2    0    0  0.87077645217E+01 -0.14284400670E+02 -0.84149026619E+01  0.72461552065E+02  0.69999976252E+02 0.  0.
         12    1    1    2    0    0 -0.87077645217E+01  0.14284400670E+02  0.84149026619E+01  0.18726447935E+02  0.00000000000E+00 0. -1.
         11    1    3    3    0    0  0.73597142757E+01  0.13347029610E+01  0.27515834111E+01  0.79698204336E+01  0.51100000000E-03 0. -1.
        -11    1    3    3    0    0  0.22509226622E+02  0.77293953390E+01 -0.20729639813E+02  0.31561476557E+02  0.51100000000E-03 0.  1.
         12    1    3    3    0    0 -0.21161176376E+02 -0.23348498970E+02  0.95631537399E+01  0.32930255074E+02  0.00000000000E+00 0. -1.
</event>
<event>
 7    1  0.2941727E-013  0.7246158E+02  0.7816164E-02  0.1226708E+00
        -11   -1    0    0    0    0  0.00000000000E+00  0.00000000000E+00  0.45593999997E+02  0.45594000000E+02  0.51100000000E-03 0. -1.
         11   -1    0    0    0    0 -0.00000000000E+00 -0.00000000000E+00 -0.45593999997E+02  0.45594000000E+02  0.51100000000E-03 0.  1.
    9900012    2    1    2    0    0  0.14922966518E+02  0.10652460704E+02  0.38090645511E+01  0.72461579586E+02  0.70000012105E+02 0.  0.
         12    1    1    2    0    0 -0.14922966518E+02 -0.10652460704E+02 -0.38090645511E+01  0.18726420414E+02  0.00000000000E+00 0. -1.
         11    1    3    3    0    0  0.35962934027E+01  0.85636594330E+00  0.21884765605E+01  0.42960585173E+01  0.51100000000E-03 0. -1.
        -11    1    3    3    0    0 -0.18250443171E+02  0.14204195070E+02  0.22046657321E+02  0.31951415193E+02  0.51100000000E-03 0.  1.
         12    1    3    3    0    0  0.29577116286E+02 -0.44081003085E+01 -0.20426069330E+02  0.36214105877E+02  0.00000000000E+00 0. -1.
</event>
<event>
 7    1  0.2941727E-013  0.7246154E+02  0.7816164E-02  0.1226708E+00
        -11   -1    0    0    0    0  0.00000000000E+00  0.00000000000E+00  0.45593999997E+02  0.45594000000E+02  0.51100000000E-03 0.  1.
         11   -1    0    0    0    0 -0.00000000000E+00 -0.00000000000E+00 -0.45593999997E+02  0.45594000000E+02  0.51100000000E-03 0. -1.
    9900012    2    1    2    0    0  0.12800884272E+01  0.65417114895E+01 -0.17499930537E+02  0.72461543197E+02  0.69999964701E+02 0.  0.
         12    1    1    2    0    0 -0.12800884272E+01 -0.65417114895E+01  0.17499930537E+02  0.18726456803E+02  0.00000000000E+00 0. -1.
         11    1    3    3    0    0  0.27910923992E+02 -0.10457739001E+02 -0.16963354370E+02  0.34294888465E+02  0.51100000000E-03 0. -1.
        -11    1    3    3    0    0 -0.82959900762E+01 -0.31206415412E+01  0.52995729297E+01  0.10327019341E+02  0.51100000000E-03 0.  1.
        -12    1    3    3    0    0 -0.18334845488E+02  0.20120092032E+02 -0.58361490959E+01  0.27839635391E+02  0.00000000000E+00 0.  1.
</event>
<event>
 7    1  0.2941727E-013  0.7246154E+02  0.7816164E-02  0.1226708E+00
        -11   -1    0    0    0    0  0.00000000000E+00  0.00000000000E+00  0.45593999997E+02  0.45594000000E+02  0.51100000000E-03 0.  1.
         11   -1    0    0    0    0 -0.00000000000E+00 -0.00000000000E+00 -0.45593999997E+02  0.45594000000E+02  0.51100000000E-03 0. -1.
    9900012    2    1    2    0    0 -0.11780478122E+02  0.13936772191E+02 -0.42032270436E+01  0.72461537402E+02  0.69999957151E+02 0.  0.
         12    1    1    2    0    0  0.11780478122E+02 -0.13936772191E+02  0.42032270436E+01  0.18726462598E+02  0.00000000000E+00 0. -1.
         11    1    3    3    0    0 -0.19378572406E+02  0.32096869843E+01 -0.25483114899E+01  0.19807196943E+02  0.51100000000E-03 0. -1.
        -11    1    3    3    0    0  0.11926017861E+02  0.31221834367E+01  0.23217605819E+02  0.26287547464E+02  0.51100000000E-03 0.  1.
         12    1    3    3    0    0 -0.43279235765E+01  0.76049017695E+01 -0.24872521372E+02  0.26366792995E+02  0.00000000000E+00 0. -1.
</event>
<event>
 7    1  0.2941727E-013  0.7246160E+02  0.7816164E-02  0.1226708E+00
        -11   -1    0    0    0    0  0.00000000000E+00  0.00000000000E+00  0.45593999997E+02  0.45594000000E+02  0.51100000000E-03 0.  1.
         11   -1    0    0    0    0 -0.00000000000E+00 -0.00000000000E+00 -0.45593999997E+02  0.45594000000E+02  0.51100000000E-03 0. -1.
    9900012    2    1    2    0    0  0.45451272413E+01 -0.17933460635E+02 -0.29001808368E+01  0.72461595089E+02  0.70000032300E+02 0.  0.
         12    1    1    2    0    0 -0.45451272413E+01  0.17933460635E+02  0.29001808368E+01  0.18726404911E+02  0.00000000000E+00 0. -1.
         11    1    3    3    0    0 -0.26809798447E+02  0.52705260084E+00  0.71021099036E+01  0.27739557360E+02  0.51100000000E-03 0. -1.
        -11    1    3    3    0    0  0.20948435422E+02 -0.55088635658E+01  0.51182469265E+01  0.22257155619E+02  0.51100000000E-03 0.  1.
        -12    1    3    3    0    0  0.10406490266E+02 -0.12951649670E+02 -0.15120537667E+02  0.22464882109E+02  0.00000000000E+00 0.  1.
</event>
<event>
 7    1  0.2941727E-013  0.7246145E+02  0.7816164E-02  0.1226708E+00
        -11   -1    0    0    0    0  0.00000000000E+00  0.00000000000E+00  0.45593999997E+02  0.45594000000E+02  0.51100000000E-03 0. -1.
         11   -1    0    0    0    0 -0.00000000000E+00 -0.00000000000E+00 -0.45593999997E+02  0.45594000000E+02  0.51100000000E-03 0.  1.
    9900012    2    1    2    0    0  0.15745433697E+02  0.81610927697E+01  0.60134381333E+01  0.72461453183E+02  0.69999847441E+02 0.  0.
         12    1    1    2    0    0 -0.15745433697E+02 -0.81610927697E+01 -0.60134381333E+01  0.18726546817E+02  0.00000000000E+00 0. -1.
         11    1    3    3    0    0  0.17425287521E+02  0.18712562479E+02  0.18021367864E+02  0.31282108939E+02  0.51100000000E-03 0. -1.
        -11    1    3    3    0    0 -0.96495215981E+01 -0.21442149779E+02 -0.62045174336E+00  0.23521564890E+02  0.51100000000E-03 0.  1.
         12    1    3    3    0    0  0.79696677738E+01  0.10890680070E+02 -0.11387477987E+02  0.17657779354E+02  0.00000000000E+00 0. -1.
</event>
<event>
 7    1  0.2941727E-013  0.7246153E+02  0.7816164E-02  0.1226708E+00
        -11   -1    0    0    0    0  0.00000000000E+00  0.00000000000E+00  0.45593999997E+02  0.45594000000E+02  0.51100000000E-03 0. -1.
         11   -1    0    0    0    0 -0.00000000000E+00 -0.00000000000E+00 -0.45593999997E+02  0.45594000000E+02  0.51100000000E-03 0.  1.
    9900012    2    1    2    0    0  0.18764235506E+00 -0.18677858733E+02 -0.13353601060E+01  0.72461526677E+02  0.69999943180E+02 0.  0.
         12    1    1    2    0    0 -0.18764235506E+00  0.18677858733E+02  0.13353601060E+01  0.18726473323E+02  0.00000000000E+00 0. -1.
         11    1    3    3    0    0  0.16926406788E+02 -0.12642857925E+02  0.87612114321E+01  0.22871465394E+02  0.51100000000E-03 0. -1.
        -11    1    3    3    0    0  0.13247745468E+02 -0.79077397549E+01 -0.11909790954E+02  0.19490465075E+02  0.51100000000E-03 0.  1.
         12    1    3    3    0    0 -0.29986509901E+02  0.18727389468E+01  0.18132194156E+01  0.30099596207E+02  0.00000000000E+00 0. -1.
</event>
<event>
 7    1  0.2941727E-013  0.7246160E+02  0.7816164E-02  0.1226708E+00
        -11   -1    0    0    0    0  0.00000000000E+00  0.00000000000E+00  0.45593999997E+02  0.45594000000E+02  0.51100000000E-03 0. -1.
         11   -1    0    0    0    0 -0.00000000000E+00 -0.00000000000E+00 -0.45593999997E+02  0.45594000000E+02  0.51100000000E-03 0.  1.
    9900012    2    1    2    0    0 -0.91777494007E+01 -0.30676599608E+01  0.16032353131E+02  0.72461602359E+02  0.70000041770E+02 0.  0.
         12    1    1    2    0    0  0.91777494007E+01  0.30676599608E+01 -0.16032353131E+02  0.18726397641E+02  0.00000000000E+00 0. -1.
         11    1    3    3    0    0 -0.84879656067E+01  0.87559045403E+00  0.26364719346E+02  0.27711200718E+02  0.51100000000E-03 0. -1.
        -11    1    3    3    0    0  0.94535144379E+01 -0.40065681146E+01  0.14591263958E+02  0.17841706965E+02  0.51100000000E-03 0.  1.
        -12    1    3    3    0    0 -0.10143298232E+02  0.63317699767E-01 -0.24923630173E+02  0.26908694676E+02  0.00000000000E+00 0.  1.
</event>
<event>
 7    1  0.2941727E-013  0.7246157E+02  0.7816164E-02  0.1226708E+00
        -11   -1    0    0    0    0  0.00000000000E+00  0.00000000000E+00  0.45593999997E+02  0.45594000000E+02  0.51100000000E-03 0. -1.
         11   -1    0    0    0    0 -0.00000000000E+00 -0.00000000000E+00 -0.45593999997E+02  0.45594000000E+02  0.51100000000E-03 0.  1.
    9900012    2    1    2    0    0 -0.16364718190E+02 -0.56529421195E+01 -0.71357945738E+01  0.72461566270E+02  0.69999994758E+02 0.  0.
         12    1    1    2    0    0  0.16364718190E+02  0.56529421195E+01  0.71357945738E+01  0.18726433730E+02  0.00000000000E+00 0. -1.
         11    1    3    3    0    0  0.21148514635E+01 -0.30541088450E+02 -0.19711772268E+02  0.36411325802E+02  0.51100000000E-03 0. -1.
        -11    1    3    3    0    0 -0.62951845610E+01  0.25123875345E+00  0.23894426788E+01  0.67380936580E+01  0.51100000000E-03 0.  1.
        -12    1    3    3    0    0 -0.12184385092E+02  0.24636907577E+02  0.10186535015E+02  0.29312146811E+02  0.00000000000E+00 0.  1.
</event>
<event>
 7    1  0.2941727E-013  0.7246146E+02  0.7816164E-02  0.1226708E+00
        -11   -1    0    0    0    0  0.00000000000E+00  0.00000000000E+00  0.45593999997E+02  0.45594000000E+02  0.51100000000E-03 0.  1.
         11   -1    0    0    0    0 -0.00000000000E+00 -0.00000000000E+00 -0.45593999997E+02  0.45594000000E+02  0.51100000000E-03 0. -1.
    9900012    2    1    2    0    0 -0.17613601356E+02  0.47950411570E+01 -0.41775311640E+01  0.72461464308E+02  0.69999861932E+02 0.  0.
         12    1    1    2    0    0  0.17613601356E+02 -0.47950411570E+01  0.41775311640E+01  0.18726535692E+02  0.00000000000E+00 0. -1.
         11    1    3    3    0    0 -0.99219189976E+01 -0.27204952116E+01 -0.62037705116E+01  0.12013839503E+02  0.51100000000E-03 0. -1.
        -11    1    3    3    0    0 -0.87284142956E+01 -0.48581959985E+01  0.29043576395E+02  0.30713459827E+02  0.51100000000E-03 0.  1.
        -12    1    3    3    0    0  0.10367319375E+01  0.12373732367E+02 -0.27017337047E+02  0.29734164977E+02  0.00000000000E+00 0.  1.
</event>
<event>
 7    1  0.2941727E-013  0.7246156E+02  0.7816164E-02  0.1226708E+00
        -11   -1    0    0    0    0  0.00000000000E+00  0.00000000000E+00  0.45593999997E+02  0.45594000000E+02  0.51100000000E-03 0. -1.
         11   -1    0    0    0    0 -0.00000000000E+00 -0.00000000000E+00 -0.45593999997E+02  0.45594000000E+02  0.51100000000E-03 0.  1.
    9900012    2    1    2    0    0 -0.40701398341E+01  0.18245082914E+02 -0.11092356890E+01  0.72461561668E+02  0.69999988762E+02 0.  0.
         12    1    1    2    0    0  0.40701398341E+01 -0.18245082914E+02  0.11092356890E+01  0.18726438332E+02  0.00000000000E+00 0. -1.
         11    1    3    3    0    0 -0.17793080013E+02  0.10091208652E+02  0.17786028415E+01  0.20532647582E+02  0.51100000000E-03 0. -1.
        -11    1    3    3    0    0  0.13108975289E+02  0.26422128737E+02 -0.11582250712E+02  0.31687894407E+02  0.51100000000E-03 0.  1.
         12    1    3    3    0    0  0.61396488961E+00 -0.18268254475E+02  0.86944121819E+01  0.20241019679E+02  0.00000000000E+00 0. -1.
</event>
<event>
 7    1  0.2941727E-013  0.7246159E+02  0.7816164E-02  0.1226708E+00
        -11   -1    0    0    0    0  0.00000000000E+00  0.00000000000E+00  0.45593999997E+02  0.45594000000E+02  0.51100000000E-03 0.  1.
         11   -1    0    0    0    0 -0.00000000000E+00 -0.00000000000E+00 -0.45593999997E+02  0.45594000000E+02  0.51100000000E-03 0. -1.
    9900012    2    1    2    0    0  0.21487649236E+01 -0.16484831730E+02  0.86204122282E+01  0.72461591512E+02  0.70000027640E+02 0.  0.
         12    1    1    2    0    0 -0.21487649236E+01  0.16484831730E+02 -0.86204122282E+01  0.18726408488E+02  0.00000000000E+00 0. -1.
         11    1    3    3    0    0  0.13561991742E+02  0.49626720220E-01 -0.11875523597E+02  0.18026595457E+02  0.51100000000E-03 0. -1.
        -11    1    3    3    0    0  0.90727567934E+01  0.98551577808E+00 -0.10130796987E+02  0.13635219288E+02  0.51100000000E-03 0.  1.
        -12    1    3    3    0    0 -0.20485983612E+02 -0.17519974228E+02  0.30626732812E+02  0.40799776767E+02  0.00000000000E+00 0.  1.
</event>
<event>
 7    1  0.2941727E-013  0.7246153E+02  0.7816164E-02  0.1226708E+00
        -11   -1    0    0    0    0  0.00000000000E+00  0.00000000000E+00  0.45593999997E+02  0.45594000000E+02  0.51100000000E-03 0.  1.
         11   -1    0    0    0    0 -0.00000000000E+00 -0.00000000000E+00 -0.45593999997E+02  0.45594000000E+02  0.51100000000E-03 0. -1.
    9900012    2    1    2    0    0  0.10592826972E+02  0.14305605447E+02  0.58156999098E+01  0.72461529540E+02  0.69999946910E+02 0.  0.
         12    1    1    2    0    0 -0.10592826972E+02 -0.14305605447E+02 -0.58156999098E+01  0.18726470460E+02  0.00000000000E+00 0. -1.
         11    1    3    3    0    0  0.20073846115E+02  0.19796843647E+02 -0.19883869693E+02  0.34499892616E+02  0.51100000000E-03 0. -1.
        -11    1    3    3    0    0  0.87363366971E+01 -0.14369338456E+00  0.59812716564E+01  0.10588665523E+02  0.51100000000E-03 0.  1.
        -12    1    3    3    0    0 -0.18217355841E+02 -0.53475448159E+01  0.19718297947E+02  0.27372971401E+02  0.00000000000E+00 0.  1.
</event>
<event>
 7    1  0.2941727E-013  0.7246156E+02  0.7816164E-02  0.1226708E+00
        -11   -1    0    0    0    0  0.00000000000E+00  0.00000000000E+00  0.45593999997E+02  0.45594000000E+02  0.51100000000E-03 0. -1.
         11   -1    0    0    0    0 -0.00000000000E+00 -0.00000000000E+00 -0.45593999997E+02  0.45594000000E+02  0.51100000000E-03 0.  1.
    9900012    2    1    2    0    0  0.12077894158E+02  0.12249972877E+02 -0.73987883478E+01  0.72461563291E+02  0.69999990877E+02 0.  0.
         12    1    1    2    0    0 -0.12077894158E+02 -0.12249972877E+02  0.73987883478E+01  0.18726436709E+02  0.00000000000E+00 0. -1.
         11    1    3    3    0    0  0.73862607054E+01 -0.12127965506E+02 -0.22045174972E+01  0.14370257206E+02  0.51100000000E-03 0. -1.
        -11    1    3    3    0    0 -0.10024075227E+02 -0.50554386726E+01 -0.19268703974E+02  0.22300728630E+02  0.51100000000E-03 0.  1.
         12    1    3    3    0    0  0.14715708680E+02  0.29433377056E+02  0.14074433123E+02  0.35790577455E+02  0.00000000000E+00 0. -1.
</event>
<event>
 7    1  0.2941727E-013  0.7246143E+02  0.7816164E-02  0.1226708E+00
        -11   -1    0    0    0    0  0.00000000000E+00  0.00000000000E+00  0.45593999997E+02  0.45594000000E+02  0.51100000000E-03 0. -1.
         11   -1    0    0    0    0 -0.00000000000E+00 -0.00000000000E+00 -0.45593999997E+02  0.45594000000E+02  0.51100000000E-03 0.  1.
    9900012    2    1    2    0    0  0.40062955034E+00 -0.16967880408E+02 -0.79129558953E+01  0.72461432227E+02  0.69999820141E+02 0.  0.
         12    1    1    2    0    0 -0.40062955034E+00  0.16967880408E+02  0.79129558953E+01  0.18726567773E+02  0.00000000000E+00 0. -1.
         11    1    3    3    0    0  0.26289941905E+01  0.21448124147E+02 -0.40980133412E+01  0.21993802615E+02  0.51100000000E-03 0. -1.
        -11    1    3    3    0    0  0.12361279061E+02 -0.50822695869E+01 -0.44159628962E+01  0.14075916054E+02  0.51100000000E-03 0.  1.
         12    1    3    3    0    0 -0.14589643702E+02 -0.33333734968E+02  0.60102034201E+00  0.36391713558E+02  0.00000000000E+00 0. -1.
</event>
<event>
 7    1  0.2941727E-013  0.7246194E+02  0.7816164E-02  0.1226707E+00
        -11   -1    0    0    0    0  0.00000000000E+00  0.00000000000E+00  0.45593999997E+02  0.45594000000E+02  0.51100000000E-03 0.  1.
         11   -1    0    0    0    0 -0.00000000000E+00 -0.00000000000E+00 -0.45593999997E+02  0.45594000000E+02  0.51100000000E-03 0. -1.
    9900012    2    1    2    0    0  0.64860514098E+01 -0.15809473171E+02  0.76587764716E+01  0.72461944305E+02  0.70000487217E+02 0.  0.
         12    1    1    2    0    0 -0.64860514098E+01  0.15809473171E+02 -0.76587764716E+01  0.18726055695E+02  0.00000000000E+00 0. -1.
         11    1    3    3    0    0 -0.10781701157E+02 -0.39608493897E+01 -0.25172044547E+02  0.27668849536E+02  0.51100000000E-03 0. -1.
        -11    1    3    3    0    0 -0.25201695591E+01 -0.54218736585E+01  0.64295367455E-01  0.59793062081E+01  0.51100000000E-03 0.  1.
        -12    1    3    3    0    0  0.19787922126E+02 -0.64267501230E+01  0.32766525651E+02  0.38813788561E+02  0.00000000000E+00 0.  1.
</event>
<event>
 7    1  0.2941727E-013  0.7246155E+02  0.7816164E-02  0.1226708E+00
        -11   -1    0    0    0    0  0.00000000000E+00  0.00000000000E+00  0.45593999997E+02  0.45594000000E+02  0.51100000000E-03 0.  1.
         11   -1    0    0    0    0 -0.00000000000E+00 -0.00000000000E+00 -0.45593999997E+02  0.45594000000E+02  0.51100000000E-03 0. -1.
    9900012    2    1    2    0    0  0.58431199580E+01  0.67878038065E+01  0.16445775596E+02  0.72461551690E+02  0.69999975764E+02 0.  0.
         12    1    1    2    0    0 -0.58431199580E+01 -0.67878038065E+01 -0.16445775596E+02  0.18726448310E+02  0.00000000000E+00 0. -1.
         11    1    3    3    0    0  0.10227314051E+02 -0.77495186301E+01 -0.45274935219E+01  0.13607027212E+02  0.51100000000E-03 0. -1.
        -11    1    3    3    0    0  0.91566003834E+01 -0.16753730098E+02  0.52978449793E+00  0.19100038603E+02  0.51100000000E-03 0.  1.
        -12    1    3    3    0    0 -0.13540794476E+02  0.31291052534E+02  0.20443484620E+02  0.39754485875E+02  0.00000000000E+00 0.  1.
</event>
<event>
 7    1  0.2941727E-013  0.7246155E+02  0.7816164E-02  0.1226708E+00
        -11   -1    0    0    0    0  0.00000000000E+00  0.00000000000E+00  0.45593999997E+02  0.45594000000E+02  0.51100000000E-03 0. -1.
         11   -1    0    0    0    0 -0.00000000000E+00 -0.00000000000E+00 -0.45593999997E+02  0.45594000000E+02  0.51100000000E-03 0.  1.
    9900012    2    1    2    0    0 -0.45845418277E+01  0.15111123993E+02  0.10065572562E+02  0.72461552309E+02  0.69999976571E+02 0.  0.
         12    1    1    2    0    0  0.45845418277E+01 -0.15111123993E+02 -0.10065572562E+02  0.18726447691E+02  0.00000000000E+00 0. -1.
         11    1    3    3    0    0  0.54611997582E+01  0.25221339260E+01 -0.51385608668E+01  0.79114265706E+01  0.51100000000E-03 0. -1.
        -11    1    3    3    0    0 -0.14240962758E+02  0.85827453981E+01 -0.21618591184E+02  0.27273284068E+02  0.51100000000E-03 0.  1.
         12    1    3    3    0    0  0.41952211725E+01  0.40062446691E+01  0.36822724612E+02  0.37276841670E+02  0.00000000000E+00 0. -1.
</event>
<event>
 7    1  0.2941727E-013  0.7246159E+02  0.7816164E-02  0.1226708E+00
        -11   -1    0    0    0    0  0.00000000000E+00  0.00000000000E+00  0.45593999997E+02  0.45594000000E+02  0.51100000000E-03 0. -1.
         11   -1    0    0    0    0 -0.00000000000E+00 -0.00000000000E+00 -0.45593999997E+02  0.45594000000E+02  0.51100000000E-03 0.  1.
    9900012    2    1    2    0    0 -0.69200125964E+01 -0.10791891792E+02 -0.13650155434E+02  0.72461594948E+02  0.70000032116E+02 0.  0.
         12    1    1    2    0    0  0.69200125964E+01  0.10791891792E+02  0.13650155434E+02  0.18726405052E+02  0.00000000000E+00 0. -1.
         11    1    3    3    0    0  0.14623362145E+02 -0.41795943174E+01 -0.12218069200E+02  0.19508791462E+02  0.51100000000E-03 0. -1.
        -11    1    3    3    0    0  0.25849898722E+01 -0.23381661672E+02  0.18500214146E+00  0.23524848591E+02  0.51100000000E-03 0.  1.
         12    1    3    3    0    0 -0.24128364614E+02  0.16769364197E+02 -0.16170883760E+01  0.29427954895E+02  0.00000000000E+00 0. -1.
</event>
<event>
 7    1  0.2941727E-013  0.7246156E+02  0.7816164E-02  0.1226708E+00
        -11   -1    0    0    0    0  0.00000000000E+00  0.00000000000E+00  0.45593999997E+02  0.45594000000E+02  0.51100000000E-03 0.  1.
         11   -1    0    0    0    0 -0.00000000000E+00 -0.00000000000E+00 -0.45593999997E+02  0.45594000000E+02  0.51100000000E-03 0. -1.
    9900012    2    1    2    0    0  0.10589953230E+02 -0.13561425808E+02 -0.73905395250E+01  0.72461562703E+02  0.69999990111E+02 0.  0.
         12    1    1    2    0    0 -0.10589953230E+02  0.13561425808E+02  0.73905395250E+01  0.18726437297E+02  0.00000000000E+00 0. -1.
         11    1    3    3    0    0 -0.11468504331E+02  0.10976495703E+02 -0.19803110473E+02  0.25380568043E+02  0.51100000000E-03 0. -1.
        -11    1    3    3    0    0  0.17516515083E+02  0.25670821548E+01  0.71809984660E+01  0.19104579312E+02  0.51100000000E-03 0.  1.
        -12    1    3    3    0    0  0.45419424778E+01 -0.27105003665E+02  0.52315724820E+01  0.27976415349E+02  0.00000000000E+00 0.  1.
</event>
<event>
 7    1  0.2941727E-013  0.7246143E+02  0.7816164E-02  0.1226708E+00
        -11   -1    0    0    0    0  0.00000000000E+00  0.00000000000E+00  0.45593999997E+02  0.45594000000E+02  0.51100000000E-03 0. -1.
         11   -1    0    0    0    0 -0.00000000000E+00 -0.00000000000E+00 -0.45593999997E+02  0.45594000000E+02  0.51100000000E-03 0.  1.
    9900012    2    1    2    0    0 -0.13963068877E+02 -0.75859833653E+01 -0.99080710529E+01  0.72461433094E+02  0.69999821271E+02 0.  0.
         12    1    1    2    0    0  0.13963068877E+02  0.75859833653E+01  0.99080710529E+01  0.18726566906E+02  0.00000000000E+00 0. -1.
         11    1    3    3    0    0 -0.36480235758E+01  0.57787428149E+01  0.14421391879E+02  0.15958649333E+02  0.51100000000E-03 0. -1.
        -11    1    3    3    0    0 -0.17050627199E+02  0.61792952102E+01  0.66013953983E+01  0.19299896338E+02  0.51100000000E-03 0.  1.
        -12    1    3    3    0    0  0.67355818980E+01 -0.19544021390E+02 -0.30930858331E+02  0.37202887424E+02  0.00000000000E+00 0.  1.
</event>
<event>
 7    1  0.2941727E-013  0.7246152E+02  0.7816164E-02  0.1226708E+00
        -11   -1    0    0    0    0  0.00000000000E+00  0.00000000000E+00  0.45593999997E+02  0.45594000000E+02  0.51100000000E-03 0. -1.
         11   -1    0    0    0    0 -0.00000000000E+00 -0.00000000000E+00 -0.45593999997E+02  0.45594000000E+02  0.51100000000E-03 0.  1.
    9900012    2    1    2    0    0 -0.99576732116E+01  0.11422135245E+02 -0.11002749605E+02  0.72461523337E+02  0.69999938829E+02 0.  0.
         12    1    1    2    0    0  0.99576732116E+01 -0.11422135245E+02  0.11002749605E+02  0.18726476663E+02  0.00000000000E+00 0. -1.
         11    1    3    3    0    0 -0.11195831854E+02 -0.18797293106E+02  0.10688738072E+02  0.24350236156E+02  0.51100000000E-03 0. -1.
        -11    1    3    3    0    0 -0.15946437433E+01 -0.14448637175E+01 -0.15593115386E+02  0.15740894750E+02  0.51100000000E-03 0.  1.
        -12    1    3    3    0    0  0.28328023854E+01  0.31664292069E+02 -0.60983722916E+01  0.32370392431E+02  0.00000000000E+00 0.  1.
</event>
<event>
 7    1  0.2941727E-013  0.7246155E+02  0.7816164E-02  0.1226708E+00
        -11   -1    0    0    0    0  0.00000000000E+00  0.00000000000E+00  0.45593999997E+02  0.45594000000E+02  0.51100000000E-03 0.  1.
         11   -1    0    0    0    0 -0.00000000000E+00 -0.00000000000E+00 -0.45593999997E+02  0.45594000000E+02  0.51100000000E-03 0. -1.
    9900012    2    1    2    0    0  0.89611439445E+00  0.18659873214E+02  0.12984750594E+01  0.72461550073E+02  0.69999973658E+02 0.  0.
         12    1    1    2    0    0 -0.89611439445E+00 -0.18659873214E+02 -0.12984750594E+01  0.18726449927E+02  0.00000000000E+00 0. -1.
         11    1    3    3    0    0 -0.69630460558E+01 -0.15505782529E+02 -0.63915791559E+01  0.18159448961E+02  0.51100000000E-03 0. -1.
        -11    1    3    3    0    0  0.74395389984E+01  0.96066739530E+01  0.22535063894E+02  0.25602031754E+02  0.51100000000E-03 0.  1.
         12    1    3    3    0    0  0.41962145184E+00  0.24558981791E+02 -0.14845009679E+02  0.28700069357E+02  0.00000000000E+00 0. -1.
</event>
<event>
 7    1  0.3544264E-013  0.7246156E+02  0.7816164E-02  0.1226708E+00
        -11   -1    0    0    0    0  0.00000000000E+00  0.00000000000E+00  0.45593999997E+02  0.45594000000E+02  0.51100000000E-03 0. -1.
         11   -1    0    0    0    0 -0.00000000000E+00 -0.00000000000E+00 -0.45593999997E+02  0.45594000000E+02  0.51100000000E-03 0.  1.
    9900012    2    1    2    0    0 -0.61672547847E+01 -0.30646142766E+01 -0.17414152466E+02  0.72461558845E+02  0.69999985085E+02 0.  0.
         12    1    1    2    0    0  0.61672547847E+01  0.30646142766E+01  0.17414152466E+02  0.18726441155E+02  0.00000000000E+00 0. -1.
         11    1    3    3    0    0  0.94224953910E+01  0.59717440215E+01  0.18987871243E+02  0.22022361377E+02  0.51100000000E-03 0. -1.
        -11    1    3    3    0    0  0.38972422467E+00  0.86994886533E+01 -0.26587652636E+01  0.91050546834E+01  0.51100000000E-03 0.  1.
        -12    1    3    3    0    0 -0.15979474400E+02 -0.17735846951E+02 -0.33743258445E+02  0.41334142784E+02  0.00000000000E+00 0.  1.
</event>
<event>
 7    1  0.2941727E-013  0.7246164E+02  0.7816164E-02  0.1226708E+00
        -11   -1    0    0    0    0  0.00000000000E+00  0.00000000000E+00  0.45593999997E+02  0.45594000000E+02  0.51100000000E-03 0.  1.
         11   -1    0    0    0    0 -0.00000000000E+00 -0.00000000000E+00 -0.45593999997E+02  0.45594000000E+02  0.51100000000E-03 0. -1.
    9900012    2    1    2    0    0  0.31745427038E+01  0.18407164548E+02  0.13323738822E+01  0.72461637614E+02  0.70000087696E+02 0.  0.
         12    1    1    2    0    0 -0.31745427038E+01 -0.18407164548E+02 -0.13323738822E+01  0.18726362386E+02  0.00000000000E+00 0. -1.
         11    1    3    3    0    0  0.24382660676E+01  0.97769876372E+01  0.69844544294E+01  0.12260392841E+02  0.51100000000E-03 0. -1.
        -11    1    3    3    0    0  0.14086769258E+02  0.17213998327E+02  0.20081177641E+02  0.29966856730E+02  0.51100000000E-03 0.  1.
         12    1    3    3    0    0 -0.13350492622E+02 -0.85838214166E+01 -0.25733258188E+02  0.30234388043E+02  0.00000000000E+00 0. -1.
</event>
<event>
 7    1  0.2941727E-013  0.7246185E+02  0.7816164E-02  0.1226707E+00
        -11   -1    0    0    0    0  0.00000000000E+00  0.00000000000E+00  0.45593999997E+02  0.45594000000E+02  0.51100000000E-03 0. -1.
         11   -1    0    0    0    0 -0.00000000000E+00 -0.00000000000E+00 -0.45593999997E+02  0.45594000000E+02  0.51100000000E-03 0.  1.
    9900012    2    1    2    0    0  0.52003936381E+01 -0.17897291101E+02 -0.18197861606E+01  0.72461848649E+02  0.70000362608E+02 0.  0.
         12    1    1    2    0    0 -0.52003936381E+01  0.17897291101E+02  0.18197861606E+01  0.18726151351E+02  0.00000000000E+00 0. -1.
         11    1    3    3    0    0  0.11232680598E+02 -0.13920984181E+02 -0.83867421747E+01  0.19756122052E+02  0.51100000000E-03 0. -1.
        -11    1    3    3    0    0  0.15494161528E+02 -0.11756988799E+02 -0.12325675946E+02  0.23026465531E+02  0.51100000000E-03 0.  1.
         12    1    3    3    0    0 -0.21526448488E+02  0.77806818789E+01  0.18892631960E+02  0.29679261066E+02  0.00000000000E+00 0. -1.
</event>
<event>
 7    1  0.2941727E-013  0.7246155E+02  0.7816164E-02  0.1226708E+00
        -11   -1    0    0    0    0  0.00000000000E+00  0.00000000000E+00  0.45593999997E+02  0.45594000000E+02  0.51100000000E-03 0. -1.
         11   -1    0    0    0    0 -0.00000000000E+00 -0.00000000000E+00 -0.45593999997E+02  0.45594000000E+02  0.51100000000E-03 0.  1.
    9900012    2    1    2    0    0 -0.49820355630E+01 -0.10031489770E+02 -0.15007613933E+02  0.72461549687E+02  0.69999973155E+02 0.  0.
         12    1    1    2    0    0  0.49820355630E+01  0.10031489770E+02  0.15007613933E+02  0.18726450313E+02  0.00000000000E+00 0. -1.
         11    1    3    3    0    0 -0.24089958085E+02 -0.76913807701E+01  0.32361206475E+00  0.25290079947E+02  0.51100000000E-03 0. -1.
        -11    1    3    3    0    0  0.45519430765E+01  0.18551130355E+02 -0.55026610588E+01  0.19878226837E+02  0.51100000000E-03 0.  1.
        -12    1    3    3    0    0  0.14555979446E+02 -0.20891239354E+02 -0.98285649389E+01  0.27293242903E+02  0.00000000000E+00 0.  1.
</event>
<event>
 7    1  0.2941727E-013  0.7246156E+02  0.7816164E-02  0.1226708E+00
        -11   -1    0    0    0    0  0.00000000000E+00  0.00000000000E+00  0.45593999997E+02  0.45594000000E+02  0.51100000000E-03 0. -1.
         11   -1    0    0    0    0 -0.00000000000E+00 -0.00000000000E+00 -0.45593999997E+02  0.45594000000E+02  0.51100000000E-03 0.  1.
    9900012    2    1    2    0    0  0.99104114853E+01 -0.13132485553E+02 -0.89443397277E+01  0.72461557578E+02  0.69999983435E+02 0.  0.
         12    1    1    2    0    0 -0.99104114853E+01  0.13132485553E+02  0.89443397277E+01  0.18726442422E+02  0.00000000000E+00 0. -1.
         11    1    3    3    0    0 -0.65467531794E+01 -0.22775010576E+00  0.16058601260E+02  0.17343313466E+02  0.51100000000E-03 0. -1.
        -11    1    3    3    0    0 -0.91805997879E+01  0.12378596131E+01  0.70974892892E+01  0.11670049844E+02  0.51100000000E-03 0.  1.
        -12    1    3    3    0    0  0.25637764453E+02 -0.14142595061E+02 -0.32100430277E+02  0.43448194268E+02  0.00000000000E+00 0.  1.
</event>
<event>
 7    1  0.2941727E-013  0.7246161E+02  0.7816164E-02  0.1226708E+00
        -11   -1    0    0    0    0  0.00000000000E+00  0.00000000000E+00  0.45593999997E+02  0.45594000000E+02  0.51100000000E-03 0.  1.
         11   -1    0    0    0    0 -0.00000000000E+00 -0.00000000000E+00 -0.45593999997E+02  0.45594000000E+02  0.51100000000E-03 0. -1.
    9900012    2    1    2    0    0  0.21118136917E+01 -0.18177923257E+02  0.39725370802E+01  0.72461609481E+02  0.70000051048E+02 0.  0.
         12    1    1    2    0    0 -0.21118136917E+01  0.18177923257E+02 -0.39725370802E+01  0.18726390519E+02  0.00000000000E+00 0. -1.
         11    1    3    3    0    0  0.32692911403E+01  0.64216007348E+01  0.17572780985E+02  0.18992836870E+02  0.51100000000E-03 0. -1.
        -11    1    3    3    0    0 -0.18440570956E+01 -0.11762289430E+02  0.16725713753E+02  0.20530501699E+02  0.51100000000E-03 0.  1.
        -12    1    3    3    0    0  0.68657964693E+00 -0.12837234562E+02 -0.30325957658E+02  0.32938270912E+02  0.00000000000E+00 0.  1.
</event>
<event>
 7    1  0.2941727E-013  0.7246172E+02  0.7816164E-02  0.1226708E+00
        -11   -1    0    0    0    0  0.00000000000E+00  0.00000000000E+00  0.45593999997E+02  0.45594000000E+02  0.51100000000E-03 0.  1.
         11   -1    0    0    0    0 -0.00000000000E+00 -0.00000000000E+00 -0.45593999997E+02  0.45594000000E+02  0.51100000000E-03 0. -1.
    9900012    2    1    2    0    0 -0.80284568464E+01  0.13610073832E+02  0.10049037329E+02  0.72461724869E+02  0.70000201362E+02 0.  0.
         12    1    1    2    0    0  0.80284568464E+01 -0.13610073832E+02 -0.10049037329E+02  0.18726275131E+02  0.00000000000E+00 0. -1.
         11    1    3    3    0    0  0.71953612673E+01 -0.99526309282E+01  0.22679533856E+02  0.25791264846E+02  0.51100000000E-03 0. -1.
        -11    1    3    3    0    0 -0.12115586362E+02  0.81737541413E+01  0.11005590345E+02  0.18295373972E+02  0.51100000000E-03 0.  1.
         12    1    3    3    0    0 -0.31082317516E+01  0.15388950619E+02 -0.23636086873E+02  0.28375086051E+02  0.00000000000E+00 0. -1.
</event>
<event>
 7    1  0.2941727E-013  0.7246145E+02  0.7816164E-02  0.1226708E+00
        -11   -1    0    0    0    0  0.00000000000E+00  0.00000000000E+00  0.45593999997E+02  0.45594000000E+02  0.51100000000E-03 0.  1.
         11   -1    0    0    0    0 -0.00000000000E+00 -0.00000000000E+00 -0.45593999997E+02  0.45594000000E+02  0.51100000000E-03 0. -1.
    9900012    2    1    2    0    0 -0.59410345943E+01  0.46775679662E+01  0.17132077315E+02  0.72461451806E+02  0.69999845647E+02 0.  0.
         12    1    1    2    0    0  0.59410345943E+01 -0.46775679662E+01 -0.17132077315E+02  0.18726548194E+02  0.00000000000E+00 0. -1.
         11    1    3    3    0    0 -0.42518609818E+01 -0.10056886479E+02 -0.71139688352E+01  0.13031801115E+02  0.51100000000E-03 0. -1.
        -11    1    3    3    0    0 -0.16773509060E+02  0.15196035942E+02 -0.78553688166E+01  0.23957815719E+02  0.51100000000E-03 0.  1.
         12    1    3    3    0    0  0.15084335448E+02 -0.46158149690E+00  0.32101414967E+02  0.35471834971E+02  0.00000000000E+00 0. -1.
</event>
<event>
 7    1  0.2941727E-013  0.7246163E+02  0.7816164E-02  0.1226708E+00
        -11   -1    0    0    0    0  0.00000000000E+00  0.00000000000E+00  0.45593999997E+02  0.45594000000E+02  0.51100000000E-03 0.  1.
         11   -1    0    0    0    0 -0.00000000000E+00 -0.00000000000E+00 -0.45593999997E+02  0.45594000000E+02  0.51100000000E-03 0. -1.
    9900012    2    1    2    0    0 -0.15344052483E+02 -0.10404203582E+02 -0.26437711735E+01  0.72461630230E+02  0.70000078077E+02 0.  0.
         12    1    1    2    0    0  0.15344052483E+02  0.10404203582E+02  0.26437711735E+01  0.18726369770E+02  0.00000000000E+00 0. -1.
         11    1    3    3    0    0 -0.15216769072E+02 -0.33021850386E+01 -0.27434791764E+02  0.31545558902E+02  0.51100000000E-03 0. -1.
        -11    1    3    3    0    0 -0.44310082047E+01 -0.47544661257E+01 -0.65304115288E+01  0.92133086808E+01  0.51100000000E-03 0.  1.
        -12    1    3    3    0    0  0.43037247946E+01 -0.23475524173E+01  0.31321432119E+02  0.31702762647E+02  0.00000000000E+00 0.  1.
</event>
<event>
 7    1  0.2941727E-013  0.7246157E+02  0.7816164E-02  0.1226708E+00
        -11   -1    0    0    0    0  0.00000000000E+00  0.00000000000E+00  0.45593999997E+02  0.45594000000E+02  0.51100000000E-03 0. -1.
         11   -1    0    0    0    0 -0.00000000000E+00 -0.00000000000E+00 -0.45593999997E+02  0.45594000000E+02  0.51100000000E-03 0.  1.
    9900012    2    1    2    0    0  0.15260229893E+02  0.10393368686E+02 -0.31276878946E+01  0.72461570532E+02  0.70000000310E+02 0.  0.
         12    1    1    2    0    0 -0.15260229893E+02 -0.10393368686E+02  0.31276878946E+01  0.18726429468E+02  0.00000000000E+00 0. -1.
         11    1    3    3    0    0  0.15770193520E+02 -0.38546097514E+00  0.16561661286E+02  0.22872171053E+02  0.51100000000E-03 0. -1.
        -11    1    3    3    0    0 -0.73204789154E+01 -0.64971707521E+01  0.10368014860E+02  0.14258273799E+02  0.51100000000E-03 0.  1.
         12    1    3    3    0    0  0.68105152883E+01  0.17276000413E+02 -0.30057364041E+02  0.35331125681E+02  0.00000000000E+00 0. -1.
</event>
<event>
 7    1  0.2941727E-013  0.7246155E+02  0.7816164E-02  0.1226708E+00
        -11   -1    0    0    0    0  0.00000000000E+00  0.00000000000E+00  0.45593999997E+02  0.45594000000E+02  0.51100000000E-03 0. -1.
         11   -1    0    0    0    0 -0.00000000000E+00 -0.00000000000E+00 -0.45593999997E+02  0.45594000000E+02  0.51100000000E-03 0.  1.
    9900012    2    1    2    0    0  0.95408918736E+01 -0.10512547817E+02 -0.12212190560E+02  0.72461551388E+02  0.69999975371E+02 0.  0.
         12    1    1    2    0    0 -0.95408918736E+01  0.10512547817E+02  0.12212190560E+02  0.18726448612E+02  0.00000000000E+00 0. -1.
         11    1    3    3    0    0  0.61924629728E+01 -0.26533962703E+01 -0.15535366550E+01  0.69137967743E+01  0.51100000000E-03 0. -1.
        -11    1    3    3    0    0  0.31509902392E+01 -0.10204431473E+02 -0.37301951593E+02  0.38800705587E+02  0.51100000000E-03 0.  1.
         12    1    3    3    0    0  0.19743866160E+00  0.23452799268E+01  0.26643297688E+02  0.26747049027E+02  0.00000000000E+00 0. -1.
</event>
<event>
 7    1  0.2941727E-013  0.7246159E+02  0.7816164E-02  0.1226708E+00
        -11   -1    0    0    0    0  0.00000000000E+00  0.00000000000E+00  0.45593999997E+02  0.45594000000E+02  0.51100000000E-03 0.  1.
         11   -1    0    0    0    0 -0.00000000000E+00 -0.00000000000E+00 -0.45593999997E+02  0.45594000000E+02  0.51100000000E-03 0. -1.
    9900012    2    1    2    0    0  0.57723442305E+01  0.10851779360E+02  0.14127888664E+02  0.72461593210E+02  0.70000029851E+02 0.  0.
         12    1    1    2    0    0 -0.57723442305E+01 -0.10851779360E+02 -0.14127888664E+02  0.18726406790E+02  0.00000000000E+00 0. -1.
         11    1    3    3    0    0  0.10637315791E+02 -0.20325234550E+02  0.95837631517E+00  0.22960534231E+02  0.51100000000E-03 0. -1.
        -11    1    3    3    0    0 -0.33525899782E+01 -0.77176872152E+01  0.48002918534E+01  0.96873813619E+01  0.51100000000E-03 0.  1.
        -12    1    3    3    0    0 -0.15123815821E+01  0.38894701125E+02  0.83692204950E+01  0.39813677617E+02  0.00000000000E+00 0.  1.
</event>
<event>
 7    1  0.2941727E-013  0.7246157E+02  0.7816164E-02  0.1226708E+00
        -11   -1    0    0    0    0  0.00000000000E+00  0.00000000000E+00  0.45593999997E+02  0.45594000000E+02  0.51100000000E-03 0. -1.
         11   -1    0    0    0    0 -0.00000000000E+00 -0.00000000000E+00 -0.45593999997E+02  0.45594000000E+02  0.51100000000E-03 0.  1.
    9900012    2    1    2    0    0  0.92819035385E+01 -0.16180556584E+02  0.16477226162E+01  0.72461571230E+02  0.70000001219E+02 0.  0.
         12    1    1    2    0    0 -0.92819035385E+01  0.16180556584E+02 -0.16477226162E+01  0.18726428770E+02  0.00000000000E+00 0. -1.
         11    1    3    3    0    0 -0.16516424731E+02 -0.81868393911E+01  0.19035942008E+02  0.26498749282E+02  0.51100000000E-03 0. -1.
        -11    1    3    3    0    0 -0.59414329558E+01 -0.19978369180E+01 -0.11545712084E+02  0.13137558590E+02  0.51100000000E-03 0.  1.
        -12    1    3    3    0    0  0.31739761225E+02 -0.59958802747E+01 -0.58425073073E+01  0.32825263358E+02  0.00000000000E+00 0.  1.
</event>
<event>
 7    1  0.2941727E-013  0.7246158E+02  0.7816164E-02  0.1226708E+00
        -11   -1    0    0    0    0  0.00000000000E+00  0.00000000000E+00  0.45593999997E+02  0.45594000000E+02  0.51100000000E-03 0. -1.
         11   -1    0    0    0    0 -0.00000000000E+00 -0.00000000000E+00 -0.45593999997E+02  0.45594000000E+02  0.51100000000E-03 0.  1.
    9900012    2    1    2    0    0 -0.15355718031E+02 -0.52125014312E+01 -0.93653896337E+01  0.72461580951E+02  0.70000013882E+02 0.  0.
         12    1    1    2    0    0  0.15355718031E+02  0.52125014312E+01  0.93653896337E+01  0.18726419049E+02  0.00000000000E+00 0. -1.
         11    1    3    3    0    0 -0.48198460159E+01 -0.16684729661E+01  0.48260857598E+01  0.70218104273E+01  0.51100000000E-03 0. -1.
        -11    1    3    3    0    0 -0.28235102903E+02 -0.11601230424E+02  0.12015862724E+02  0.32805343171E+02  0.51100000000E-03 0.  1.
         12    1    3    3    0    0  0.17699230888E+02  0.80572019588E+01 -0.26207338118E+02  0.32634427353E+02  0.00000000000E+00 0. -1.
</event>
<event>
 7    1  0.2941727E-013  0.7246172E+02  0.7816164E-02  0.1226708E+00
        -11   -1    0    0    0    0  0.00000000000E+00  0.00000000000E+00  0.45593999997E+02  0.45594000000E+02  0.51100000000E-03 0. -1.
         11   -1    0    0    0    0 -0.00000000000E+00 -0.00000000000E+00 -0.45593999997E+02  0.45594000000E+02  0.51100000000E-03 0.  1.
    9900012    2    1    2    0    0 -0.34921330335E+01  0.11797208531E+02  0.14117528462E+02  0.72461715475E+02  0.70000189124E+02 0.  0.
         12    1    1    2    0    0  0.34921330335E+01 -0.11797208531E+02 -0.14117528462E+02  0.18726284525E+02  0.00000000000E+00 0. -1.
         11    1    3    3    0    0 -0.12013352659E+02 -0.96009318585E+01  0.25740490136E+02  0.29984518795E+02  0.51100000000E-03 0. -1.
        -11    1    3    3    0    0 -0.71300763531E+01 -0.58592819259E+01 -0.92416755869E+00  0.92748724749E+01  0.51100000000E-03 0.  1.
        -12    1    3    3    0    0  0.15651295979E+02  0.27257422315E+02 -0.10698794115E+02  0.33202324205E+02  0.00000000000E+00 0.  1.
</event>
<event>
 7    1  0.2941727E-013  0.7246156E+02  0.7816164E-02  0.1226708E+00
        -11   -1    0    0    0    0  0.00000000000E+00  0.00000000000E+00  0.45593999997E+02  0.45594000000E+02  0.51100000000E-03 0. -1.
         11   -1    0    0    0    0 -0.00000000000E+00 -0.00000000000E+00 -0.45593999997E+02  0.45594000000E+02  0.51100000000E-03 0.  1.
    9900012    2    1    2    0    0  0.67011416223E+01 -0.16144063653E+02 -0.67188788960E+01  0.72461563503E+02  0.69999991153E+02 0.  0.
         12    1    1    2    0    0 -0.67011416223E+01  0.16144063653E+02  0.67188788960E+01  0.18726436497E+02  0.00000000000E+00 0. -1.
         11    1    3    3    0    0  0.17297949095E+01 -0.56589607742E+01  0.19782179389E+02  0.20648260196E+02  0.51100000000E-03 0. -1.
        -11    1    3    3    0    0  0.16200883231E+01 -0.27110970036E+02 -0.12870669907E+02  0.30054675619E+02  0.51100000000E-03 0.  1.
        -12    1    3    3    0    0  0.33512583897E+01  0.16625867157E+02 -0.13630388378E+02  0.21758627688E+02  0.00000000000E+00 0.  1.
</event>
<event>
 7    1  0.2941727E-013  0.7246134E+02  0.7816164E-02  0.1226709E+00
        -11   -1    0    0    0    0  0.00000000000E+00  0.00000000000E+00  0.45593999997E+02  0.45594000000E+02  0.51100000000E-03 0. -1.
         11   -1    0    0    0    0 -0.00000000000E+00 -0.00000000000E+00 -0.45593999997E+02  0.45594000000E+02  0.51100000000E-03 0.  1.
    9900012    2    1    2    0    0 -0.20021174611E+01  0.40357677434E+01 -0.18176690494E+02  0.72461335243E+02  0.69999693801E+02 0.  0.
         12    1    1    2    0    0  0.20021174611E+01 -0.40357677434E+01  0.18176690494E+02  0.18726664757E+02  0.00000000000E+00 0. -1.
         11    1    3    3    0    0 -0.19892471612E+02  0.12227050996E+02 -0.11062190821E+02  0.25837632804E+02  0.51100000000E-03 0. -1.
        -11    1    3    3    0    0 -0.83619424747E+01  0.87084456781E+01 -0.94256885804E+01  0.15316746180E+02  0.51100000000E-03 0.  1.
        -12    1    3    3    0    0  0.26252296625E+02 -0.16899728930E+02  0.23111889077E+01  0.31306956259E+02  0.00000000000E+00 0.  1.
</event>
<event>
 7    1  0.2941727E-013  0.7246152E+02  0.7816164E-02  0.1226708E+00
        -11   -1    0    0    0    0  0.00000000000E+00  0.00000000000E+00  0.45593999997E+02  0.45594000000E+02  0.51100000000E-03 0. -1.
         11   -1    0    0    0    0 -0.00000000000E+00 -0.00000000000E+00 -0.45593999997E+02  0.45594000000E+02  0.51100000000E-03 0.  1.
    9900012    2    1    2    0    0  0.17625151864E+02 -0.30061282907E+01 -0.55676214138E+01  0.72461516247E+02  0.69999929594E+02 0.  0.
         12    1    1    2    0    0 -0.17625151864E+02  0.30061282907E+01  0.55676214138E+01  0.18726483753E+02  0.00000000000E+00 0. -1.
         11    1    3    3    0    0  0.14818002823E+02 -0.32357066123E+02 -0.17869842108E+02  0.39823161514E+02  0.51100000000E-03 0.  1.
        -11    1    3    3    0    0 -0.52905635017E+00  0.12344974399E+02  0.81990391795E+01  0.14829111142E+02  0.51100000000E-03 0. -1.
        -12    1    3    3    0    0  0.33362053919E+01  0.17005963434E+02  0.41031815152E+01  0.17809243591E+02  0.00000000000E+00 0.  1.
</event>
<event>
 7    1  0.2941727E-013  0.7246158E+02  0.7816164E-02  0.1226708E+00
        -11   -1    0    0    0    0  0.00000000000E+00  0.00000000000E+00  0.45593999997E+02  0.45594000000E+02  0.51100000000E-03 0.  1.
         11   -1    0    0    0    0 -0.00000000000E+00 -0.00000000000E+00 -0.45593999997E+02  0.45594000000E+02  0.51100000000E-03 0. -1.
    9900012    2    1    2    0    0 -0.11480549496E+02 -0.90707304487E+01  0.11687492039E+02  0.72461584492E+02  0.70000018495E+02 0.  0.
         12    1    1    2    0    0  0.11480549496E+02  0.90707304487E+01 -0.11687492039E+02  0.18726415508E+02  0.00000000000E+00 0. -1.
         11    1    3    3    0    0 -0.12933067468E+02 -0.59096054229E+00  0.13151176675E+02  0.18454455199E+02  0.51100000000E-03 0. -1.
        -11    1    3    3    0    0 -0.96747304685E+01  0.14263258862E+02  0.15784863352E+02  0.23370983597E+02  0.51100000000E-03 0.  1.
         12    1    3    3    0    0  0.11127248440E+02 -0.22743028768E+02 -0.17248547988E+02  0.30636145696E+02  0.00000000000E+00 0. -1.
</event>
<event>
 7    1  0.2941727E-013  0.7246151E+02  0.7816164E-02  0.1226708E+00
        -11   -1    0    0    0    0  0.00000000000E+00  0.00000000000E+00  0.45593999997E+02  0.45594000000E+02  0.51100000000E-03 0. -1.
         11   -1    0    0    0    0 -0.00000000000E+00 -0.00000000000E+00 -0.45593999997E+02  0.45594000000E+02  0.51100000000E-03 0.  1.
    9900012    2    1    2    0    0 -0.37706873892E+01  0.15888509514E+02  0.91661687113E+01  0.72461508957E+02  0.69999920096E+02 0.  0.
         12    1    1    2    0    0  0.37706873892E+01 -0.15888509514E+02 -0.91661687113E+01  0.18726491043E+02  0.00000000000E+00 0. -1.
         11    1    3    3    0    0 -0.39809863581E+01  0.96437706204E+01 -0.55009883316E+01  0.11794551159E+02  0.51100000000E-03 0. -1.
        -11    1    3    3    0    0  0.10133397871E+02  0.29107382786E+02 -0.16706053247E+01  0.30866104508E+02  0.51100000000E-03 0.  1.
         12    1    3    3    0    0 -0.99230989017E+01 -0.22862643893E+02  0.16337762368E+02  0.29800853289E+02  0.00000000000E+00 0. -1.
</event>
<event>
 7    1  0.2941727E-013  0.7246156E+02  0.7816164E-02  0.1226708E+00
        -11   -1    0    0    0    0  0.00000000000E+00  0.00000000000E+00  0.45593999997E+02  0.45594000000E+02  0.51100000000E-03 0.  1.
         11   -1    0    0    0    0 -0.00000000000E+00 -0.00000000000E+00 -0.45593999997E+02  0.45594000000E+02  0.51100000000E-03 0. -1.
    9900012    2    1    2    0    0 -0.99826823025E+00  0.10018235475E+02  0.15789804081E+02  0.72461561620E+02  0.69999988700E+02 0.  0.
         12    1    1    2    0    0  0.99826823025E+00 -0.10018235475E+02 -0.15789804081E+02  0.18726438380E+02  0.00000000000E+00 0. -1.
         11    1    3    3    0    0 -0.86491171244E+01 -0.95198549268E+01 -0.12496676582E+00  0.12862755607E+02  0.51100000000E-03 0. -1.
        -11    1    3    3    0    0 -0.17051950974E+02 -0.91952339307E+01  0.32365247491E+01  0.19641701855E+02  0.51100000000E-03 0.  1.
         12    1    3    3    0    0  0.24702799868E+02  0.28733324333E+02  0.12678246098E+02  0.39957104157E+02  0.00000000000E+00 0. -1.
</event>
<event>
 7    1  0.2941727E-013  0.7246156E+02  0.7816164E-02  0.1226708E+00
        -11   -1    0    0    0    0  0.00000000000E+00  0.00000000000E+00  0.45593999997E+02  0.45594000000E+02  0.51100000000E-03 0.  1.
         11   -1    0    0    0    0 -0.00000000000E+00 -0.00000000000E+00 -0.45593999997E+02  0.45594000000E+02  0.51100000000E-03 0. -1.
    9900012    2    1    2    0    0  0.17594863762E+02 -0.63173761511E+01  0.10914256863E+01  0.72461556604E+02  0.69999982166E+02 0.  0.
         12    1    1    2    0    0 -0.17594863762E+02  0.63173761511E+01 -0.10914256863E+01  0.18726443396E+02  0.00000000000E+00 0. -1.
         11    1    3    3    0    0  0.48529155132E+01 -0.67191815654E+01  0.80579798199E+01  0.11559810938E+02  0.51100000000E-03 0.  1.
        -11    1    3    3    0    0  0.35274830142E+02 -0.57190101185E+01 -0.10592969013E+02  0.37272398783E+02  0.51100000000E-03 0. -1.
        -12    1    3    3    0    0 -0.22532881894E+02  0.61208155327E+01  0.36264148794E+01  0.23629346883E+02  0.00000000000E+00 0.  1.
</event>
<event>
 7    1  0.2941727E-013  0.7246189E+02  0.7816164E-02  0.1226707E+00
        -11   -1    0    0    0    0  0.00000000000E+00  0.00000000000E+00  0.45593999997E+02  0.45594000000E+02  0.51100000000E-03 0.  1.
         11   -1    0    0    0    0 -0.00000000000E+00 -0.00000000000E+00 -0.45593999997E+02  0.45594000000E+02  0.51100000000E-03 0. -1.
    9900012    2    1    2    0    0 -0.55552190922E+01 -0.14527799803E+02  0.10428318274E+02  0.72461888596E+02  0.70000414646E+02 0.  0.
         12    1    1    2    0    0  0.55552190922E+01  0.14527799803E+02 -0.10428318274E+02  0.18726111404E+02  0.00000000000E+00 0. -1.
         11    1    3    3    0    0  0.12175881828E+02  0.56627498621E+01 -0.11063687928E+01  0.13473785157E+02  0.51100000000E-03 0.  1.
        -11    1    3    3    0    0  0.17250242459E+02 -0.14222029596E+02  0.48527738963E+01  0.22877639859E+02  0.51100000000E-03 0. -1.
         12    1    3    3    0    0 -0.34981343379E+02 -0.59685200688E+01  0.66819131700E+01  0.36110463581E+02  0.00000000000E+00 0. -1.
</event>
<event>
 7    1  0.2941727E-013  0.7246159E+02  0.7816164E-02  0.1226708E+00
        -11   -1    0    0    0    0  0.00000000000E+00  0.00000000000E+00  0.45593999997E+02  0.45594000000E+02  0.51100000000E-03 0. -1.
         11   -1    0    0    0    0 -0.00000000000E+00 -0.00000000000E+00 -0.45593999997E+02  0.45594000000E+02  0.51100000000E-03 0.  1.
    9900012    2    1    2    0    0 -0.53185665128E+01 -0.11199256779E+02  0.14034525219E+02  0.72461590834E+02  0.70000026756E+02 0.  0.
         12    1    1    2    0    0  0.53185665128E+01  0.11199256779E+02 -0.14034525219E+02  0.18726409166E+02  0.00000000000E+00 0. -1.
         11    1    3    3    0    0 -0.15335861265E+02  0.20248588339E+02  0.18080330225E+02  0.31178394952E+02  0.51100000000E-03 0. -1.
        -11    1    3    3    0    0  0.10969143703E+01  0.36066661604E+01  0.25007845145E+01  0.45238463034E+01  0.51100000000E-03 0.  1.
        -12    1    3    3    0    0  0.89203803815E+01 -0.35054511278E+02 -0.65465895212E+01  0.36759349579E+02  0.00000000000E+00 0.  1.
</event>
<event>
 7    1  0.2941727E-013  0.7246150E+02  0.7816164E-02  0.1226708E+00
        -11   -1    0    0    0    0  0.00000000000E+00  0.00000000000E+00  0.45593999997E+02  0.45594000000E+02  0.51100000000E-03 0.  1.
         11   -1    0    0    0    0 -0.00000000000E+00 -0.00000000000E+00 -0.45593999997E+02  0.45594000000E+02  0.51100000000E-03 0. -1.
    9900012    2    1    2    0    0 -0.10143307229E+02 -0.83797049326E+00  0.15719186906E+02  0.72461502382E+02  0.69999911531E+02 0.  0.
         12    1    1    2    0    0  0.10143307229E+02  0.83797049326E+00 -0.15719186906E+02  0.18726497618E+02  0.00000000000E+00 0. -1.
         11    1    3    3    0    0 -0.61127219532E+01  0.43702704162E+01  0.34348673729E+01  0.82621393911E+01  0.51100000000E-03 0. -1.
        -11    1    3    3    0    0  0.27124729767E+02 -0.36510959869E+00  0.17442130120E+02  0.32250770120E+02  0.51100000000E-03 0.  1.
         12    1    3    3    0    0 -0.31155315043E+02 -0.48431313107E+01 -0.51578105876E+01  0.31948592870E+02  0.00000000000E+00 0. -1.
</event>
<event>
 7    1  0.2941727E-013  0.7246194E+02  0.7816164E-02  0.1226707E+00
        -11   -1    0    0    0    0  0.00000000000E+00  0.00000000000E+00  0.45593999997E+02  0.45594000000E+02  0.51100000000E-03 0. -1.
         11   -1    0    0    0    0 -0.00000000000E+00 -0.00000000000E+00 -0.45593999997E+02  0.45594000000E+02  0.51100000000E-03 0.  1.
    9900012    2    1    2    0    0  0.15987677759E+02 -0.14644170856E+01 -0.96392453987E+01  0.72461937697E+02  0.70000478608E+02 0.  0.
         12    1    1    2    0    0 -0.15987677759E+02  0.14644170856E+01  0.96392453987E+01  0.18726062303E+02  0.00000000000E+00 0. -1.
         11    1    3    3    0    0  0.23122537664E+01  0.11228038983E+02  0.99615575234E+00  0.11506854628E+02  0.51100000000E-03 0. -1.
        -11    1    3    3    0    0  0.34696025136E+02 -0.10002591507E+02  0.22053085743E+01  0.36176364981E+02  0.51100000000E-03 0.  1.
        -12    1    3    3    0    0 -0.21020601143E+02 -0.26898645619E+01 -0.12840709725E+02  0.24778718087E+02  0.00000000000E+00 0.  1.
</event>
<event>
 7    1  0.2941727E-013  0.7246158E+02  0.7816164E-02  0.1226708E+00
        -11   -1    0    0    0    0  0.00000000000E+00  0.00000000000E+00  0.45593999997E+02  0.45594000000E+02  0.51100000000E-03 0. -1.
         11   -1    0    0    0    0 -0.00000000000E+00 -0.00000000000E+00 -0.45593999997E+02  0.45594000000E+02  0.51100000000E-03 0.  1.
    9900012    2    1    2    0    0 -0.15908452679E+02 -0.31457595633E+00 -0.98742584689E+01  0.72461580027E+02  0.70000012679E+02 0.  0.
         12    1    1    2    0    0  0.15908452679E+02  0.31457595633E+00  0.98742584689E+01  0.18726419973E+02  0.00000000000E+00 0. -1.
         11    1    3    3    0    0 -0.12117413779E+02  0.87964519596E+01 -0.19512652340E+02  0.24595789993E+02  0.51100000000E-03 0. -1.
        -11    1    3    3    0    0  0.80290404497E+01 -0.19936008225E+02 -0.89852893021E+01  0.23294749163E+02  0.51100000000E-03 0.  1.
         12    1    3    3    0    0 -0.11820079350E+02  0.10824980309E+02  0.18623683174E+02  0.24571040871E+02  0.00000000000E+00 0. -1.
</event>
<event>
 7    1  0.2941727E-013  0.7246149E+02  0.7816164E-02  0.1226708E+00
        -11   -1    0    0    0    0  0.00000000000E+00  0.00000000000E+00  0.45593999997E+02  0.45594000000E+02  0.51100000000E-03 0.  1.
         11   -1    0    0    0    0 -0.00000000000E+00 -0.00000000000E+00 -0.45593999997E+02  0.45594000000E+02  0.51100000000E-03 0. -1.
    9900012    2    1    2    0    0  0.87313379296E+01 -0.16439452238E+02  0.20470541511E+01  0.72461487174E+02  0.69999891720E+02 0.  0.
         12    1    1    2    0    0 -0.87313379296E+01  0.16439452238E+02 -0.20470541511E+01  0.18726512826E+02  0.00000000000E+00 0. -1.
         11    1    3    3    0    0  0.12616288916E+02  0.16455460752E+02 -0.52793548764E+00  0.20742026196E+02  0.51100000000E-03 0. -1.
        -11    1    3    3    0    0 -0.27419522441E+01  0.67698881320E+01  0.89255709354E+01  0.11533234768E+02  0.51100000000E-03 0.  1.
        -12    1    3    3    0    0 -0.11429987418E+01 -0.39664801122E+02 -0.63505812967E+01  0.40186226210E+02  0.00000000000E+00 0.  1.
</event>
<event>
 7    1  0.2941727E-013  0.7246156E+02  0.7816164E-02  0.1226708E+00
        -11   -1    0    0    0    0  0.00000000000E+00  0.00000000000E+00  0.45593999997E+02  0.45594000000E+02  0.51100000000E-03 0.  1.
         11   -1    0    0    0    0 -0.00000000000E+00 -0.00000000000E+00 -0.45593999997E+02  0.45594000000E+02  0.51100000000E-03 0. -1.
    9900012    2    1    2    0    0  0.18496825329E+02 -0.29193493589E+01  0.15640867261E+00  0.72461558491E+02  0.69999984624E+02 0.  0.
         12    1    1    2    0    0 -0.18496825329E+02  0.29193493589E+01 -0.15640867261E+00  0.18726441509E+02  0.00000000000E+00 0. -1.
         11    1    3    3    0    0 -0.93732173060E+01  0.11325538989E+02  0.87052708708E+01  0.17085279548E+02  0.51100000000E-03 0. -1.
        -11    1    3    3    0    0  0.32035452992E+01 -0.25543016921E+02  0.29452784507E+01  0.25911060985E+02  0.51100000000E-03 0.  1.
         12    1    3    3    0    0  0.24666497335E+02  0.11298128574E+02 -0.11494140649E+02  0.29465217958E+02  0.00000000000E+00 0. -1.
</event>
<event>
 7    1  0.2941727E-013  0.7246154E+02  0.7816164E-02  0.1226708E+00
        -11   -1    0    0    0    0  0.00000000000E+00  0.00000000000E+00  0.45593999997E+02  0.45594000000E+02  0.51100000000E-03 0.  1.
         11   -1    0    0    0    0 -0.00000000000E+00 -0.00000000000E+00 -0.45593999997E+02  0.45594000000E+02  0.51100000000E-03 0. -1.
    9900012    2    1    2    0    0  0.16038874509E+02 -0.95295941310E+01  0.16191957184E+01  0.72461535983E+02  0.69999955303E+02 0.  0.
         12    1    1    2    0    0 -0.16038874509E+02  0.95295941310E+01 -0.16191957184E+01  0.18726464017E+02  0.00000000000E+00 0. -1.
         11    1    3    3    0    0 -0.10741544101E+02 -0.10802548112E+02 -0.20240731104E+02  0.25333041887E+02  0.51100000000E-03 0. -1.
        -11    1    3    3    0    0 -0.49948615388E+01 -0.21357273061E+01 -0.33867546524E+01  0.64015685777E+01  0.51100000000E-03 0.  1.
        -12    1    3    3    0    0  0.31775280149E+02  0.34086812867E+01  0.25246681474E+02  0.40726925518E+02  0.00000000000E+00 0.  1.
</event>
<event>
 7    1  0.2941727E-013  0.7246161E+02  0.7816164E-02  0.1226708E+00
        -11   -1    0    0    0    0  0.00000000000E+00  0.00000000000E+00  0.45593999997E+02  0.45594000000E+02  0.51100000000E-03 0.  1.
         11   -1    0    0    0    0 -0.00000000000E+00 -0.00000000000E+00 -0.45593999997E+02  0.45594000000E+02  0.51100000000E-03 0. -1.
    9900012    2    1    2    0    0 -0.85050139185E+01  0.15185972812E+02  0.69085888629E+01  0.72461611344E+02  0.70000053475E+02 0.  0.
         12    1    1    2    0    0  0.85050139185E+01 -0.15185972812E+02 -0.69085888629E+01  0.18726388656E+02  0.00000000000E+00 0. -1.
         11    1    3    3    0    0 -0.16552124533E+02 -0.73514758872E+01 -0.41630388002E+01  0.18583538861E+02  0.51100000000E-03 0. -1.
        -11    1    3    3    0    0 -0.29854926673E+01 -0.13863286236E+02  0.63928347496E+01  0.15555455896E+02  0.51100000000E-03 0.  1.
        -12    1    3    3    0    0  0.11032603282E+02  0.36400734936E+02  0.46787929135E+01  0.38322616588E+02  0.00000000000E+00 0.  1.
</event>
<event>
 7    1  0.2941727E-013  0.7246155E+02  0.7816164E-02  0.1226708E+00
        -11   -1    0    0    0    0  0.00000000000E+00  0.00000000000E+00  0.45593999997E+02  0.45594000000E+02  0.51100000000E-03 0.  1.
         11   -1    0    0    0    0 -0.00000000000E+00 -0.00000000000E+00 -0.45593999997E+02  0.45594000000E+02  0.51100000000E-03 0. -1.
    9900012    2    1    2    0    0  0.36710798871E+01 -0.91925271843E+01  0.15896559404E+02  0.72461548535E+02  0.69999971654E+02 0.  0.
         12    1    1    2    0    0 -0.36710798871E+01  0.91925271843E+01 -0.15896559404E+02  0.18726451465E+02  0.00000000000E+00 0. -1.
         11    1    3    3    0    0  0.35796360004E+01  0.18869634319E+02 -0.64027241417E+01  0.20245290068E+02  0.51100000000E-03 0. -1.
        -11    1    3    3    0    0  0.14550868554E+02 -0.13228296961E+02  0.24464387646E+02  0.31388244286E+02  0.51100000000E-03 0.  1.
         12    1    3    3    0    0 -0.14459424668E+02 -0.14833864542E+02 -0.21651041001E+01  0.20828014181E+02  0.00000000000E+00 0. -1.
</event>
<event>
 7    1  0.2941727E-013  0.7246138E+02  0.7816164E-02  0.1226709E+00
        -11   -1    0    0    0    0  0.00000000000E+00  0.00000000000E+00  0.45593999997E+02  0.45594000000E+02  0.51100000000E-03 0. -1.
         11   -1    0    0    0    0 -0.00000000000E+00 -0.00000000000E+00 -0.45593999997E+02  0.45594000000E+02  0.51100000000E-03 0.  1.
    9900012    2    1    2    0    0 -0.10796783066E+02  0.15060991160E+02  0.26985429781E+01  0.72461384889E+02  0.69999758475E+02 0.  0.
         12    1    1    2    0    0  0.10796783066E+02 -0.15060991160E+02 -0.26985429781E+01  0.18726615111E+02  0.00000000000E+00 0. -1.
         11    1    3    3    0    0  0.18043358786E+01 -0.13070454077E+02 -0.19109465176E+02  0.23222059713E+02  0.51100000000E-03 0. -1.
        -11    1    3    3    0    0 -0.13451372797E+02 -0.21938387083E+01  0.88514705449E+01  0.16251181172E+02  0.51100000000E-03 0.  1.
         12    1    3    3    0    0  0.85025385225E+00  0.30325283946E+02  0.12956537610E+02  0.32988144004E+02  0.00000000000E+00 0. -1.
</event>
<event>
 7    1  0.2941727E-013  0.7246158E+02  0.7816164E-02  0.1226708E+00
        -11   -1    0    0    0    0  0.00000000000E+00  0.00000000000E+00  0.45593999997E+02  0.45594000000E+02  0.51100000000E-03 0.  1.
         11   -1    0    0    0    0 -0.00000000000E+00 -0.00000000000E+00 -0.45593999997E+02  0.45594000000E+02  0.51100000000E-03 0. -1.
    9900012    2    1    2    0    0 -0.12746939492E+02 -0.89171652606E+01 -0.10424890685E+02  0.72461584206E+02  0.70000018123E+02 0.  0.
         12    1    1    2    0    0  0.12746939492E+02  0.89171652606E+01  0.10424890685E+02  0.18726415794E+02  0.00000000000E+00 0. -1.
         11    1    3    3    0    0 -0.42923235798E+01 -0.25066692164E+02  0.21721431378E+01  0.25524131794E+02  0.51100000000E-03 0. -1.
        -11    1    3    3    0    0 -0.19275412904E+02 -0.33338530385E+01  0.29237786162E+01  0.19778892799E+02  0.51100000000E-03 0.  1.
        -12    1    3    3    0    0  0.10820796992E+02  0.19483379942E+02 -0.15520812438E+02  0.27158559613E+02  0.00000000000E+00 0.  1.
</event>
<event>
 7    1  0.2941727E-013  0.7246172E+02  0.7816164E-02  0.1226708E+00
        -11   -1    0    0    0    0  0.00000000000E+00  0.00000000000E+00  0.45593999997E+02  0.45594000000E+02  0.51100000000E-03 0. -1.
         11   -1    0    0    0    0 -0.00000000000E+00 -0.00000000000E+00 -0.45593999997E+02  0.45594000000E+02  0.51100000000E-03 0.  1.
    9900012    2    1    2    0    0  0.18080601746E+02  0.36443220402E+01 -0.32379368228E+01  0.72461722274E+02  0.70000197981E+02 0.  0.
         12    1    1    2    0    0 -0.18080601746E+02 -0.36443220402E+01  0.32379368228E+01  0.18726277726E+02  0.00000000000E+00 0. -1.
         11    1    3    3    0    0  0.83169729244E+01 -0.32223266746E+01  0.21909516944E+02  0.23655493248E+02  0.51100000000E-03 0. -1.
        -11    1    3    3    0    0 -0.15025970398E+02  0.25664667266E+01 -0.35581359038E+01  0.15653334125E+02  0.51100000000E-03 0.  1.
        -12    1    3    3    0    0  0.24789599219E+02  0.43001819882E+01 -0.21589317863E+02  0.33152894901E+02  0.00000000000E+00 0.  1.
</event>
<event>
 7    1  0.2941727E-013  0.7246156E+02  0.7816164E-02  0.1226708E+00
        -11   -1    0    0    0    0  0.00000000000E+00  0.00000000000E+00  0.45593999997E+02  0.45594000000E+02  0.51100000000E-03 0.  1.
         11   -1    0    0    0    0 -0.00000000000E+00 -0.00000000000E+00 -0.45593999997E+02  0.45594000000E+02  0.51100000000E-03 0. -1.
    9900012    2    1    2    0    0 -0.40425239413E+01 -0.22651719657E+01  0.18144054153E+02  0.72461555998E+02  0.69999981376E+02 0.  0.
         12    1    1    2    0    0  0.40425239413E+01  0.22651719657E+01 -0.18144054153E+02  0.18726444002E+02  0.00000000000E+00 0. -1.
         11    1    3    3    0    0 -0.25441003636E+01 -0.34640113903E+00  0.46489394370E+01  0.53108453714E+01  0.51100000000E-03 0. -1.
        -11    1    3    3    0    0 -0.31652287984E+02 -0.55763416234E+01 -0.35248147694E+01  0.32332448716E+02  0.51100000000E-03 0.  1.
        -12    1    3    3    0    0  0.30153864406E+02  0.36575707967E+01  0.17019929486E+02  0.34818261911E+02  0.00000000000E+00 0.  1.
</event>
<event>
 7    1  0.2941727E-013  0.7246151E+02  0.7816164E-02  0.1226708E+00
        -11   -1    0    0    0    0  0.00000000000E+00  0.00000000000E+00  0.45593999997E+02  0.45594000000E+02  0.51100000000E-03 0. -1.
         11   -1    0    0    0    0 -0.00000000000E+00 -0.00000000000E+00 -0.45593999997E+02  0.45594000000E+02  0.51100000000E-03 0.  1.
    9900012    2    1    2    0    0 -0.50876646220E+01  0.82565251030E+01 -0.16019581549E+02  0.72461507240E+02  0.69999917860E+02 0.  0.
         12    1    1    2    0    0  0.50876646220E+01 -0.82565251030E+01  0.16019581549E+02  0.18726492760E+02  0.00000000000E+00 0. -1.
         11    1    3    3    0    0  0.34556688256E+01  0.25523506520E+01  0.18588885413E+02  0.19078857462E+02  0.51100000000E-03 0. -1.
        -11    1    3    3    0    0  0.95942361353E+01 -0.58350685228E+01  0.15306395500E+01  0.11333148255E+02  0.51100000000E-03 0.  1.
        -12    1    3    3    0    0 -0.18137569583E+02  0.11539242974E+02 -0.36139106512E+02  0.42049501523E+02  0.00000000000E+00 0.  1.
</event>
<event>
 7    1  0.2941727E-013  0.7246154E+02  0.7816164E-02  0.1226708E+00
        -11   -1    0    0    0    0  0.00000000000E+00  0.00000000000E+00  0.45593999997E+02  0.45594000000E+02  0.51100000000E-03 0. -1.
         11   -1    0    0    0    0 -0.00000000000E+00 -0.00000000000E+00 -0.45593999997E+02  0.45594000000E+02  0.51100000000E-03 0.  1.
    9900012    2    1    2    0    0 -0.81521605531E+01 -0.12272497835E+02 -0.11558912595E+02  0.72461537836E+02  0.69999957717E+02 0.  0.
         12    1    1    2    0    0  0.81521605531E+01  0.12272497835E+02  0.11558912595E+02  0.18726462164E+02  0.00000000000E+00 0. -1.
         11    1    3    3    0    0  0.11407948514E+02 -0.10700142756E+02 -0.94200985743E+01  0.18258493960E+02  0.51100000000E-03 0. -1.
        -11    1    3    3    0    0 -0.84360437745E+01 -0.25900707496E+02 -0.32242358474E+01  0.27430078024E+02  0.51100000000E-03 0.  1.
        -12    1    3    3    0    0 -0.11124065292E+02  0.24328352417E+02  0.10854218263E+01  0.26772965852E+02  0.00000000000E+00 0.  1.
</event>
<event>
 7    1  0.2941727E-013  0.7246156E+02  0.7816164E-02  0.1226708E+00
        -11   -1    0    0    0    0  0.00000000000E+00  0.00000000000E+00  0.45593999997E+02  0.45594000000E+02  0.51100000000E-03 0.  1.
         11   -1    0    0    0    0 -0.00000000000E+00 -0.00000000000E+00 -0.45593999997E+02  0.45594000000E+02  0.51100000000E-03 0. -1.
    9900012    2    1    2    0    0 -0.42222360817E+01  0.21493985794E+00  0.18242971476E+02  0.72461561872E+02  0.69999989028E+02 0.  0.
         12    1    1    2    0    0  0.42222360817E+01 -0.21493985794E+00 -0.18242971476E+02  0.18726438128E+02  0.00000000000E+00 0. -1.
         11    1    3    3    0    0 -0.19736387358E+02  0.32222083124E+01  0.17743371286E+01  0.20076251763E+02  0.51100000000E-03 0. -1.
        -11    1    3    3    0    0  0.38009711355E+01  0.17199889231E+02 -0.72944364717E+01  0.19065475993E+02  0.51100000000E-03 0.  1.
        -12    1    3    3    0    0  0.11713180141E+02 -0.20207157686E+02  0.23763070819E+02  0.33319834116E+02  0.00000000000E+00 0.  1.
</event>
<event>
 7    1  0.2941727E-013  0.7246155E+02  0.7816164E-02  0.1226708E+00
        -11   -1    0    0    0    0  0.00000000000E+00  0.00000000000E+00  0.45593999997E+02  0.45594000000E+02  0.51100000000E-03 0.  1.
         11   -1    0    0    0    0 -0.00000000000E+00 -0.00000000000E+00 -0.45593999997E+02  0.45594000000E+02  0.51100000000E-03 0. -1.
    9900012    2    1    2    0    0 -0.41637822419E+01  0.11835986659E+02  0.13901517691E+02  0.72461551942E+02  0.69999976093E+02 0.  0.
         12    1    1    2    0    0  0.41637822419E+01 -0.11835986659E+02 -0.13901517691E+02  0.18726448058E+02  0.00000000000E+00 0. -1.
         11    1    3    3    0    0  0.61195089050E+01  0.25502116573E+01  0.10084779135E+01  0.67058926847E+01  0.51100000000E-03 0. -1.
        -11    1    3    3    0    0  0.12017015445E+02  0.12536418152E+02  0.31869816229E+02  0.36294016407E+02  0.51100000000E-03 0.  1.
        -12    1    3    3    0    0 -0.22300306592E+02 -0.32506431505E+01 -0.18976776451E+02  0.29461642850E+02  0.00000000000E+00 0.  1.
</event>
<event>
 7    1  0.2941727E-013  0.7246160E+02  0.7816164E-02  0.1226708E+00
        -11   -1    0    0    0    0  0.00000000000E+00  0.00000000000E+00  0.45593999997E+02  0.45594000000E+02  0.51100000000E-03 0.  1.
         11   -1    0    0    0    0 -0.00000000000E+00 -0.00000000000E+00 -0.45593999997E+02  0.45594000000E+02  0.51100000000E-03 0. -1.
    9900012    2    1    2    0    0  0.13369146020E+02  0.34766663682E+01  0.12643446030E+02  0.72461601471E+02  0.70000040614E+02 0.  0.
         12    1    1    2    0    0 -0.13369146020E+02 -0.34766663682E+01 -0.12643446030E+02  0.18726398529E+02  0.00000000000E+00 0. -1.
         11    1    3    3    0    0 -0.68354646093E+01 -0.14204591701E+02  0.53424454730E+01  0.16644390217E+02  0.51100000000E-03 0. -1.
        -11    1    3    3    0    0  0.15533028240E+02  0.12729468481E+02  0.27755817955E+02  0.34259301872E+02  0.51100000000E-03 0.  1.
         12    1    3    3    0    0  0.46715823894E+01  0.49517895879E+01 -0.20454817398E+02  0.21557909382E+02  0.00000000000E+00 0. -1.
</event>
<event>
 7    1  0.3119596E-013  0.7246159E+02  0.7816164E-02  0.1226708E+00
        -11   -1    0    0    0    0  0.00000000000E+00  0.00000000000E+00  0.45593999997E+02  0.45594000000E+02  0.51100000000E-03 0. -1.
         11   -1    0    0    0    0 -0.00000000000E+00 -0.00000000000E+00 -0.45593999997E+02  0.45594000000E+02  0.51100000000E-03 0.  1.
    9900012    2    1    2    0    0  0.78011323377E+01 -0.51511363563E+01 -0.16226113012E+02  0.72461585101E+02  0.70000019288E+02 0.  0.
         12    1    1    2    0    0 -0.78011323377E+01  0.51511363563E+01  0.16226113012E+02  0.18726414899E+02  0.00000000000E+00 0. -1.
         11    1    3    3    0    0  0.29334564900E+00 -0.37775503270E+01  0.16672557785E+02  0.17097664212E+02  0.51100000000E-03 0. -1.
        -11    1    3    3    0    0  0.45247664605E+01 -0.15089476014E+02  0.36861577652E+01  0.16178799623E+02  0.51100000000E-03 0.  1.
        -12    1    3    3    0    0  0.29830202282E+01  0.13715889985E+02 -0.36584828562E+02  0.39185121266E+02  0.00000000000E+00 0.  1.
</event>
<event>
 7    1  0.2941727E-013  0.7246157E+02  0.7816164E-02  0.1226708E+00
        -11   -1    0    0    0    0  0.00000000000E+00  0.00000000000E+00  0.45593999997E+02  0.45594000000E+02  0.51100000000E-03 0. -1.
         11   -1    0    0    0    0 -0.00000000000E+00 -0.00000000000E+00 -0.45593999997E+02  0.45594000000E+02  0.51100000000E-03 0.  1.
    9900012    2    1    2    0    0  0.13508159639E+02  0.79450340564E+01 -0.10251109315E+02  0.72461569876E+02  0.69999999455E+02 0.  0.
         12    1    1    2    0    0 -0.13508159639E+02 -0.79450340564E+01  0.10251109315E+02  0.18726430124E+02  0.00000000000E+00 0. -1.
         11    1    3    3    0    0  0.17128317360E+02 -0.13649900181E+01  0.23139201499E+02  0.28821261243E+02  0.51100000000E-03 0. -1.
        -11    1    3    3    0    0 -0.56826938337E+01  0.74697777633E+01  0.72460980083E+00  0.94135885115E+01  0.51100000000E-03 0.  1.
        -12    1    3    3    0    0  0.20625361125E+01  0.18402463112E+01 -0.34114920616E+02  0.34226720122E+02  0.00000000000E+00 0.  1.
</event>
<event>
 7    1  0.2941727E-013  0.7246148E+02  0.7816164E-02  0.1226708E+00
        -11   -1    0    0    0    0  0.00000000000E+00  0.00000000000E+00  0.45593999997E+02  0.45594000000E+02  0.51100000000E-03 0.  1.
         11   -1    0    0    0    0 -0.00000000000E+00 -0.00000000000E+00 -0.45593999997E+02  0.45594000000E+02  0.51100000000E-03 0. -1.
    9900012    2    1    2    0    0 -0.14343497674E+02  0.52077166189E+01  0.10854779750E+02  0.72461481868E+02  0.69999884809E+02 0.  0.
         12    1    1    2    0    0  0.14343497674E+02 -0.52077166189E+01 -0.10854779750E+02  0.18726518132E+02  0.00000000000E+00 0. -1.
         11    1    3    3    0    0  0.56386068822E+01 -0.34176011731E+01  0.91391283273E+01  0.11269319065E+02  0.51100000000E-03 0. -1.
        -11    1    3    3    0    0  0.15233018059E+02 -0.12092600632E+02  0.53545160548E+01  0.20172919265E+02  0.51100000000E-03 0.  1.
         12    1    3    3    0    0 -0.35215122616E+02  0.20717918424E+02 -0.36388646323E+01  0.41019243538E+02  0.00000000000E+00 0. -1.
</event>
<event>
 7    1  0.2941727E-013  0.7246154E+02  0.7816164E-02  0.1226708E+00
        -11   -1    0    0    0    0  0.00000000000E+00  0.00000000000E+00  0.45593999997E+02  0.45594000000E+02  0.51100000000E-03 0.  1.
         11   -1    0    0    0    0 -0.00000000000E+00 -0.00000000000E+00 -0.45593999997E+02  0.45594000000E+02  0.51100000000E-03 0. -1.
    9900012    2    1    2    0    0 -0.18212752931E+01  0.14443009124E+02 -0.11779753822E+02  0.72461543946E+02  0.69999965676E+02 0.  0.
         12    1    1    2    0    0  0.18212752931E+01 -0.14443009124E+02  0.11779753822E+02  0.18726456054E+02  0.00000000000E+00 0. -1.
         11    1    3    3    0    0 -0.12080175524E+02 -0.62820868929E+01 -0.16398644700E+02  0.21314567898E+02  0.51100000000E-03 0. -1.
        -11    1    3    3    0    0 -0.14380553992E+02 -0.73001382700E+00  0.10667835948E+02  0.17920267224E+02  0.51100000000E-03 0.  1.
        -12    1    3    3    0    0  0.24639454223E+02  0.21455109844E+02 -0.60489450696E+01  0.33226708824E+02  0.00000000000E+00 0.  1.
</event>
<event>
 7    1  0.2941727E-013  0.7246153E+02  0.7816164E-02  0.1226708E+00
        -11   -1    0    0    0    0  0.00000000000E+00  0.00000000000E+00  0.45593999997E+02  0.45594000000E+02  0.51100000000E-03 0.  1.
         11   -1    0    0    0    0 -0.00000000000E+00 -0.00000000000E+00 -0.45593999997E+02  0.45594000000E+02  0.51100000000E-03 0. -1.
    9900012    2    1    2    0    0 -0.13198098167E+01  0.21340739881E+01  0.18557603739E+02  0.72461526059E+02  0.69999942375E+02 0.  0.
         12    1    1    2    0    0  0.13198098167E+01 -0.21340739881E+01 -0.18557603739E+02  0.18726473941E+02  0.00000000000E+00 0. -1.
         11    1    3    3    0    0  0.73882654147E+01  0.52693558431E+01  0.18818571021E+02  0.20892371631E+02  0.51100000000E-03 0. -1.
        -11    1    3    3    0    0 -0.18056697845E+02  0.16646960997E+02  0.11058785631E+02  0.26934408985E+02  0.51100000000E-03 0.  1.
        -12    1    3    3    0    0  0.93486226133E+01 -0.19782242852E+02 -0.11319752913E+02  0.24634745443E+02  0.00000000000E+00 0.  1.
</event>
<event>
 7    1  0.2941727E-013  0.7246156E+02  0.7816164E-02  0.1226708E+00
        -11   -1    0    0    0    0  0.00000000000E+00  0.00000000000E+00  0.45593999997E+02  0.45594000000E+02  0.51100000000E-03 0. -1.
         11   -1    0    0    0    0 -0.00000000000E+00 -0.00000000000E+00 -0.45593999997E+02  0.45594000000E+02  0.51100000000E-03 0.  1.
    9900012    2    1    2    0    0 -0.77681119709E+01  0.14440907040E+02 -0.90441186611E+01  0.72461563017E+02  0.69999990519E+02 0.  0.
         12    1    1    2    0    0  0.77681119709E+01 -0.14440907040E+02  0.90441186611E+01  0.18726436983E+02  0.00000000000E+00 0. -1.
         11    1    3    3    0    0  0.16951612886E+01 -0.96285523859E+01 -0.55589610700E+01  0.11246539080E+02  0.51100000000E-03 0. -1.
        -11    1    3    3    0    0 -0.17164719390E+02  0.14092370037E+02 -0.26742657021E+02  0.34761935933E+02  0.51100000000E-03 0.  1.
         12    1    3    3    0    0  0.77014461302E+01  0.99770893894E+01  0.23257499430E+02  0.26453088004E+02  0.00000000000E+00 0. -1.
</event>
<event>
 7    1  0.2941727E-013  0.7246157E+02  0.7816164E-02  0.1226708E+00
        -11   -1    0    0    0    0  0.00000000000E+00  0.00000000000E+00  0.45593999997E+02  0.45594000000E+02  0.51100000000E-03 0.  1.
         11   -1    0    0    0    0 -0.00000000000E+00 -0.00000000000E+00 -0.45593999997E+02  0.45594000000E+02  0.51100000000E-03 0. -1.
    9900012    2    1    2    0    0 -0.12473780506E+02 -0.44115502620E+01  0.13252255601E+02  0.72461568030E+02  0.69999997050E+02 0.  0.
         12    1    1    2    0    0  0.12473780506E+02  0.44115502620E+01 -0.13252255601E+02  0.18726431970E+02  0.00000000000E+00 0. -1.
         11    1    3    3    0    0 -0.61626385654E+01 -0.35446569275E+01  0.14502195848E+01  0.72557455804E+01  0.51100000000E-03 0. -1.
        -11    1    3    3    0    0 -0.26891033769E+02 -0.68756404288E+01 -0.14465793713E+02  0.31299541793E+02  0.51100000000E-03 0.  1.
        -12    1    3    3    0    0  0.20579891828E+02  0.60087470943E+01  0.26267829729E+02  0.33906280656E+02  0.00000000000E+00 0.  1.
</event>
<event>
 7    1  0.2941727E-013  0.7246157E+02  0.7816164E-02  0.1226708E+00
        -11   -1    0    0    0    0  0.00000000000E+00  0.00000000000E+00  0.45593999997E+02  0.45594000000E+02  0.51100000000E-03 0. -1.
         11   -1    0    0    0    0 -0.00000000000E+00 -0.00000000000E+00 -0.45593999997E+02  0.45594000000E+02  0.51100000000E-03 0.  1.
    9900012    2    1    2    0    0 -0.10750064383E+02  0.15056299304E+02 -0.29022542468E+01  0.72461571812E+02  0.70000001977E+02 0.  0.
         12    1    1    2    0    0  0.10750064383E+02 -0.15056299304E+02  0.29022542468E+01  0.18726428188E+02  0.00000000000E+00 0. -1.
         11    1    3    3    0    0  0.11831045433E+02 -0.13745955366E+02  0.11404246790E+02  0.21423859831E+02  0.51100000000E-03 0. -1.
        -11    1    3    3    0    0 -0.73961585373E+01 -0.29815489762E+01  0.63579615162E+01  0.10198846519E+02  0.51100000000E-03 0.  1.
        -12    1    3    3    0    0 -0.15184951279E+02  0.31783803647E+02 -0.20664462553E+02  0.40838865462E+02  0.00000000000E+00 0.  1.
</event>
<event>
 7    1  0.2941727E-013  0.7246157E+02  0.7816164E-02  0.1226708E+00
        -11   -1    0    0    0    0  0.00000000000E+00  0.00000000000E+00  0.45593999997E+02  0.45594000000E+02  0.51100000000E-03 0.  1.
         11   -1    0    0    0    0 -0.00000000000E+00 -0.00000000000E+00 -0.45593999997E+02  0.45594000000E+02  0.51100000000E-03 0. -1.
    9900012    2    1    2    0    0 -0.83788188098E+01  0.10714422736E+02  0.12871504052E+02  0.72461572797E+02  0.70000003261E+02 0.  0.
         12    1    1    2    0    0  0.83788188098E+01 -0.10714422736E+02 -0.12871504052E+02  0.18726427203E+02  0.00000000000E+00 0. -1.
         11    1    3    3    0    0 -0.17942787051E+02  0.21406174642E+02 -0.48174577574E+01  0.28343885045E+02  0.51100000000E-03 0. -1.
        -11    1    3    3    0    0 -0.12864118956E+02  0.12305189080E+01 -0.40950171997E+00  0.12929324236E+02  0.51100000000E-03 0.  1.
         12    1    3    3    0    0  0.22428087197E+02 -0.11922270814E+02  0.18098463529E+02  0.31188363516E+02  0.00000000000E+00 0. -1.
</event>
<event>
 7    1  0.2941727E-013  0.7246159E+02  0.7816164E-02  0.1226708E+00
        -11   -1    0    0    0    0  0.00000000000E+00  0.00000000000E+00  0.45593999997E+02  0.45594000000E+02  0.51100000000E-03 0.  1.
         11   -1    0    0    0    0 -0.00000000000E+00 -0.00000000000E+00 -0.45593999997E+02  0.45594000000E+02  0.51100000000E-03 0. -1.
    9900012    2    1    2    0    0 -0.11897734123E+02  0.11727876056E+02  0.84604504761E+01  0.72461591473E+02  0.70000027590E+02 0.  0.
         12    1    1    2    0    0  0.11897734123E+02 -0.11727876056E+02 -0.84604504761E+01  0.18726408527E+02  0.00000000000E+00 0. -1.
         11    1    3    3    0    0  0.29866181191E+01  0.20043474055E+00 -0.19721221273E+02  0.19947095794E+02  0.51100000000E-03 0. -1.
        -11    1    3    3    0    0 -0.88996288574E+01  0.26611711052E+02  0.18677159426E+02  0.33707904761E+02  0.51100000000E-03 0.  1.
         12    1    3    3    0    0 -0.59847233852E+01 -0.15084269736E+02  0.95045123228E+01  0.18806590918E+02  0.00000000000E+00 0. -1.
</event>
<event>
 7    1  0.2941727E-013  0.7246154E+02  0.7816164E-02  0.1226708E+00
        -11   -1    0    0    0    0  0.00000000000E+00  0.00000000000E+00  0.45593999997E+02  0.45594000000E+02  0.51100000000E-03 0. -1.
         11   -1    0    0    0    0 -0.00000000000E+00 -0.00000000000E+00 -0.45593999997E+02  0.45594000000E+02  0.51100000000E-03 0.  1.
    9900012    2    1    2    0    0  0.12960325379E+02  0.11447426001E+02 -0.71879601152E+01  0.72461538332E+02  0.69999958363E+02 0.  0.
         12    1    1    2    0    0 -0.12960325379E+02 -0.11447426001E+02  0.71879601152E+01  0.18726461668E+02  0.00000000000E+00 0. -1.
         11    1    3    3    0    0  0.34267568554E+02  0.15714723572E+02 -0.55877067061E+01  0.38110907337E+02  0.51100000000E-03 0. -1.
        -11    1    3    3    0    0  0.52486361024E+01 -0.56372329220E+01 -0.84660229972E+00  0.77487619442E+01  0.51100000000E-03 0.  1.
        -12    1    3    3    0    0 -0.26555879277E+02  0.13699353507E+01 -0.75365110931E+00  0.26601869051E+02  0.00000000000E+00 0.  1.
</event>
<event>
 7    1  0.2941727E-013  0.7246146E+02  0.7816164E-02  0.1226708E+00
        -11   -1    0    0    0    0  0.00000000000E+00  0.00000000000E+00  0.45593999997E+02  0.45594000000E+02  0.51100000000E-03 0. -1.
         11   -1    0    0    0    0 -0.00000000000E+00 -0.00000000000E+00 -0.45593999997E+02  0.45594000000E+02  0.51100000000E-03 0.  1.
    9900012    2    1    2    0    0 -0.73946593710E+01 -0.68488158621E+01 -0.15782772839E+02  0.72461463096E+02  0.69999860355E+02 0.  0.
         12    1    1    2    0    0  0.73946593710E+01  0.68488158621E+01  0.15782772839E+02  0.18726536904E+02  0.00000000000E+00 0. -1.
         11    1    3    3    0    0 -0.11346184741E+01 -0.54843850919E+01 -0.21388642090E+02  0.22109722966E+02  0.51100000000E-03 0. -1.
        -11    1    3    3    0    0  0.19729045678E+02 -0.23846665346E+01 -0.74830771821E+01  0.21234837466E+02  0.51100000000E-03 0.  1.
         12    1    3    3    0    0 -0.25989086575E+02  0.10202357644E+01  0.13088946434E+02  0.29116902664E+02  0.00000000000E+00 0. -1.
</event>
<event>
 7    1  0.2941727E-013  0.7246159E+02  0.7816164E-02  0.1226708E+00
        -11   -1    0    0    0    0  0.00000000000E+00  0.00000000000E+00  0.45593999997E+02  0.45594000000E+02  0.51100000000E-03 0.  1.
         11   -1    0    0    0    0 -0.00000000000E+00 -0.00000000000E+00 -0.45593999997E+02  0.45594000000E+02  0.51100000000E-03 0. -1.
    9900012    2    1    2    0    0 -0.50264214641E+01  0.26049697221E+01  0.17850148290E+02  0.72461586196E+02  0.70000020715E+02 0.  0.
         12    1    1    2    0    0  0.50264214641E+01 -0.26049697221E+01 -0.17850148290E+02  0.18726413804E+02  0.00000000000E+00 0. -1.
         11    1    3    3    0    0 -0.24787564329E+02 -0.53974743741E+01  0.36329341973E+01  0.25627217682E+02  0.51100000000E-03 0. -1.
        -11    1    3    3    0    0 -0.40134025569E+01  0.28104094507E+01 -0.10845706942E+02  0.11901057125E+02  0.51100000000E-03 0.  1.
        -12    1    3    3    0    0  0.23774545422E+02  0.51920346456E+01  0.25062921035E+02  0.34933311389E+02  0.00000000000E+00 0.  1.
</event>
<event>
 7    1  0.2941727E-013  0.7246166E+02  0.7816164E-02  0.1226708E+00
        -11   -1    0    0    0    0  0.00000000000E+00  0.00000000000E+00  0.45593999997E+02  0.45594000000E+02  0.51100000000E-03 0.  1.
         11   -1    0    0    0    0 -0.00000000000E+00 -0.00000000000E+00 -0.45593999997E+02  0.45594000000E+02  0.51100000000E-03 0. -1.
    9900012    2    1    2    0    0 -0.37311761113E+01  0.13144121893E+02  0.12805704404E+02  0.72461663444E+02  0.70000121345E+02 0.  0.
         12    1    1    2    0    0  0.37311761113E+01 -0.13144121893E+02 -0.12805704404E+02  0.18726336556E+02  0.00000000000E+00 0. -1.
         11    1    3    3    0    0 -0.12922414089E+02  0.26300200791E+01  0.17894759045E+02  0.22228994423E+02  0.51100000000E-03 0. -1.
        -11    1    3    3    0    0  0.14027453882E+02 -0.62946505728E+01  0.16430010377E+02  0.22501940572E+02  0.51100000000E-03 0.  1.
         12    1    3    3    0    0 -0.48362159036E+01  0.16808752387E+02 -0.21519065019E+02  0.27730728450E+02  0.00000000000E+00 0. -1.
</event>
<event>
 7    1  0.2941727E-013  0.7246154E+02  0.7816164E-02  0.1226708E+00
        -11   -1    0    0    0    0  0.00000000000E+00  0.00000000000E+00  0.45593999997E+02  0.45594000000E+02  0.51100000000E-03 0. -1.
         11   -1    0    0    0    0 -0.00000000000E+00 -0.00000000000E+00 -0.45593999997E+02  0.45594000000E+02  0.51100000000E-03 0.  1.
    9900012    2    1    2    0    0 -0.98555874141E+01 -0.10129832422E+02 -0.12285526556E+02  0.72461540887E+02  0.69999961691E+02 0.  0.
         12    1    1    2    0    0  0.98555874141E+01  0.10129832422E+02  0.12285526556E+02  0.18726459113E+02  0.00000000000E+00 0. -1.
         11    1    3    3    0    0  0.77929963517E+01 -0.11147074526E+01 -0.23352156076E+02  0.24643387724E+02  0.51100000000E-03 0. -1.
        -11    1    3    3    0    0 -0.14091757106E+02  0.25656847993E+01 -0.13967795103E+02  0.20006490375E+02  0.51100000000E-03 0.  1.
         12    1    3    3    0    0 -0.35568266597E+01 -0.11580809769E+02  0.25034424624E+02  0.27811662788E+02  0.00000000000E+00 0. -1.
</event>
<event>
 7    1  0.2941727E-013  0.7246160E+02  0.7816164E-02  0.1226708E+00
        -11   -1    0    0    0    0  0.00000000000E+00  0.00000000000E+00  0.45593999997E+02  0.45594000000E+02  0.51100000000E-03 0.  1.
         11   -1    0    0    0    0 -0.00000000000E+00 -0.00000000000E+00 -0.45593999997E+02  0.45594000000E+02  0.51100000000E-03 0. -1.
    9900012    2    1    2    0    0 -0.15068244379E+02  0.62546495943E+01 -0.91926779632E+01  0.72461602633E+02  0.70000042127E+02 0.  0.
         12    1    1    2    0    0  0.15068244379E+02 -0.62546495943E+01  0.91926779632E+01  0.18726397367E+02  0.00000000000E+00 0. -1.
         11    1    3    3    0    0  0.65362714952E+01  0.12772243527E+02  0.20264738282E+01  0.14489984342E+02  0.51100000000E-03 0. -1.
        -11    1    3    3    0    0  0.15203186643E+02  0.37392085087E+00 -0.13664000193E+02  0.20444598368E+02  0.51100000000E-03 0.  1.
         12    1    3    3    0    0 -0.36807702517E+02 -0.68915147841E+01  0.24448484016E+01  0.37527019923E+02  0.00000000000E+00 0. -1.
</event>
<event>
 7    1  0.2941727E-013  0.7246130E+02  0.7816164E-02  0.1226709E+00
        -11   -1    0    0    0    0  0.00000000000E+00  0.00000000000E+00  0.45593999997E+02  0.45594000000E+02  0.51100000000E-03 0.  1.
         11   -1    0    0    0    0 -0.00000000000E+00 -0.00000000000E+00 -0.45593999997E+02  0.45594000000E+02  0.51100000000E-03 0. -1.
    9900012    2    1    2    0    0 -0.10293537368E+02  0.11216042375E+02  0.10905631994E+02  0.72461299081E+02  0.69999646694E+02 0.  0.
         12    1    1    2    0    0  0.10293537368E+02 -0.11216042375E+02 -0.10905631994E+02  0.18726700919E+02  0.00000000000E+00 0. -1.
         11    1    3    3    0    0 -0.85825406242E+01  0.11874188959E+02 -0.47012931912E+00  0.14658696696E+02  0.51100000000E-03 0. -1.
        -11    1    3    3    0    0 -0.19606080801E+02  0.13990685906E+02  0.21752792856E+02  0.32454917868E+02  0.51100000000E-03 0.  1.
         12    1    3    3    0    0  0.17895084057E+02 -0.14648832490E+02 -0.10377031543E+02  0.25347684517E+02  0.00000000000E+00 0. -1.
</event>
<event>
 7    1  0.2941727E-013  0.7246167E+02  0.7816164E-02  0.1226708E+00
        -11   -1    0    0    0    0  0.00000000000E+00  0.00000000000E+00  0.45593999997E+02  0.45594000000E+02  0.51100000000E-03 0.  1.
         11   -1    0    0    0    0 -0.00000000000E+00 -0.00000000000E+00 -0.45593999997E+02  0.45594000000E+02  0.51100000000E-03 0. -1.
    9900012    2    1    2    0    0 -0.74823638085E+01 -0.16180930039E+02  0.57329836865E+01  0.72461671822E+02  0.70000132258E+02 0.  0.
         12    1    1    2    0    0  0.74823638085E+01  0.16180930039E+02 -0.57329836865E+01  0.18726328178E+02  0.00000000000E+00 0. -1.
         11    1    3    3    0    0  0.12920476435E+02 -0.10646571031E+02  0.11192607729E+02  0.20138586198E+02  0.51100000000E-03 0. -1.
        -11    1    3    3    0    0 -0.27824815589E+01 -0.10481993745E+01  0.20452806330E+02  0.20667806187E+02  0.51100000000E-03 0.  1.
         12    1    3    3    0    0 -0.17620358685E+02 -0.44861596330E+01 -0.25912430372E+02  0.31655279437E+02  0.00000000000E+00 0. -1.
</event>
<event>
 7    1  0.2941727E-013  0.7246152E+02  0.7816164E-02  0.1226708E+00
        -11   -1    0    0    0    0  0.00000000000E+00  0.00000000000E+00  0.45593999997E+02  0.45594000000E+02  0.51100000000E-03 0. -1.
         11   -1    0    0    0    0 -0.00000000000E+00 -0.00000000000E+00 -0.45593999997E+02  0.45594000000E+02  0.51100000000E-03 0.  1.
    9900012    2    1    2    0    0  0.12847797393E+02  0.13345660236E+02  0.27401884806E+01  0.72461516670E+02  0.69999930145E+02 0.  0.
         12    1    1    2    0    0 -0.12847797393E+02 -0.13345660236E+02 -0.27401884806E+01  0.18726483330E+02  0.00000000000E+00 0. -1.
         11    1    3    3    0    0  0.72454644050E+01 -0.64187471848E+01  0.98877928057E+01  0.13837106515E+02  0.51100000000E-03 0. -1.
        -11    1    3    3    0    0  0.48612203649E+01  0.12028385336E+02  0.23588618605E+02  0.26920929501E+02  0.51100000000E-03 0.  1.
        -12    1    3    3    0    0  0.74111262341E+00  0.77360220844E+01 -0.30736222930E+02  0.31703480655E+02  0.00000000000E+00 0.  1.
</event>
<event>
 7    1  0.2941727E-013  0.7246155E+02  0.7816164E-02  0.1226708E+00
        -11   -1    0    0    0    0  0.00000000000E+00  0.00000000000E+00  0.45593999997E+02  0.45594000000E+02  0.51100000000E-03 0.  1.
         11   -1    0    0    0    0 -0.00000000000E+00 -0.00000000000E+00 -0.45593999997E+02  0.45594000000E+02  0.51100000000E-03 0. -1.
    9900012    2    1    2    0    0  0.49798718569E+01  0.17235014579E+02  0.53698159437E+01  0.72461554141E+02  0.69999978957E+02 0.  0.
         12    1    1    2    0    0 -0.49798718569E+01 -0.17235014579E+02 -0.53698159437E+01  0.18726445859E+02  0.00000000000E+00 0. -1.
         11    1    3    3    0    0  0.12313035781E+02  0.39724800805E+02  0.10423008129E+02  0.42875514549E+02  0.51100000000E-03 0. -1.
        -11    1    3    3    0    0 -0.50476776331E+00  0.16693211503E+01  0.27844447025E+01  0.32855069868E+01  0.51100000000E-03 0.  1.
        -12    1    3    3    0    0 -0.68283961609E+01 -0.24159107376E+02 -0.78376368880E+01  0.26300532605E+02  0.00000000000E+00 0.  1.
</event>
<event>
 7    1  0.2941727E-013  0.7246157E+02  0.7816164E-02  0.1226708E+00
        -11   -1    0    0    0    0  0.00000000000E+00  0.00000000000E+00  0.45593999997E+02  0.45594000000E+02  0.51100000000E-03 0.  1.
         11   -1    0    0    0    0 -0.00000000000E+00 -0.00000000000E+00 -0.45593999997E+02  0.45594000000E+02  0.51100000000E-03 0. -1.
    9900012    2    1    2    0    0  0.10991304920E+02 -0.76375751213E+01  0.13097245535E+02  0.72461570063E+02  0.69999999698E+02 0.  0.
         12    1    1    2    0    0 -0.10991304920E+02  0.76375751213E+01 -0.13097245535E+02  0.18726429937E+02  0.00000000000E+00 0. -1.
         11    1    3    3    0    0  0.31338012573E+02 -0.30285964295E+01 -0.51144178706E+01  0.31896719248E+02  0.51100000000E-03 0. -1.
        -11    1    3    3    0    0  0.34109298897E+00 -0.13661101663E+02  0.68291223645E+01  0.15276745583E+02  0.51100000000E-03 0.  1.
        -12    1    3    3    0    0 -0.20687800641E+02  0.90521229717E+01  0.11382541041E+02  0.25288105232E+02  0.00000000000E+00 0.  1.
</event>
<event>
 7    1  0.2941727E-013  0.7246154E+02  0.7816164E-02  0.1226708E+00
        -11   -1    0    0    0    0  0.00000000000E+00  0.00000000000E+00  0.45593999997E+02  0.45594000000E+02  0.51100000000E-03 0.  1.
         11   -1    0    0    0    0 -0.00000000000E+00 -0.00000000000E+00 -0.45593999997E+02  0.45594000000E+02  0.51100000000E-03 0. -1.
    9900012    2    1    2    0    0  0.77083086799E+01 -0.46551210927E+01  0.16419260528E+02  0.72461540340E+02  0.69999960979E+02 0.  0.
         12    1    1    2    0    0 -0.77083086799E+01  0.46551210927E+01 -0.16419260528E+02  0.18726459660E+02  0.00000000000E+00 0. -1.
         11    1    3    3    0    0  0.16287750006E+02 -0.13083437540E+02  0.21201319526E+02  0.29765132085E+02  0.51100000000E-03 0. -1.
        -11    1    3    3    0    0  0.68731601328E+01 -0.12708323903E+02 -0.76651659749E+01  0.16355323180E+02  0.51100000000E-03 0.  1.
        -12    1    3    3    0    0 -0.15452601459E+02  0.21136640350E+02  0.28831069766E+01  0.26341085076E+02  0.00000000000E+00 0.  1.
</event>
<event>
 7    1  0.2941727E-013  0.7246156E+02  0.7816164E-02  0.1226708E+00
        -11   -1    0    0    0    0  0.00000000000E+00  0.00000000000E+00  0.45593999997E+02  0.45594000000E+02  0.51100000000E-03 0.  1.
         11   -1    0    0    0    0 -0.00000000000E+00 -0.00000000000E+00 -0.45593999997E+02  0.45594000000E+02  0.51100000000E-03 0. -1.
    9900012    2    1    2    0    0  0.14372568295E+02 -0.56837267084E+01 -0.10573748578E+02  0.72461558061E+02  0.69999984064E+02 0.  0.
         12    1    1    2    0    0 -0.14372568295E+02  0.56837267084E+01  0.10573748578E+02  0.18726441939E+02  0.00000000000E+00 0. -1.
         11    1    3    3    0    0 -0.75750919988E+01 -0.39857606326E+01 -0.26955734622E+00  0.85639341447E+01  0.51100000000E-03 0. -1.
        -11    1    3    3    0    0 -0.45210265460E+01 -0.18588202746E+02  0.14401167575E+02  0.23944823870E+02  0.51100000000E-03 0.  1.
        -12    1    3    3    0    0  0.26468686840E+02  0.16890236670E+02 -0.24705358807E+02  0.39952800047E+02  0.00000000000E+00 0.  1.
</event>
<event>
 7    1  0.2941727E-013  0.7246158E+02  0.7816164E-02  0.1226708E+00
        -11   -1    0    0    0    0  0.00000000000E+00  0.00000000000E+00  0.45593999997E+02  0.45594000000E+02  0.51100000000E-03 0. -1.
         11   -1    0    0    0    0 -0.00000000000E+00 -0.00000000000E+00 -0.45593999997E+02  0.45594000000E+02  0.51100000000E-03 0.  1.
    9900012    2    1    2    0    0 -0.16540545969E+02 -0.44170109673E+01  0.75880848878E+01  0.72461583389E+02  0.70000017058E+02 0.  0.
         12    1    1    2    0    0  0.16540545969E+02  0.44170109673E+01 -0.75880848878E+01  0.18726416611E+02  0.00000000000E+00 0. -1.
         11    1    3    3    0    0 -0.37500970876E+02 -0.58232234673E+01  0.19564017308E+02  0.42696411110E+02  0.51100000000E-03 0. -1.
        -11    1    3    3    0    0  0.41340677933E+01 -0.39713091559E+01 -0.10595132312E+02  0.12046519908E+02  0.51100000000E-03 0.  1.
        -12    1    3    3    0    0  0.16826357114E+02  0.53775216560E+01 -0.13808001082E+01  0.17718652370E+02  0.00000000000E+00 0.  1.
</event>
<event>
 7    1  0.2941727E-013  0.7246157E+02  0.7816164E-02  0.1226708E+00
        -11   -1    0    0    0    0  0.00000000000E+00  0.00000000000E+00  0.45593999997E+02  0.45594000000E+02  0.51100000000E-03 0. -1.
         11   -1    0    0    0    0 -0.00000000000E+00 -0.00000000000E+00 -0.45593999997E+02  0.45594000000E+02  0.51100000000E-03 0.  1.
    9900012    2    1    2    0    0  0.10863453969E+02 -0.20756386177E+01 -0.15111462326E+02  0.72461569442E+02  0.69999998890E+02 0.  0.
         12    1    1    2    0    0 -0.10863453969E+02  0.20756386177E+01  0.15111462326E+02  0.18726430558E+02  0.00000000000E+00 0. -1.
         11    1    3    3    0    0  0.13282440117E+02  0.48204463266E+01 -0.13059529987E+01  0.14190328810E+02  0.51100000000E-03 0. -1.
        -11    1    3    3    0    0 -0.45993664795E+01  0.15088995621E+02 -0.27910409616E+02  0.32059677573E+02  0.51100000000E-03 0.  1.
         12    1    3    3    0    0  0.21803803314E+01 -0.21985080566E+02  0.14104900288E+02  0.26211563059E+02  0.00000000000E+00 0. -1.
</event>
<event>
 7    1  0.2941727E-013  0.7246160E+02  0.7816164E-02  0.1226708E+00
        -11   -1    0    0    0    0  0.00000000000E+00  0.00000000000E+00  0.45593999997E+02  0.45594000000E+02  0.51100000000E-03 0. -1.
         11   -1    0    0    0    0 -0.00000000000E+00 -0.00000000000E+00 -0.45593999997E+02  0.45594000000E+02  0.51100000000E-03 0.  1.
    9900012    2    1    2    0    0 -0.98642090984E+01 -0.53043927472E+00 -0.15908930999E+02  0.72461599585E+02  0.70000038157E+02 0.  0.
         12    1    1    2    0    0  0.98642090984E+01  0.53043927472E+00  0.15908930999E+02  0.18726400415E+02  0.00000000000E+00 0. -1.
         11    1    3    3    0    0  0.25694107942E+01  0.12257442252E+02 -0.64223329168E+01  0.14074555864E+02  0.51100000000E-03 0. -1.
        -11    1    3    3    0    0 -0.49696003599E+01  0.19962853885E+02 -0.13427052599E+02  0.24566200453E+02  0.51100000000E-03 0.  1.
        -12    1    3    3    0    0 -0.74640195327E+01 -0.32750735412E+02  0.39404545173E+01  0.33820843269E+02  0.00000000000E+00 0.  1.
</event>
<event>
 7    1  0.2941727E-013  0.7246157E+02  0.7816164E-02  0.1226708E+00
        -11   -1    0    0    0    0  0.00000000000E+00  0.00000000000E+00  0.45593999997E+02  0.45594000000E+02  0.51100000000E-03 0.  1.
         11   -1    0    0    0    0 -0.00000000000E+00 -0.00000000000E+00 -0.45593999997E+02  0.45594000000E+02  0.51100000000E-03 0. -1.
    9900012    2    1    2    0    0  0.31513074936E+01 -0.11785677320E+02  0.14207259301E+02  0.72461570931E+02  0.70000000830E+02 0.  0.
         12    1    1    2    0    0 -0.31513074936E+01  0.11785677320E+02 -0.14207259301E+02  0.18726429069E+02  0.00000000000E+00 0. -1.
         11    1    3    3    0    0  0.72047216437E+01 -0.62218999546E+00  0.13057180503E+01  0.73484715582E+01  0.51100000000E-03 0. -1.
        -11    1    3    3    0    0  0.71404728834E+00 -0.31045884633E+02  0.26277856783E+02  0.40680247953E+02  0.51100000000E-03 0.  1.
         12    1    3    3    0    0 -0.47674614384E+01  0.19882397309E+02 -0.13376315532E+02  0.24432851420E+02  0.00000000000E+00 0. -1.
</event>
<event>
 7    1  0.2941727E-013  0.7246156E+02  0.7816164E-02  0.1226708E+00
        -11   -1    0    0    0    0  0.00000000000E+00  0.00000000000E+00  0.45593999997E+02  0.45594000000E+02  0.51100000000E-03 0.  1.
         11   -1    0    0    0    0 -0.00000000000E+00 -0.00000000000E+00 -0.45593999997E+02  0.45594000000E+02  0.51100000000E-03 0. -1.
    9900012    2    1    2    0    0  0.73972304259E+01 -0.17025954972E+02  0.24652668138E+01  0.72461556100E+02  0.69999981509E+02 0.  0.
         12    1    1    2    0    0 -0.73972304259E+01  0.17025954972E+02 -0.24652668138E+01  0.18726443900E+02  0.00000000000E+00 0. -1.
         11    1    3    3    0    0 -0.66428850365E+00 -0.23985870532E+02  0.32154756142E+01  0.24209554892E+02  0.51100000000E-03 0. -1.
        -11    1    3    3    0    0  0.23078842642E+02 -0.10011989007E+02 -0.35935867918E+01  0.25412334955E+02  0.51100000000E-03 0.  1.
         12    1    3    3    0    0 -0.15017323713E+02  0.16971904567E+02  0.28433779914E+01  0.22839666252E+02  0.00000000000E+00 0. -1.
</event>
<event>
 7    1  0.2941727E-013  0.7246161E+02  0.7816164E-02  0.1226708E+00
        -11   -1    0    0    0    0  0.00000000000E+00  0.00000000000E+00  0.45593999997E+02  0.45594000000E+02  0.51100000000E-03 0. -1.
         11   -1    0    0    0    0 -0.00000000000E+00 -0.00000000000E+00 -0.45593999997E+02  0.45594000000E+02  0.51100000000E-03 0.  1.
    9900012    2    1    2    0    0  0.10865965745E+02  0.12980617654E+02  0.80069951151E+01  0.72461611746E+02  0.70000053999E+02 0.  0.
         12    1    1    2    0    0 -0.10865965745E+02 -0.12980617654E+02 -0.80069951151E+01  0.18726388254E+02  0.00000000000E+00 0. -1.
         11    1    3    3    0    0  0.46759016280E+01  0.78500866776E+01  0.10767958054E+02  0.14122210797E+02  0.51100000000E-03 0. -1.
        -11    1    3    3    0    0  0.12613451057E+02  0.26270325361E+02  0.12267667677E+02  0.31618425208E+02  0.51100000000E-03 0.  1.
        -12    1    3    3    0    0 -0.64233869398E+01 -0.21139794384E+02 -0.15028630616E+02  0.26720975741E+02  0.00000000000E+00 0.  1.
</event>
<event>
 7    1  0.2941727E-013  0.7246159E+02  0.7816164E-02  0.1226708E+00
        -11   -1    0    0    0    0  0.00000000000E+00  0.00000000000E+00  0.45593999997E+02  0.45594000000E+02  0.51100000000E-03 0.  1.
         11   -1    0    0    0    0 -0.00000000000E+00 -0.00000000000E+00 -0.45593999997E+02  0.45594000000E+02  0.51100000000E-03 0. -1.
    9900012    2    1    2    0    0 -0.84967288027E+01 -0.10726929413E+02  0.12783466821E+02  0.72461589801E+02  0.70000025411E+02 0.  0.
         12    1    1    2    0    0  0.84967288027E+01  0.10726929413E+02 -0.12783466821E+02  0.18726410199E+02  0.00000000000E+00 0. -1.
         11    1    3    3    0    0  0.16015815416E+01  0.90930927699E+01 -0.98922064903E+01  0.13531635122E+02  0.51100000000E-03 0. -1.
        -11    1    3    3    0    0 -0.17123461825E+02 -0.26975763720E+02 -0.22820742038E+01  0.32032992931E+02  0.51100000000E-03 0.  1.
         12    1    3    3    0    0  0.70251514809E+01  0.71557415370E+01  0.24957747515E+02  0.26896961749E+02  0.00000000000E+00 0. -1.
</event>
<event>
 7    1  0.2941727E-013  0.7246157E+02  0.7816164E-02  0.1226708E+00
        -11   -1    0    0    0    0  0.00000000000E+00  0.00000000000E+00  0.45593999997E+02  0.45594000000E+02  0.51100000000E-03 0.  1.
         11   -1    0    0    0    0 -0.00000000000E+00 -0.00000000000E+00 -0.45593999997E+02  0.45594000000E+02  0.51100000000E-03 0. -1.
    9900012    2    1    2    0    0 -0.84200404805E+01 -0.90244614732E+01  0.14083360289E+02  0.72461574190E+02  0.70000005075E+02 0.  0.
         12    1    1    2    0    0  0.84200404805E+01  0.90244614732E+01 -0.14083360289E+02  0.18726425810E+02  0.00000000000E+00 0. -1.
         11    1    3    3    0    0 -0.47351045081E+01  0.11215853715E+02  0.78795565950E+01  0.14501862007E+02  0.51100000000E-03 0. -1.
        -11    1    3    3    0    0 -0.11345678580E+02  0.13420963382E+02 -0.95632097399E+01  0.20007540112E+02  0.51100000000E-03 0.  1.
         12    1    3    3    0    0  0.76607426080E+01 -0.33661278570E+02  0.15767013434E+02  0.37952172071E+02  0.00000000000E+00 0. -1.
</event>
<event>
 7    1  0.2941727E-013  0.7246155E+02  0.7816164E-02  0.1226708E+00
        -11   -1    0    0    0    0  0.00000000000E+00  0.00000000000E+00  0.45593999997E+02  0.45594000000E+02  0.51100000000E-03 0.  1.
         11   -1    0    0    0    0 -0.00000000000E+00 -0.00000000000E+00 -0.45593999997E+02  0.45594000000E+02  0.51100000000E-03 0. -1.
    9900012    2    1    2    0    0 -0.15144066353E+02  0.40072599070E+00  0.11008016876E+02  0.72461554460E+02  0.69999979373E+02 0.  0.
         12    1    1    2    0    0  0.15144066353E+02 -0.40072599070E+00 -0.11008016876E+02  0.18726445540E+02  0.00000000000E+00 0. -1.
         11    1    3    3    0    0  0.11765208427E+02 -0.15955302279E+01 -0.72018774986E+01  0.13886428116E+02  0.51100000000E-03 0.  1.
        -11    1    3    3    0    0 -0.79300078245E+01  0.66388173865E+00 -0.16878530256E+02  0.18660400503E+02  0.51100000000E-03 0. -1.
        -12    1    3    3    0    0 -0.18979266956E+02  0.13323744800E+01  0.35088424631E+02  0.39914725841E+02  0.00000000000E+00 0.  1.
</event>
<event>
 7    1  0.2941727E-013  0.7246162E+02  0.7816164E-02  0.1226708E+00
        -11   -1    0    0    0    0  0.00000000000E+00  0.00000000000E+00  0.45593999997E+02  0.45594000000E+02  0.51100000000E-03 0. -1.
         11   -1    0    0    0    0 -0.00000000000E+00 -0.00000000000E+00 -0.45593999997E+02  0.45594000000E+02  0.51100000000E-03 0.  1.
    9900012    2    1    2    0    0 -0.86189733412E+00 -0.10167252834E+02 -0.15702276060E+02  0.72461618324E+02  0.70000062568E+02 0.  0.
         12    1    1    2    0    0  0.86189733412E+00  0.10167252834E+02  0.15702276060E+02  0.18726381676E+02  0.00000000000E+00 0. -1.
         11    1    3    3    0    0  0.48884357215E+01  0.25020341336E+01 -0.37423724677E+01  0.66454744419E+01  0.51100000000E-03 0. -1.
        -11    1    3    3    0    0  0.15076489893E+02 -0.31821173252E+02 -0.29875320298E+00  0.35213305275E+02  0.51100000000E-03 0.  1.
         12    1    3    3    0    0 -0.20826822949E+02  0.19151886285E+02 -0.11661150389E+02  0.30602838607E+02  0.00000000000E+00 0. -1.
</event>
<event>
 7    1  0.2941727E-013  0.7246162E+02  0.7816164E-02  0.1226708E+00
        -11   -1    0    0    0    0  0.00000000000E+00  0.00000000000E+00  0.45593999997E+02  0.45594000000E+02  0.51100000000E-03 0. -1.
         11   -1    0    0    0    0 -0.00000000000E+00 -0.00000000000E+00 -0.45593999997E+02  0.45594000000E+02  0.51100000000E-03 0.  1.
    9900012    2    1    2    0    0 -0.63403767420E+00 -0.13724692720E+02  0.12724308549E+02  0.72461622291E+02  0.70000067736E+02 0.  0.
         12    1    1    2    0    0  0.63403767420E+00  0.13724692720E+02 -0.12724308549E+02  0.18726377709E+02  0.00000000000E+00 0. -1.
         11    1    3    3    0    0  0.79214875333E+01  0.57414929746E+01  0.34690108536E+01  0.10380209193E+02  0.51100000000E-03 0. -1.
        -11    1    3    3    0    0  0.15039720647E+02  0.12680423346E+02 -0.39707184664E+01  0.20068705459E+02  0.51100000000E-03 0.  1.
         12    1    3    3    0    0 -0.23595245855E+02 -0.32146609041E+02  0.13226016161E+02  0.42012707640E+02  0.00000000000E+00 0. -1.
</event>
<event>
 7    1  0.2941727E-013  0.7246158E+02  0.7816164E-02  0.1226708E+00
        -11   -1    0    0    0    0  0.00000000000E+00  0.00000000000E+00  0.45593999997E+02  0.45594000000E+02  0.51100000000E-03 0.  1.
         11   -1    0    0    0    0 -0.00000000000E+00 -0.00000000000E+00 -0.45593999997E+02  0.45594000000E+02  0.51100000000E-03 0. -1.
    9900012    2    1    2    0    0 -0.91340088100E+01  0.95589148378E+00  0.16319767661E+02  0.72461583845E+02  0.70000017653E+02 0.  0.
         12    1    1    2    0    0  0.91340088100E+01 -0.95589148378E+00 -0.16319767661E+02  0.18726416155E+02  0.00000000000E+00 0. -1.
         11    1    3    3    0    0  0.19008361430E+01 -0.86432344879E+01 -0.11767321408E+02  0.14723740484E+02  0.51100000000E-03 0. -1.
        -11    1    3    3    0    0 -0.19080151258E+02  0.20295120413E+01 -0.74044950876E+01  0.20566906401E+02  0.51100000000E-03 0.  1.
        -12    1    3    3    0    0  0.80453063047E+01  0.75696139304E+01  0.35491584157E+02  0.37170936961E+02  0.00000000000E+00 0.  1.
</event>
<event>
 7    1  0.3351830E-013  0.7246162E+02  0.7816164E-02  0.1226708E+00
        -11   -1    0    0    0    0  0.00000000000E+00  0.00000000000E+00  0.45593999997E+02  0.45594000000E+02  0.51100000000E-03 0. -1.
         11   -1    0    0    0    0 -0.00000000000E+00 -0.00000000000E+00 -0.45593999997E+02  0.45594000000E+02  0.51100000000E-03 0.  1.
    9900012    2    1    2    0    0 -0.73758354825E+01  0.55512710532E+01 -0.16292878831E+02  0.72461615940E+02  0.70000059462E+02 0.  0.
         12    1    1    2    0    0  0.73758354825E+01 -0.55512710532E+01  0.16292878831E+02  0.18726384060E+02  0.00000000000E+00 0. -1.
         11    1    3    3    0    0  0.79479705176E+01  0.46580116173E+01 -0.83425562269E+01  0.12428417125E+02  0.51100000000E-03 0.  1.
        -11    1    3    3    0    0 -0.22036267647E+02 -0.11919336650E+01 -0.29799434521E+02  0.37081317341E+02  0.51100000000E-03 0. -1.
         12    1    3    3    0    0  0.67124616465E+01  0.20851931009E+01  0.21849111918E+02  0.22951881474E+02  0.00000000000E+00 0. -1.
</event>
<event>
 7    1  0.2941727E-013  0.7246149E+02  0.7816164E-02  0.1226708E+00
        -11   -1    0    0    0    0  0.00000000000E+00  0.00000000000E+00  0.45593999997E+02  0.45594000000E+02  0.51100000000E-03 0. -1.
         11   -1    0    0    0    0 -0.00000000000E+00 -0.00000000000E+00 -0.45593999997E+02  0.45594000000E+02  0.51100000000E-03 0.  1.
    9900012    2    1    2    0    0 -0.31915902673E+01  0.37180196130E+01 -0.18074082016E+02  0.72461485135E+02  0.69999889063E+02 0.  0.
         12    1    1    2    0    0  0.31915902673E+01 -0.37180196130E+01  0.18074082016E+02  0.18726514865E+02  0.00000000000E+00 0. -1.
         11    1    3    3    0    0 -0.15778268890E+02 -0.12196993150E+02 -0.80623083252E+01  0.21510955973E+02  0.51100000000E-03 0. -1.
        -11    1    3    3    0    0 -0.14663108371E+02  0.94538261168E+01  0.62904141804E+01  0.18545912924E+02  0.51100000000E-03 0.  1.
        -12    1    3    3    0    0  0.27249786994E+02  0.64611866467E+01 -0.16302187871E+02  0.32404616238E+02  0.00000000000E+00 0.  1.
</event>
<event>
 7    1  0.2941727E-013  0.7246157E+02  0.7816164E-02  0.1226708E+00
        -11   -1    0    0    0    0  0.00000000000E+00  0.00000000000E+00  0.45593999997E+02  0.45594000000E+02  0.51100000000E-03 0.  1.
         11   -1    0    0    0    0 -0.00000000000E+00 -0.00000000000E+00 -0.45593999997E+02  0.45594000000E+02  0.51100000000E-03 0. -1.
    9900012    2    1    2    0    0  0.17606214165E+01 -0.18008441282E+02  0.48244787141E+01  0.72461565742E+02  0.69999994069E+02 0.  0.
         12    1    1    2    0    0 -0.17606214165E+01  0.18008441282E+02 -0.48244787141E+01  0.18726434258E+02  0.00000000000E+00 0. -1.
         11    1    3    3    0    0  0.10212441855E+02 -0.87987242599E+01 -0.14117871818E+02  0.19519882739E+02  0.51100000000E-03 0. -1.
        -11    1    3    3    0    0 -0.27533080377E+01 -0.24560761414E+02 -0.37091663732E+01  0.24991390954E+02  0.51100000000E-03 0.  1.
        -12    1    3    3    0    0 -0.56985124005E+01  0.15351044392E+02  0.22651516905E+02  0.27950292048E+02  0.00000000000E+00 0.  1.
</event>
<event>
 7    1  0.2941727E-013  0.7246167E+02  0.7816164E-02  0.1226708E+00
        -11   -1    0    0    0    0  0.00000000000E+00  0.00000000000E+00  0.45593999997E+02  0.45594000000E+02  0.51100000000E-03 0.  1.
         11   -1    0    0    0    0 -0.00000000000E+00 -0.00000000000E+00 -0.45593999997E+02  0.45594000000E+02  0.51100000000E-03 0. -1.
    9900012    2    1    2    0    0 -0.13318799257E+02  0.48183644992E+01  0.12250235660E+02  0.72461672976E+02  0.70000133761E+02 0.  0.
         12    1    1    2    0    0  0.13318799257E+02 -0.48183644992E+01 -0.12250235660E+02  0.18726327024E+02  0.00000000000E+00 0. -1.
         11    1    3    3    0    0  0.23266328263E+02  0.18727131499E+01  0.89567912304E+01  0.25001063873E+02  0.51100000000E-03 0. -1.
        -11    1    3    3    0    0 -0.80150800049E+01 -0.72455151000E+01 -0.96449177915E+01  0.14483212213E+02  0.51100000000E-03 0.  1.
        -12    1    3    3    0    0 -0.28570047515E+02  0.10191166449E+02  0.12938362221E+02  0.32977396889E+02  0.00000000000E+00 0.  1.
</event>
<event>
 7    1  0.2941727E-013  0.7246158E+02  0.7816164E-02  0.1226708E+00
        -11   -1    0    0    0    0  0.00000000000E+00  0.00000000000E+00  0.45593999997E+02  0.45594000000E+02  0.51100000000E-03 0. -1.
         11   -1    0    0    0    0 -0.00000000000E+00 -0.00000000000E+00 -0.45593999997E+02  0.45594000000E+02  0.51100000000E-03 0.  1.
    9900012    2    1    2    0    0  0.17228531263E+01 -0.13946225425E+02 -0.12377942559E+02  0.72461577798E+02  0.70000009775E+02 0.  0.
         12    1    1    2    0    0 -0.17228531263E+01  0.13946225425E+02  0.12377942559E+02  0.18726422202E+02  0.00000000000E+00 0. -1.
         11    1    3    3    0    0 -0.81487513843E+01  0.92086431263E+01  0.18710465462E+02  0.22389345132E+02  0.51100000000E-03 0. -1.
        -11    1    3    3    0    0  0.89940773799E+01 -0.47260339938E+01  0.36028572352E+01  0.10780046649E+02  0.51100000000E-03 0.  1.
        -12    1    3    3    0    0  0.87752713071E+00 -0.18428834557E+02 -0.34691265256E+02  0.39292186018E+02  0.00000000000E+00 0.  1.
</event>
<event>
 7    1  0.2941727E-013  0.7246157E+02  0.7816164E-02  0.1226708E+00
        -11   -1    0    0    0    0  0.00000000000E+00  0.00000000000E+00  0.45593999997E+02  0.45594000000E+02  0.51100000000E-03 0.  1.
         11   -1    0    0    0    0 -0.00000000000E+00 -0.00000000000E+00 -0.45593999997E+02  0.45594000000E+02  0.51100000000E-03 0. -1.
    9900012    2    1    2    0    0 -0.12311676239E+02  0.88988083409E+01  0.10950486443E+02  0.72461566409E+02  0.69999994939E+02 0.  0.
         12    1    1    2    0    0  0.12311676239E+02 -0.88988083409E+01 -0.10950486443E+02  0.18726433591E+02  0.00000000000E+00 0. -1.
         11    1    3    3    0    0 -0.12707290999E+02 -0.41837877132E+01 -0.14105548406E+02  0.19440828693E+02  0.51100000000E-03 0. -1.
        -11    1    3    3    0    0 -0.36017584345E+01  0.88350093113E+01 -0.12100330894E+02  0.15409349803E+02  0.51100000000E-03 0.  1.
         12    1    3    3    0    0  0.39973731944E+01  0.42475867428E+01  0.37156365743E+02  0.37611387914E+02  0.00000000000E+00 0. -1.
</event>
<event>
 7    1  0.2941727E-013  0.7246153E+02  0.7816164E-02  0.1226708E+00
        -11   -1    0    0    0    0  0.00000000000E+00  0.00000000000E+00  0.45593999997E+02  0.45594000000E+02  0.51100000000E-03 0.  1.
         11   -1    0    0    0    0 -0.00000000000E+00 -0.00000000000E+00 -0.45593999997E+02  0.45594000000E+02  0.51100000000E-03 0. -1.
    9900012    2    1    2    0    0  0.40336971665E+00 -0.18509108542E+02  0.28161552511E+01  0.72461533795E+02  0.69999952452E+02 0.  0.
         12    1    1    2    0    0 -0.40336971665E+00  0.18509108542E+02 -0.28161552511E+01  0.18726466205E+02  0.00000000000E+00 0. -1.
         11    1    3    3    0    0  0.85815722666E+01  0.59573375966E+01 -0.11679808849E+01  0.10511775940E+02  0.51100000000E-03 0. -1.
        -11    1    3    3    0    0  0.84331160678E+01  0.15622487926E+02  0.53253823943E+01  0.18534812476E+02  0.51100000000E-03 0.  1.
        -12    1    3    3    0    0 -0.16611318618E+02 -0.40088934065E+02 -0.13412462583E+01  0.43414945378E+02  0.00000000000E+00 0.  1.
</event>
<event>
 7    1  0.2941727E-013  0.7246129E+02  0.7816164E-02  0.1226709E+00
        -11   -1    0    0    0    0  0.00000000000E+00  0.00000000000E+00  0.45593999997E+02  0.45594000000E+02  0.51100000000E-03 0.  1.
         11   -1    0    0    0    0 -0.00000000000E+00 -0.00000000000E+00 -0.45593999997E+02  0.45594000000E+02  0.51100000000E-03 0. -1.
    9900012    2    1    2    0    0 -0.13932917764E+02  0.13174429617E+01  0.12442982922E+02  0.72461289734E+02  0.69999634517E+02 0.  0.
         12    1    1    2    0    0  0.13932917764E+02 -0.13174429617E+01 -0.12442982922E+02  0.18726710266E+02  0.00000000000E+00 0. -1.
         11    1    3    3    0    0  0.12773688898E+02 -0.58075196688E+01  0.99872662877E+01  0.17223237237E+02  0.51100000000E-03 0.  1.
        -11    1    3    3    0    0 -0.63026101724E+01  0.14479292893E+02  0.21293778213E+02  0.26510333994E+02  0.51100000000E-03 0. -1.
         12    1    3    3    0    0 -0.20403996489E+02 -0.73543302625E+01 -0.18838061578E+02  0.28727718503E+02  0.00000000000E+00 0. -1.
</event>
<event>
 7    1  0.2941727E-013  0.7246163E+02  0.7816164E-02  0.1226708E+00
        -11   -1    0    0    0    0  0.00000000000E+00  0.00000000000E+00  0.45593999997E+02  0.45594000000E+02  0.51100000000E-03 0.  1.
         11   -1    0    0    0    0 -0.00000000000E+00 -0.00000000000E+00 -0.45593999997E+02  0.45594000000E+02  0.51100000000E-03 0. -1.
    9900012    2    1    2    0    0 -0.95235530220E+01  0.10139787226E+02 -0.12536496300E+02  0.72461625908E+02  0.70000072447E+02 0.  0.
         12    1    1    2    0    0  0.95235530220E+01 -0.10139787226E+02  0.12536496300E+02  0.18726374092E+02  0.00000000000E+00 0. -1.
         11    1    3    3    0    0 -0.93711294457E+01 -0.25632022524E+00  0.52280690299E+01  0.10733893664E+02  0.51100000000E-03 0. -1.
        -11    1    3    3    0    0 -0.18639279275E+02 -0.15823441364E+02  0.11650633952E+01  0.24477773621E+02  0.51100000000E-03 0.  1.
        -12    1    3    3    0    0  0.18486855698E+02  0.26219548816E+02 -0.18929628725E+02  0.37249958623E+02  0.00000000000E+00 0.  1.
</event>
<event>
 7    1  0.2941727E-013  0.7246155E+02  0.7816164E-02  0.1226708E+00
        -11   -1    0    0    0    0  0.00000000000E+00  0.00000000000E+00  0.45593999997E+02  0.45594000000E+02  0.51100000000E-03 0.  1.
         11   -1    0    0    0    0 -0.00000000000E+00 -0.00000000000E+00 -0.45593999997E+02  0.45594000000E+02  0.51100000000E-03 0. -1.
    9900012    2    1    2    0    0 -0.51676844385E+01  0.17700452240E+02 -0.32663310720E+01  0.72461551040E+02  0.69999974918E+02 0.  0.
         12    1    1    2    0    0  0.51676844385E+01 -0.17700452240E+02  0.32663310720E+01  0.18726448960E+02  0.00000000000E+00 0. -1.
         11    1    3    3    0    0  0.72958548677E+01 -0.13809999080E+01  0.11005480569E+02  0.13276191540E+02  0.51100000000E-03 0. -1.
        -11    1    3    3    0    0 -0.14502170691E+02 -0.14825497679E+01  0.16564154321E+02  0.22065405439E+02  0.51100000000E-03 0.  1.
         12    1    3    3    0    0  0.20386313846E+01  0.20564001916E+02 -0.30835965962E+02  0.37119954061E+02  0.00000000000E+00 0. -1.
</event>
<event>
 7    1  0.2941727E-013  0.7246155E+02  0.7816164E-02  0.1226708E+00
        -11   -1    0    0    0    0  0.00000000000E+00  0.00000000000E+00  0.45593999997E+02  0.45594000000E+02  0.51100000000E-03 0.  1.
         11   -1    0    0    0    0 -0.00000000000E+00 -0.00000000000E+00 -0.45593999997E+02  0.45594000000E+02  0.51100000000E-03 0. -1.
    9900012    2    1    2    0    0 -0.88837124211E+01 -0.69214976048E+00  0.16470590099E+02  0.72461554639E+02  0.69999979605E+02 0.  0.
         12    1    1    2    0    0  0.88837124211E+01  0.69214976048E+00 -0.16470590099E+02  0.18726445361E+02  0.00000000000E+00 0. -1.
         11    1    3    3    0    0 -0.12567869004E+02 -0.13285007967E+02 -0.78101531556E+01  0.19885704930E+02  0.51100000000E-03 0. -1.
        -11    1    3    3    0    0  0.37007455595E+01  0.37248915394E+01 -0.13123396428E+02  0.14134845905E+02  0.51100000000E-03 0.  1.
        -12    1    3    3    0    0 -0.16588976640E-01  0.88679666674E+01  0.37404139683E+02  0.38441003804E+02  0.00000000000E+00 0.  1.
</event>
<event>
 7    1  0.2941727E-013  0.7246179E+02  0.7816164E-02  0.1226707E+00
        -11   -1    0    0    0    0  0.00000000000E+00  0.00000000000E+00  0.45593999997E+02  0.45594000000E+02  0.51100000000E-03 0.  1.
         11   -1    0    0    0    0 -0.00000000000E+00 -0.00000000000E+00 -0.45593999997E+02  0.45594000000E+02  0.51100000000E-03 0. -1.
    9900012    2    1    2    0    0  0.62292987130E+00 -0.13379420004E+02  0.13087174589E+02  0.72461786822E+02  0.70000282067E+02 0.  0.
         12    1    1    2    0    0 -0.62292987130E+00  0.13379420004E+02 -0.13087174589E+02  0.18726213178E+02  0.00000000000E+00 0. -1.
         11    1    3    3    0    0 -0.20838267054E+01  0.15078836282E+01  0.65301890734E+01  0.70185052803E+01  0.51100000000E-03 0. -1.
        -11    1    3    3    0    0 -0.30158778975E+02 -0.37167022708E+01  0.23601488722E+01  0.30478453504E+02  0.51100000000E-03 0.  1.
         12    1    3    3    0    0  0.32865535552E+02 -0.11170601361E+02  0.41968366431E+01  0.34964828038E+02  0.00000000000E+00 0. -1.
</event>
<event>
 7    1  0.2941727E-013  0.7246155E+02  0.7816164E-02  0.1226708E+00
        -11   -1    0    0    0    0  0.00000000000E+00  0.00000000000E+00  0.45593999997E+02  0.45594000000E+02  0.51100000000E-03 0.  1.
         11   -1    0    0    0    0 -0.00000000000E+00 -0.00000000000E+00 -0.45593999997E+02  0.45594000000E+02  0.51100000000E-03 0. -1.
    9900012    2    1    2    0    0  0.18459930655E+02  0.62466651617E+00  0.30855428786E+01  0.72461552849E+02  0.69999977274E+02 0.  0.
         12    1    1    2    0    0 -0.18459930655E+02 -0.62466651617E+00 -0.30855428786E+01  0.18726447151E+02  0.00000000000E+00 0. -1.
         11    1    3    3    0    0  0.14975600565E+01  0.11407432681E+02  0.97471221346E+01  0.15079078111E+02  0.51100000000E-03 0. -1.
        -11    1    3    3    0    0  0.17557203310E+02 -0.22937473555E+01  0.21563966452E+02  0.27901994810E+02  0.51100000000E-03 0.  1.
         12    1    3    3    0    0 -0.59483271179E+00 -0.84890188097E+01 -0.28225545708E+02  0.29480479928E+02  0.00000000000E+00 0. -1.
</event>
<event>
 7    1  0.2941727E-013  0.7246155E+02  0.7816164E-02  0.1226708E+00
        -11   -1    0    0    0    0  0.00000000000E+00  0.00000000000E+00  0.45593999997E+02  0.45594000000E+02  0.51100000000E-03 0. -1.
         11   -1    0    0    0    0 -0.00000000000E+00 -0.00000000000E+00 -0.45593999997E+02  0.45594000000E+02  0.51100000000E-03 0.  1.
    9900012    2    1    2    0    0 -0.12475107947E+02  0.13090281248E+02  0.48678777424E+01  0.72461547716E+02  0.69999970587E+02 0.  0.
         12    1    1    2    0    0  0.12475107947E+02 -0.13090281248E+02 -0.48678777424E+01  0.18726452284E+02  0.00000000000E+00 0. -1.
         11    1    3    3    0    0  0.80154312446E+00  0.74504631107E+00  0.44686121472E+01  0.46006586669E+01  0.51100000000E-03 0. -1.
        -11    1    3    3    0    0  0.23935045337E+02  0.17266691693E+02  0.53692289556E+01  0.29997560853E+02  0.51100000000E-03 0.  1.
         12    1    3    3    0    0 -0.37211696409E+02 -0.49214567567E+01 -0.49699633605E+01  0.37863328195E+02  0.00000000000E+00 0. -1.
</event>
<event>
 7    1  0.2941727E-013  0.7246155E+02  0.7816164E-02  0.1226708E+00
        -11   -1    0    0    0    0  0.00000000000E+00  0.00000000000E+00  0.45593999997E+02  0.45594000000E+02  0.51100000000E-03 0.  1.
         11   -1    0    0    0    0 -0.00000000000E+00 -0.00000000000E+00 -0.45593999997E+02  0.45594000000E+02  0.51100000000E-03 0. -1.
    9900012    2    1    2    0    0 -0.24159820005E+01 -0.16532446295E+02  0.84570178654E+01  0.72461550772E+02  0.69999974569E+02 0.  0.
         12    1    1    2    0    0  0.24159820005E+01  0.16532446295E+02 -0.84570178654E+01  0.18726449228E+02  0.00000000000E+00 0. -1.
         11    1    3    3    0    0  0.78134602423E+01  0.14807076601E+02  0.13355207368E+02  0.21416377904E+02  0.51100000000E-03 0. -1.
        -11    1    3    3    0    0 -0.21835013359E+02 -0.56258087516E+01 -0.33022320272E+01  0.22788643424E+02  0.51100000000E-03 0.  1.
        -12    1    3    3    0    0  0.11605571116E+02 -0.25713714144E+02 -0.15959574751E+01  0.28256529444E+02  0.00000000000E+00 0.  1.
</event>
<event>
 7    1  0.2941727E-013  0.7246171E+02  0.7816164E-02  0.1226708E+00
        -11   -1    0    0    0    0  0.00000000000E+00  0.00000000000E+00  0.45593999997E+02  0.45594000000E+02  0.51100000000E-03 0. -1.
         11   -1    0    0    0    0 -0.00000000000E+00 -0.00000000000E+00 -0.45593999997E+02  0.45594000000E+02  0.51100000000E-03 0.  1.
    9900012    2    1    2    0    0 -0.15425126017E+02  0.99889885895E+01 -0.35999154435E+01  0.72461713746E+02  0.70000186872E+02 0.  0.
         12    1    1    2    0    0  0.15425126017E+02 -0.99889885895E+01  0.35999154435E+01  0.18726286254E+02  0.00000000000E+00 0. -1.
         11    1    3    3    0    0  0.11998426769E+01 -0.62697075526E+01  0.13112940576E+02  0.14584171764E+02  0.51100000000E-03 0. -1.
        -11    1    3    3    0    0 -0.90820593877E+00 -0.80219171725E+01 -0.26217593622E+02  0.27432429873E+02  0.51100000000E-03 0.  1.
         12    1    3    3    0    0 -0.15716762755E+02  0.24280613315E+02  0.95047376030E+01  0.30445112109E+02  0.00000000000E+00 0. -1.
</event>
<event>
 7    1  0.2941727E-013  0.7246158E+02  0.7816164E-02  0.1226708E+00
        -11   -1    0    0    0    0  0.00000000000E+00  0.00000000000E+00  0.45593999997E+02  0.45594000000E+02  0.51100000000E-03 0. -1.
         11   -1    0    0    0    0 -0.00000000000E+00 -0.00000000000E+00 -0.45593999997E+02  0.45594000000E+02  0.51100000000E-03 0.  1.
    9900012    2    1    2    0    0 -0.25894593363E+01  0.41412733987E+01 -0.18078259816E+02  0.72461576876E+02  0.70000008574E+02 0.  0.
         12    1    1    2    0    0  0.25894593363E+01 -0.41412733987E+01  0.18078259816E+02  0.18726423124E+02  0.00000000000E+00 0. -1.
         11    1    3    3    0    0 -0.13921458801E+02 -0.10903601737E+02  0.92497530195E+01  0.19956289163E+02  0.51100000000E-03 0. -1.
        -11    1    3    3    0    0 -0.83169016632E+01  0.63246575057E+01 -0.29116026605E+02  0.30934045183E+02  0.51100000000E-03 0.  1.
        -12    1    3    3    0    0  0.19648901128E+02  0.87202176305E+01  0.17880137695E+01  0.21571242530E+02  0.00000000000E+00 0.  1.
</event>
<event>
 7    1  0.2941727E-013  0.7246162E+02  0.7816164E-02  0.1226708E+00
        -11   -1    0    0    0    0  0.00000000000E+00  0.00000000000E+00  0.45593999997E+02  0.45594000000E+02  0.51100000000E-03 0. -1.
         11   -1    0    0    0    0 -0.00000000000E+00 -0.00000000000E+00 -0.45593999997E+02  0.45594000000E+02  0.51100000000E-03 0.  1.
    9900012    2    1    2    0    0  0.15845189250E+01 -0.18506717198E+02 -0.23807787283E+01  0.72461617834E+02  0.70000061929E+02 0.  0.
         12    1    1    2    0    0 -0.15845189250E+01  0.18506717198E+02  0.23807787283E+01  0.18726382166E+02  0.00000000000E+00 0. -1.
         11    1    3    3    0    0 -0.87546666206E+01  0.24931152964E+01  0.11871626872E+02  0.14959790652E+02  0.51100000000E-03 0. -1.
        -11    1    3    3    0    0 -0.12925074247E+02 -0.45323588615E+01  0.12402524382E+02  0.18477619772E+02  0.51100000000E-03 0.  1.
         12    1    3    3    0    0  0.23264259792E+02 -0.16467473633E+02 -0.26654929982E+02  0.39024207409E+02  0.00000000000E+00 0. -1.
</event>
<event>
 7    1  0.2941727E-013  0.7246191E+02  0.7816164E-02  0.1226707E+00
        -11   -1    0    0    0    0  0.00000000000E+00  0.00000000000E+00  0.45593999997E+02  0.45594000000E+02  0.51100000000E-03 0. -1.
         11   -1    0    0    0    0 -0.00000000000E+00 -0.00000000000E+00 -0.45593999997E+02  0.45594000000E+02  0.51100000000E-03 0.  1.
    9900012    2    1    2    0    0 -0.84406554246E+01  0.12915746978E+02 -0.10611560330E+02  0.72461911337E+02  0.70000444270E+02 0.  0.
         12    1    1    2    0    0  0.84406554246E+01 -0.12915746978E+02  0.10611560330E+02  0.18726088663E+02  0.00000000000E+00 0. -1.
         11    1    3    3    0    0  0.57312351475E+01 -0.10946607222E+01  0.66461583307E+01  0.88440239275E+01  0.51100000000E-03 0. -1.
        -11    1    3    3    0    0  0.15224305170E+02 -0.11632683126E+02  0.34272326704E+01  0.19463933535E+02  0.51100000000E-03 0.  1.
        -12    1    3    3    0    0 -0.29396195742E+02  0.25643090825E+02 -0.20684951331E+02  0.44153953874E+02  0.00000000000E+00 0.  1.
</event>
<event>
 7    1  0.2941727E-013  0.7246158E+02  0.7816164E-02  0.1226708E+00
        -11   -1    0    0    0    0  0.00000000000E+00  0.00000000000E+00  0.45593999997E+02  0.45594000000E+02  0.51100000000E-03 0. -1.
         11   -1    0    0    0    0 -0.00000000000E+00 -0.00000000000E+00 -0.45593999997E+02  0.45594000000E+02  0.51100000000E-03 0.  1.
    9900012    2    1    2    0    0  0.19647492931E+01 -0.14356878236E+02 -0.11861648037E+02  0.72461577848E+02  0.70000009840E+02 0.  0.
         12    1    1    2    0    0 -0.19647492931E+01  0.14356878236E+02  0.11861648037E+02  0.18726422152E+02  0.00000000000E+00 0. -1.
         11    1    3    3    0    0  0.93036550074E+01 -0.21596738119E+02 -0.90766105859E+01  0.25206387164E+02  0.51100000000E-03 0. -1.
        -11    1    3    3    0    0 -0.25552860504E+02 -0.23544522111E+00 -0.81973172843E+01  0.26836544586E+02  0.51100000000E-03 0.  1.
         12    1    3    3    0    0  0.18213954790E+02  0.74753051037E+01  0.54122798334E+01  0.20418646098E+02  0.00000000000E+00 0. -1.
</event>
<event>
 7    1  0.2941727E-013  0.7246169E+02  0.7816164E-02  0.1226708E+00
        -11   -1    0    0    0    0  0.00000000000E+00  0.00000000000E+00  0.45593999997E+02  0.45594000000E+02  0.51100000000E-03 0.  1.
         11   -1    0    0    0    0 -0.00000000000E+00 -0.00000000000E+00 -0.45593999997E+02  0.45594000000E+02  0.51100000000E-03 0. -1.
    9900012    2    1    2    0    0  0.15854883662E+02  0.57275313721E+01 -0.81543063648E+01  0.72461690597E+02  0.70000156717E+02 0.  0.
         12    1    1    2    0    0 -0.15854883662E+02 -0.57275313721E+01  0.81543063648E+01  0.18726309403E+02  0.00000000000E+00 0. -1.
         11    1    3    3    0    0 -0.92864625674E+01  0.46088551226E+01  0.16798657124E+02  0.19740182724E+02  0.51100000000E-03 0. -1.
        -11    1    3    3    0    0 -0.25719566514E+01 -0.10557338046E+02  0.34050187813E+01  0.11387119952E+02  0.51100000000E-03 0.  1.
         12    1    3    3    0    0  0.27713302881E+02  0.11676014296E+02 -0.28357982270E+02  0.41334387921E+02  0.00000000000E+00 0. -1.
</event>
<event>
 7    1  0.2941727E-013  0.7246144E+02  0.7816164E-02  0.1226708E+00
        -11   -1    0    0    0    0  0.00000000000E+00  0.00000000000E+00  0.45593999997E+02  0.45594000000E+02  0.51100000000E-03 0.  1.
         11   -1    0    0    0    0 -0.00000000000E+00 -0.00000000000E+00 -0.45593999997E+02  0.45594000000E+02  0.51100000000E-03 0. -1.
    9900012    2    1    2    0    0 -0.11664605607E+02  0.78433717253E+01 -0.12373454200E+02  0.72461444715E+02  0.69999836410E+02 0.  0.
         12    1    1    2    0    0  0.11664605607E+02 -0.78433717253E+01  0.12373454200E+02  0.18726555285E+02  0.00000000000E+00 0. -1.
         11    1    3    3    0    0  0.88672313510E+01  0.29867089665E+01  0.10868368661E+02  0.14341187535E+02  0.51100000000E-03 0. -1.
        -11    1    3    3    0    0  0.40862737523E+01 -0.50471338393E+00  0.13194092180E+02  0.13821593161E+02  0.51100000000E-03 0.  1.
         12    1    3    3    0    0 -0.24618110710E+02  0.53613761428E+01 -0.36435915041E+02  0.44298664020E+02  0.00000000000E+00 0. -1.
</event>
<event>
 7    1  0.2941727E-013  0.7246151E+02  0.7816164E-02  0.1226708E+00
        -11   -1    0    0    0    0  0.00000000000E+00  0.00000000000E+00  0.45593999997E+02  0.45594000000E+02  0.51100000000E-03 0. -1.
         11   -1    0    0    0    0 -0.00000000000E+00 -0.00000000000E+00 -0.45593999997E+02  0.45594000000E+02  0.51100000000E-03 0.  1.
    9900012    2    1    2    0    0  0.66589465975E+00  0.17937733664E+02 -0.53362627348E+01  0.72461510615E+02  0.69999922257E+02 0.  0.
         12    1    1    2    0    0 -0.66589465975E+00 -0.17937733664E+02  0.53362627348E+01  0.18726489385E+02  0.00000000000E+00 0. -1.
         11    1    3    3    0    0  0.53172628528E+01  0.54129013751E+01  0.19412686762E+02  0.20842869119E+02  0.51100000000E-03 0. -1.
        -11    1    3    3    0    0  0.61230491319E+01  0.72644345058E+01  0.10633684663E+02  0.14259698073E+02  0.51100000000E-03 0.  1.
        -12    1    3    3    0    0 -0.10774417325E+02  0.52603977834E+01 -0.35382634160E+02  0.37358943422E+02  0.00000000000E+00 0.  1.
</event>
<event>
 7    1  0.2941727E-013  0.7246157E+02  0.7816164E-02  0.1226708E+00
        -11   -1    0    0    0    0  0.00000000000E+00  0.00000000000E+00  0.45593999997E+02  0.45594000000E+02  0.51100000000E-03 0.  1.
         11   -1    0    0    0    0 -0.00000000000E+00 -0.00000000000E+00 -0.45593999997E+02  0.45594000000E+02  0.51100000000E-03 0. -1.
    9900012    2    1    2    0    0  0.13855190543E+01 -0.79810277469E+01  0.16883796461E+02  0.72461573489E+02  0.70000004161E+02 0.  0.
         12    1    1    2    0    0 -0.13855190543E+01  0.79810277469E+01 -0.16883796461E+02  0.18726426511E+02  0.00000000000E+00 0. -1.
         11    1    3    3    0    0  0.18165058367E+02  0.23306115741E+02  0.19035465657E+02  0.35149585054E+02  0.51100000000E-03 0. -1.
        -11    1    3    3    0    0 -0.38209173407E+01 -0.98308486205E+00 -0.18368511130E+01  0.43519980978E+01  0.51100000000E-03 0.  1.
        -12    1    3    3    0    0 -0.12958621972E+02 -0.30304058626E+02 -0.31481808261E+00  0.32959990337E+02  0.00000000000E+00 0.  1.
</event>
<event>
 7    1  0.2941727E-013  0.7246153E+02  0.7816164E-02  0.1226708E+00
        -11   -1    0    0    0    0  0.00000000000E+00  0.00000000000E+00  0.45593999997E+02  0.45594000000E+02  0.51100000000E-03 0. -1.
         11   -1    0    0    0    0 -0.00000000000E+00 -0.00000000000E+00 -0.45593999997E+02  0.45594000000E+02  0.51100000000E-03 0.  1.
    9900012    2    1    2    0    0  0.92762753936E+01 -0.16152601422E+02 -0.19299413814E+01  0.72461534994E+02  0.69999954015E+02 0.  0.
         12    1    1    2    0    0 -0.92762753936E+01  0.16152601422E+02  0.19299413814E+01  0.18726465006E+02  0.00000000000E+00 0. -1.
         11    1    3    3    0    0 -0.15041641223E+02 -0.99789473336E+01  0.77033063564E+01  0.19625781249E+02  0.51100000000E-03 0. -1.
        -11    1    3    3    0    0 -0.10830774851E+02 -0.11399632030E+01  0.76860830693E+01  0.13329706418E+02  0.51100000000E-03 0.  1.
         12    1    3    3    0    0  0.35148691468E+02 -0.50336908852E+01 -0.17319330807E+02  0.39506047327E+02  0.00000000000E+00 0. -1.
</event>
<event>
 7    1  0.2941727E-013  0.7246148E+02  0.7816164E-02  0.1226708E+00
        -11   -1    0    0    0    0  0.00000000000E+00  0.00000000000E+00  0.45593999997E+02  0.45594000000E+02  0.51100000000E-03 0.  1.
         11   -1    0    0    0    0 -0.00000000000E+00 -0.00000000000E+00 -0.45593999997E+02  0.45594000000E+02  0.51100000000E-03 0. -1.
    9900012    2    1    2    0    0  0.13523578008E+02  0.61429089519E+01  0.11404393018E+02  0.72461476760E+02  0.69999878155E+02 0.  0.
         12    1    1    2    0    0 -0.13523578008E+02 -0.61429089519E+01 -0.11404393018E+02  0.18726523240E+02  0.00000000000E+00 0. -1.
         11    1    3    3    0    0 -0.92659652600E+01 -0.14974898280E+02  0.40324313793E+01  0.18065608038E+02  0.51100000000E-03 0. -1.
        -11    1    3    3    0    0 -0.54740465293E+00  0.14053288709E+02  0.21889691752E+02  0.26018323940E+02  0.51100000000E-03 0.  1.
         12    1    3    3    0    0  0.23336947921E+02  0.70645185230E+01 -0.14517730113E+02  0.28377544782E+02  0.00000000000E+00 0. -1.
</event>
<event>
 7    1  0.2941727E-013  0.7246143E+02  0.7816164E-02  0.1226708E+00
        -11   -1    0    0    0    0  0.00000000000E+00  0.00000000000E+00  0.45593999997E+02  0.45594000000E+02  0.51100000000E-03 0.  1.
         11   -1    0    0    0    0 -0.00000000000E+00 -0.00000000000E+00 -0.45593999997E+02  0.45594000000E+02  0.51100000000E-03 0. -1.
    9900012    2    1    2    0    0  0.89090241953E+01 -0.22385761597E+01  0.16318771705E+02  0.72461434770E+02  0.69999823455E+02 0.  0.
         12    1    1    2    0    0 -0.89090241953E+01  0.22385761597E+01 -0.16318771705E+02  0.18726565230E+02  0.00000000000E+00 0. -1.
         11    1    3    3    0    0  0.31203440444E+01  0.62100381677E+01 -0.56874892018E+01  0.89804596030E+01  0.51100000000E-03 0. -1.
        -11    1    3    3    0    0  0.17234353522E+02 -0.16053424847E+02 -0.12266705560E+02  0.26555742434E+02  0.51100000000E-03 0.  1.
        -12    1    3    3    0    0 -0.11445673371E+02  0.76048105198E+01  0.34272966467E+02  0.36925232733E+02  0.00000000000E+00 0.  1.
</event>
<event>
 7    1  0.2941727E-013  0.7246161E+02  0.7816164E-02  0.1226708E+00
        -11   -1    0    0    0    0  0.00000000000E+00  0.00000000000E+00  0.45593999997E+02  0.45594000000E+02  0.51100000000E-03 0.  1.
         11   -1    0    0    0    0 -0.00000000000E+00 -0.00000000000E+00 -0.45593999997E+02  0.45594000000E+02  0.51100000000E-03 0. -1.
    9900012    2    1    2    0    0 -0.13406104095E+02 -0.92481110514E+01 -0.92426477804E+01  0.72461608916E+02  0.70000050312E+02 0.  0.
         12    1    1    2    0    0  0.13406104095E+02  0.92481110514E+01  0.92426477804E+01  0.18726391084E+02  0.00000000000E+00 0. -1.
         11    1    3    3    0    0 -0.17218083180E+02  0.19065767942E+01 -0.12930144732E+02  0.21616800561E+02  0.51100000000E-03 0. -1.
        -11    1    3    3    0    0 -0.13376816488E+02 -0.18970740659E+02 -0.12149721447E+02  0.26200075420E+02  0.51100000000E-03 0.  1.
        -12    1    3    3    0    0  0.17188795573E+02  0.78160528138E+01  0.15837218398E+02  0.24644732935E+02  0.00000000000E+00 0.  1.
</event>
<event>
 7    1  0.2941727E-013  0.7246155E+02  0.7816164E-02  0.1226708E+00
        -11   -1    0    0    0    0  0.00000000000E+00  0.00000000000E+00  0.45593999997E+02  0.45594000000E+02  0.51100000000E-03 0.  1.
         11   -1    0    0    0    0 -0.00000000000E+00 -0.00000000000E+00 -0.45593999997E+02  0.45594000000E+02  0.51100000000E-03 0. -1.
    9900012    2    1    2    0    0 -0.47667162447E+01  0.17030148911E+02 -0.61589335110E+01  0.72461547648E+02  0.69999970499E+02 0.  0.
         12    1    1    2    0    0  0.47667162447E+01 -0.17030148911E+02  0.61589335110E+01  0.18726452352E+02  0.00000000000E+00 0. -1.
         11    1    3    3    0    0 -0.88447085025E+01  0.20442825068E+02  0.11160042087E+02  0.24913540593E+02  0.51100000000E-03 0.  1.
        -11    1    3    3    0    0 -0.13578024885E+02  0.13719980075E+02 -0.10704232357E+02  0.22072181670E+02  0.51100000000E-03 0. -1.
         12    1    3    3    0    0  0.17656017143E+02 -0.17132656231E+02 -0.66147432414E+01  0.25475825385E+02  0.00000000000E+00 0. -1.
</event>
<event>
 7    1  0.2941727E-013  0.7246156E+02  0.7816164E-02  0.1226708E+00
        -11   -1    0    0    0    0  0.00000000000E+00  0.00000000000E+00  0.45593999997E+02  0.45594000000E+02  0.51100000000E-03 0. -1.
         11   -1    0    0    0    0 -0.00000000000E+00 -0.00000000000E+00 -0.45593999997E+02  0.45594000000E+02  0.51100000000E-03 0.  1.
    9900012    2    1    2    0    0  0.25402635124E+00  0.16295187417E+02 -0.92239861796E+01  0.72461559244E+02  0.69999985605E+02 0.  0.
         12    1    1    2    0    0 -0.25402635124E+00 -0.16295187417E+02  0.92239861796E+01  0.18726440756E+02  0.00000000000E+00 0. -1.
         11    1    3    3    0    0 -0.62567492868E+01 -0.51126860242E+01 -0.71391169170E+01  0.10782089808E+02  0.51100000000E-03 0. -1.
        -11    1    3    3    0    0  0.18027351494E+02 -0.30855910211E+01 -0.21606439678E+02  0.28308029067E+02  0.51100000000E-03 0.  1.
         12    1    3    3    0    0 -0.11516575856E+02  0.24493464462E+02  0.19521570415E+02  0.33371440369E+02  0.00000000000E+00 0. -1.
</event>
<event>
 7    1  0.2941727E-013  0.7246155E+02  0.7816164E-02  0.1226708E+00
        -11   -1    0    0    0    0  0.00000000000E+00  0.00000000000E+00  0.45593999997E+02  0.45594000000E+02  0.51100000000E-03 0.  1.
         11   -1    0    0    0    0 -0.00000000000E+00 -0.00000000000E+00 -0.45593999997E+02  0.45594000000E+02  0.51100000000E-03 0. -1.
    9900012    2    1    2    0    0 -0.15684523296E+02  0.10230524931E+02 -0.10926690833E+00  0.72461552108E+02  0.69999976309E+02 0.  0.
         12    1    1    2    0    0  0.15684523296E+02 -0.10230524931E+02  0.10926690833E+00  0.18726447892E+02  0.00000000000E+00 0. -1.
         11    1    3    3    0    0 -0.14886090173E+02 -0.13236061534E+02 -0.81561059315E+00  0.19936254074E+02  0.51100000000E-03 0. -1.
        -11    1    3    3    0    0  0.16285697409E+02 -0.44351714557E+01 -0.79873776601E+01  0.18673320221E+02  0.51100000000E-03 0.  1.
         12    1    3    3    0    0 -0.17084130531E+02  0.27901757921E+02  0.86937213450E+01  0.33851977814E+02  0.00000000000E+00 0. -1.
</event>
<event>
 7    1  0.2941727E-013  0.7246156E+02  0.7816164E-02  0.1226708E+00
        -11   -1    0    0    0    0  0.00000000000E+00  0.00000000000E+00  0.45593999997E+02  0.45594000000E+02  0.51100000000E-03 0.  1.
         11   -1    0    0    0    0 -0.00000000000E+00 -0.00000000000E+00 -0.45593999997E+02  0.45594000000E+02  0.51100000000E-03 0. -1.
    9900012    2    1    2    0    0 -0.13303353084E+02 -0.60741686281E+01  0.11696353482E+02  0.72461563805E+02  0.69999991546E+02 0.  0.
         12    1    1    2    0    0  0.13303353084E+02  0.60741686281E+01 -0.11696353482E+02  0.18726436195E+02  0.00000000000E+00 0. -1.
         11    1    3    3    0    0 -0.59663966069E+01  0.11047228666E+02  0.25910140185E+01  0.12820004040E+02  0.51100000000E-03 0. -1.
        -11    1    3    3    0    0  0.22580281739E+02 -0.15811901231E+02 -0.21513919984E+01  0.27649843250E+02  0.51100000000E-03 0.  1.
         12    1    3    3    0    0 -0.29917238216E+02 -0.13094960628E+01  0.11256731462E+02  0.31991716515E+02  0.00000000000E+00 0. -1.
</event>
<event>
 7    1  0.2941727E-013  0.7246158E+02  0.7816164E-02  0.1226708E+00
        -11   -1    0    0    0    0  0.00000000000E+00  0.00000000000E+00  0.45593999997E+02  0.45594000000E+02  0.51100000000E-03 0. -1.
         11   -1    0    0    0    0 -0.00000000000E+00 -0.00000000000E+00 -0.45593999997E+02  0.45594000000E+02  0.51100000000E-03 0.  1.
    9900012    2    1    2    0    0  0.77332835214E+01  0.64187383855E+01 -0.15801108954E+02  0.72461576939E+02  0.70000008656E+02 0.  0.
         12    1    1    2    0    0 -0.77332835214E+01 -0.64187383855E+01  0.15801108954E+02  0.18726423061E+02  0.00000000000E+00 0. -1.
         11    1    3    3    0    0  0.17532335574E+02  0.14481278099E+02  0.58630336226E+01  0.23483299802E+02  0.51100000000E-03 0. -1.
        -11    1    3    3    0    0  0.10583293596E+02  0.55786453674E+01  0.48056144782E+01  0.12892684680E+02  0.51100000000E-03 0.  1.
         12    1    3    3    0    0 -0.20382345648E+02 -0.13641185081E+02 -0.26469757054E+02  0.36085592458E+02  0.00000000000E+00 0. -1.
</event>
<event>
 7    1  0.2941727E-013  0.7246157E+02  0.7816164E-02  0.1226708E+00
        -11   -1    0    0    0    0  0.00000000000E+00  0.00000000000E+00  0.45593999997E+02  0.45594000000E+02  0.51100000000E-03 0.  1.
         11   -1    0    0    0    0 -0.00000000000E+00 -0.00000000000E+00 -0.45593999997E+02  0.45594000000E+02  0.51100000000E-03 0. -1.
    9900012    2    1    2    0    0 -0.77772183860E+01 -0.71527448875E+01  0.15460673099E+02  0.72461566866E+02  0.69999995534E+02 0.  0.
         12    1    1    2    0    0  0.77772183860E+01  0.71527448875E+01 -0.15460673099E+02  0.18726433134E+02  0.00000000000E+00 0. -1.
         11    1    3    3    0    0 -0.99280082647E+00 -0.10776386121E+02  0.19539450611E+02  0.22336210102E+02  0.51100000000E-03 0. -1.
        -11    1    3    3    0    0  0.17935843383E+01 -0.22340840611E+02  0.39964215176E+00  0.22416284663E+02  0.51100000000E-03 0.  1.
         12    1    3    3    0    0 -0.85780018978E+01  0.25964481844E+02 -0.44784196631E+01  0.27709072101E+02  0.00000000000E+00 0. -1.
</event>
<event>
 7    1  0.2941727E-013  0.7246156E+02  0.7816164E-02  0.1226708E+00
        -11   -1    0    0    0    0  0.00000000000E+00  0.00000000000E+00  0.45593999997E+02  0.45594000000E+02  0.51100000000E-03 0. -1.
         11   -1    0    0    0    0 -0.00000000000E+00 -0.00000000000E+00 -0.45593999997E+02  0.45594000000E+02  0.51100000000E-03 0.  1.
    9900012    2    1    2    0    0 -0.15731487552E+02 -0.76050596077E+01 -0.67352058242E+01  0.72461558006E+02  0.69999983992E+02 0.  0.
         12    1    1    2    0    0  0.15731487552E+02  0.76050596077E+01  0.67352058242E+01  0.18726441994E+02  0.00000000000E+00 0. -1.
         11    1    3    3    0    0 -0.53253887798E+01  0.10400471147E+02  0.96838723780E+01  0.15175867363E+02  0.51100000000E-03 0. -1.
        -11    1    3    3    0    0 -0.59005561731E+01  0.10226946304E+02 -0.24821665699E+02  0.27486761945E+02  0.51100000000E-03 0.  1.
         12    1    3    3    0    0 -0.45055425996E+01 -0.28232477058E+02  0.84025874971E+01  0.29798928699E+02  0.00000000000E+00 0. -1.
</event>
<event>
 7    1  0.2941727E-013  0.7246156E+02  0.7816164E-02  0.1226708E+00
        -11   -1    0    0    0    0  0.00000000000E+00  0.00000000000E+00  0.45593999997E+02  0.45594000000E+02  0.51100000000E-03 0. -1.
         11   -1    0    0    0    0 -0.00000000000E+00 -0.00000000000E+00 -0.45593999997E+02  0.45594000000E+02  0.51100000000E-03 0.  1.
    9900012    2    1    2    0    0 -0.11742490973E+02 -0.14585692677E+02 -0.22589496183E+00  0.72461560038E+02  0.69999986639E+02 0.  0.
         12    1    1    2    0    0  0.11742490973E+02  0.14585692677E+02  0.22589496183E+00  0.18726439962E+02  0.00000000000E+00 0. -1.
         11    1    3    3    0    0  0.21039629218E+01 -0.14988347094E+02  0.17488238742E+02  0.23128244705E+02  0.51100000000E-03 0. -1.
        -11    1    3    3    0    0  0.25923125005E+01 -0.13468082558E+02  0.79460608779E+01  0.15850842742E+02  0.51100000000E-03 0.  1.
        -12    1    3    3    0    0 -0.16438766396E+02  0.13870736975E+02 -0.25660194582E+02  0.33482472591E+02  0.00000000000E+00 0.  1.
</event>
<event>
 7    1  0.2941727E-013  0.7246155E+02  0.7816164E-02  0.1226708E+00
        -11   -1    0    0    0    0  0.00000000000E+00  0.00000000000E+00  0.45593999997E+02  0.45594000000E+02  0.51100000000E-03 0.  1.
         11   -1    0    0    0    0 -0.00000000000E+00 -0.00000000000E+00 -0.45593999997E+02  0.45594000000E+02  0.51100000000E-03 0. -1.
    9900012    2    1    2    0    0  0.54258193787E+01 -0.14384685638E+02  0.10692107931E+02  0.72461551623E+02  0.69999975677E+02 0.  0.
         12    1    1    2    0    0 -0.54258193787E+01  0.14384685638E+02 -0.10692107931E+02  0.18726448377E+02  0.00000000000E+00 0. -1.
         11    1    3    3    0    0 -0.11104015277E+02 -0.81540341765E+00 -0.67772776171E+01  0.13034397960E+02  0.51100000000E-03 0. -1.
        -11    1    3    3    0    0 -0.88751004057E+01  0.10037098701E+02  0.20635302661E+02  0.24603383379E+02  0.51100000000E-03 0.  1.
        -12    1    3    3    0    0  0.25404935061E+02 -0.23606380920E+02 -0.31659171125E+01  0.34823770284E+02  0.00000000000E+00 0.  1.
</event>
<event>
 7    1  0.2941727E-013  0.7246153E+02  0.7816164E-02  0.1226708E+00
        -11   -1    0    0    0    0  0.00000000000E+00  0.00000000000E+00  0.45593999997E+02  0.45594000000E+02  0.51100000000E-03 0.  1.
         11   -1    0    0    0    0 -0.00000000000E+00 -0.00000000000E+00 -0.45593999997E+02  0.45594000000E+02  0.51100000000E-03 0. -1.
    9900012    2    1    2    0    0 -0.85100830067E+01 -0.16657507133E+02 -0.88698041117E+00  0.72461527003E+02  0.69999943605E+02 0.  0.
         12    1    1    2    0    0  0.85100830067E+01  0.16657507133E+02  0.88698041117E+00  0.18726472997E+02  0.00000000000E+00 0. -1.
         11    1    3    3    0    0 -0.24605989604E+01 -0.31897633339E+02 -0.83508093641E+01  0.33064324840E+02  0.51100000000E-03 0. -1.
        -11    1    3    3    0    0  0.12913298762E+02 -0.16556087900E+01  0.47341898052E+01  0.13853045830E+02  0.51100000000E-03 0.  1.
        -12    1    3    3    0    0 -0.18962782809E+02  0.16895734996E+02  0.27296391478E+01  0.25544156333E+02  0.00000000000E+00 0.  1.
</event>
<event>
 7    1  0.2941727E-013  0.7246156E+02  0.7816164E-02  0.1226708E+00
        -11   -1    0    0    0    0  0.00000000000E+00  0.00000000000E+00  0.45593999997E+02  0.45594000000E+02  0.51100000000E-03 0.  1.
         11   -1    0    0    0    0 -0.00000000000E+00 -0.00000000000E+00 -0.45593999997E+02  0.45594000000E+02  0.51100000000E-03 0. -1.
    9900012    2    1    2    0    0  0.13370676761E+02  0.99971378126E+01  0.84830215258E+01  0.72461563722E+02  0.69999991438E+02 0.  0.
         12    1    1    2    0    0 -0.13370676761E+02 -0.99971378126E+01 -0.84830215258E+01  0.18726436278E+02  0.00000000000E+00 0. -1.
         11    1    3    3    0    0  0.26266452138E+02  0.17760586781E+02  0.19721118408E+01  0.31768761010E+02  0.51100000000E-03 0. -1.
        -11    1    3    3    0    0  0.74961326102E+01  0.10269755050E+02  0.49432452823E-01  0.12714649689E+02  0.51100000000E-03 0.  1.
        -12    1    3    3    0    0 -0.20391907988E+02 -0.18033204018E+02  0.64614772322E+01  0.27978153023E+02  0.00000000000E+00 0.  1.
</event>
<event>
 7    1  0.2941727E-013  0.7246158E+02  0.7816164E-02  0.1226708E+00
        -11   -1    0    0    0    0  0.00000000000E+00  0.00000000000E+00  0.45593999997E+02  0.45594000000E+02  0.51100000000E-03 0. -1.
         11   -1    0    0    0    0 -0.00000000000E+00 -0.00000000000E+00 -0.45593999997E+02  0.45594000000E+02  0.51100000000E-03 0.  1.
    9900012    2    1    2    0    0 -0.13962864309E+02  0.10735453166E+02 -0.63613977074E+01  0.72461577085E+02  0.70000008846E+02 0.  0.
         12    1    1    2    0    0  0.13962864309E+02 -0.10735453166E+02  0.63613977074E+01  0.18726422915E+02  0.00000000000E+00 0. -1.
         11    1    3    3    0    0 -0.29568896074E+02 -0.86571608866E+01  0.30374489403E+01  0.30959524318E+02  0.51100000000E-03 0. -1.
        -11    1    3    3    0    0 -0.53304064845E+01 -0.50893097742E+01  0.14496416237E+01  0.75110430944E+01  0.51100000000E-03 0.  1.
        -12    1    3    3    0    0  0.20936438250E+02  0.24481923827E+02 -0.10848488271E+02  0.33991009673E+02  0.00000000000E+00 0.  1.
</event>
<event>
 7    1  0.2941727E-013  0.7246156E+02  0.7816164E-02  0.1226708E+00
        -11   -1    0    0    0    0  0.00000000000E+00  0.00000000000E+00  0.45593999997E+02  0.45594000000E+02  0.51100000000E-03 0. -1.
         11   -1    0    0    0    0 -0.00000000000E+00 -0.00000000000E+00 -0.45593999997E+02  0.45594000000E+02  0.51100000000E-03 0.  1.
    9900012    2    1    2    0    0  0.12723924676E+02  0.12017837626E+02 -0.66598004800E+01  0.72461558192E+02  0.69999984234E+02 0.  0.
         12    1    1    2    0    0 -0.12723924676E+02 -0.12017837626E+02  0.66598004800E+01  0.18726441808E+02  0.00000000000E+00 0. -1.
         11    1    3    3    0    0 -0.97906310249E+01  0.63687786800E+01 -0.91087714929E+01  0.14811735756E+02  0.51100000000E-03 0. -1.
        -11    1    3    3    0    0 -0.77316880963E+01  0.16856684754E+02 -0.12225885188E+02  0.22212588562E+02  0.51100000000E-03 0.  1.
         12    1    3    3    0    0  0.30246243797E+02 -0.11207625809E+02  0.14674856201E+02  0.35437233874E+02  0.00000000000E+00 0. -1.
</event>
<event>
 7    1  0.2941727E-013  0.7246158E+02  0.7816164E-02  0.1226708E+00
        -11   -1    0    0    0    0  0.00000000000E+00  0.00000000000E+00  0.45593999997E+02  0.45594000000E+02  0.51100000000E-03 0.  1.
         11   -1    0    0    0    0 -0.00000000000E+00 -0.00000000000E+00 -0.45593999997E+02  0.45594000000E+02  0.51100000000E-03 0. -1.
    9900012    2    1    2    0    0  0.10426191722E+02  0.37380980729E+01  0.15099672390E+02  0.72461575960E+02  0.70000007381E+02 0.  0.
         12    1    1    2    0    0 -0.10426191722E+02 -0.37380980729E+01 -0.15099672390E+02  0.18726424040E+02  0.00000000000E+00 0. -1.
         11    1    3    3    0    0 -0.13944110130E+02  0.38557354481E+00 -0.14856613818E+01  0.14028330773E+02  0.51100000000E-03 0.  1.
        -11    1    3    3    0    0  0.97390180978E+01 -0.20376339894E+02 -0.50544295261E+01  0.23142838181E+02  0.51100000000E-03 0. -1.
        -12    1    3    3    0    0  0.14631283754E+02  0.23728864422E+02  0.21639763298E+02  0.35290407006E+02  0.00000000000E+00 0.  1.
</event>
<event>
 7    1  0.2941727E-013  0.7246161E+02  0.7816164E-02  0.1226708E+00
        -11   -1    0    0    0    0  0.00000000000E+00  0.00000000000E+00  0.45593999997E+02  0.45594000000E+02  0.51100000000E-03 0.  1.
         11   -1    0    0    0    0 -0.00000000000E+00 -0.00000000000E+00 -0.45593999997E+02  0.45594000000E+02  0.51100000000E-03 0. -1.
    9900012    2    1    2    0    0 -0.15289063004E+02 -0.64339434805E+01  0.86906132522E+01  0.72461605928E+02  0.70000046419E+02 0.  0.
         12    1    1    2    0    0  0.15289063004E+02  0.64339434805E+01 -0.86906132522E+01  0.18726394072E+02  0.00000000000E+00 0. -1.
         11    1    3    3    0    0 -0.14191426582E+02  0.17501765330E+02  0.26220501518E+01  0.22684433547E+02  0.51100000000E-03 0. -1.
        -11    1    3    3    0    0 -0.12206677791E+02  0.46433800826E+01  0.12906795014E+02  0.18361626265E+02  0.51100000000E-03 0.  1.
         12    1    3    3    0    0  0.11109041369E+02 -0.28579088893E+02 -0.68382319141E+01  0.31415546116E+02  0.00000000000E+00 0. -1.
</event>
<event>
 7    1  0.2941727E-013  0.7246150E+02  0.7816164E-02  0.1226708E+00
        -11   -1    0    0    0    0  0.00000000000E+00  0.00000000000E+00  0.45593999997E+02  0.45594000000E+02  0.51100000000E-03 0.  1.
         11   -1    0    0    0    0 -0.00000000000E+00 -0.00000000000E+00 -0.45593999997E+02  0.45594000000E+02  0.51100000000E-03 0. -1.
    9900012    2    1    2    0    0 -0.11273403253E+02 -0.70133283826E+01 -0.13206265934E+02  0.72461498570E+02  0.69999906565E+02 0.  0.
         12    1    1    2    0    0  0.11273403253E+02  0.70133283826E+01  0.13206265934E+02  0.18726501430E+02  0.00000000000E+00 0. -1.
         11    1    3    3    0    0 -0.25028165869E+02 -0.11984079294E+02 -0.43632759389E+01  0.28090308301E+02  0.51100000000E-03 0. -1.
        -11    1    3    3    0    0  0.61516558265E+01 -0.15034345661E+02 -0.14991018809E+02  0.22104412774E+02  0.51100000000E-03 0.  1.
        -12    1    3    3    0    0  0.76031067897E+01  0.20005096572E+02  0.61480288141E+01  0.22266777495E+02  0.00000000000E+00 0.  1.
</event>
<event>
 7    1  0.2941727E-013  0.7246154E+02  0.7816164E-02  0.1226708E+00
        -11   -1    0    0    0    0  0.00000000000E+00  0.00000000000E+00  0.45593999997E+02  0.45594000000E+02  0.51100000000E-03 0.  1.
         11   -1    0    0    0    0 -0.00000000000E+00 -0.00000000000E+00 -0.45593999997E+02  0.45594000000E+02  0.51100000000E-03 0. -1.
    9900012    2    1    2    0    0 -0.65882911158E+01  0.15353600700E+02  0.84582392696E+01  0.72461536217E+02  0.69999955607E+02 0.  0.
         12    1    1    2    0    0  0.65882911158E+01 -0.15353600700E+02 -0.84582392696E+01  0.18726463783E+02  0.00000000000E+00 0. -1.
         11    1    3    3    0    0  0.14517636941E+02 -0.72268448170E+01 -0.19726751856E+01  0.16336478078E+02  0.51100000000E-03 0. -1.
        -11    1    3    3    0    0 -0.92265832431E+00  0.11300007350E+02  0.25922479732E+02  0.28293398881E+02  0.51100000000E-03 0.  1.
         12    1    3    3    0    0 -0.20183269732E+02  0.11280438167E+02 -0.15491565277E+02  0.27831659258E+02  0.00000000000E+00 0. -1.
</event>
<event>
 7    1  0.2941727E-013  0.7246162E+02  0.7816164E-02  0.1226708E+00
        -11   -1    0    0    0    0  0.00000000000E+00  0.00000000000E+00  0.45593999997E+02  0.45594000000E+02  0.51100000000E-03 0.  1.
         11   -1    0    0    0    0 -0.00000000000E+00 -0.00000000000E+00 -0.45593999997E+02  0.45594000000E+02  0.51100000000E-03 0. -1.
    9900012    2    1    2    0    0 -0.18333858040E+02  0.16890597504E+01  0.34196670479E+01  0.72461617643E+02  0.70000061680E+02 0.  0.
         12    1    1    2    0    0  0.18333858040E+02 -0.16890597504E+01 -0.34196670479E+01  0.18726382357E+02  0.00000000000E+00 0. -1.
         11    1    3    3    0    0 -0.79637669194E+01  0.27765195893E-01 -0.21563887722E+01  0.82505979935E+01  0.51100000000E-03 0. -1.
        -11    1    3    3    0    0 -0.33161382715E+02  0.15772690608E+02 -0.50028933102E+00  0.36724724128E+02  0.51100000000E-03 0.  1.
         12    1    3    3    0    0  0.22791291594E+02 -0.14111396054E+02  0.60763451511E+01  0.27486295522E+02  0.00000000000E+00 0. -1.
</event>
<event>
 7    1  0.2941727E-013  0.7246162E+02  0.7816164E-02  0.1226708E+00
        -11   -1    0    0    0    0  0.00000000000E+00  0.00000000000E+00  0.45593999997E+02  0.45594000000E+02  0.51100000000E-03 0. -1.
         11   -1    0    0    0    0 -0.00000000000E+00 -0.00000000000E+00 -0.45593999997E+02  0.45594000000E+02  0.51100000000E-03 0.  1.
    9900012    2    1    2    0    0 -0.29111401540E+01 -0.15593057627E+02 -0.99528358502E+01  0.72461624894E+02  0.70000071126E+02 0.  0.
         12    1    1    2    0    0  0.29111401540E+01  0.15593057627E+02  0.99528358502E+01  0.18726375106E+02  0.00000000000E+00 0. -1.
         11    1    3    3    0    0  0.10164730251E+02  0.63898592220E+00  0.22244956412E+02  0.24465652047E+02  0.51100000000E-03 0. -1.
        -11    1    3    3    0    0  0.30103491519E+01  0.65830119609E+01 -0.38027866675E+01  0.81767619015E+01  0.51100000000E-03 0.  1.
        -12    1    3    3    0    0 -0.16086219557E+02 -0.22815055510E+02 -0.28395005594E+02  0.39819210945E+02  0.00000000000E+00 0.  1.
</event>
<event>
 7    1  0.2941727E-013  0.7246229E+02  0.7816164E-02  0.1226706E+00
        -11   -1    0    0    0    0  0.00000000000E+00  0.00000000000E+00  0.45593999997E+02  0.45594000000E+02  0.51100000000E-03 0. -1.
         11   -1    0    0    0    0 -0.00000000000E+00 -0.00000000000E+00 -0.45593999997E+02  0.45594000000E+02  0.51100000000E-03 0.  1.
    9900012    2    1    2    0    0  0.17477906564E+02  0.62637555857E+01  0.24372569210E+01  0.72462293786E+02  0.70000942477E+02 0.  0.
         12    1    1    2    0    0 -0.17477906564E+02 -0.62637555857E+01 -0.24372569210E+01  0.18725706214E+02  0.00000000000E+00 0. -1.
         11    1    3    3    0    0 -0.79705504053E+01  0.76328265194E+01  0.97200466501E+01  0.14706087909E+02  0.51100000000E-03 0. -1.
        -11    1    3    3    0    0 -0.12851263376E+02 -0.26642688395E+01 -0.13619606783E+02  0.18914200697E+02  0.51100000000E-03 0.  1.
        -12    1    3    3    0    0  0.38299720345E+02  0.12951979058E+01  0.63368170544E+01  0.38842005181E+02  0.00000000000E+00 0.  1.
</event>
<event>
 7    1  0.2941727E-013  0.7246147E+02  0.7816164E-02  0.1226708E+00
        -11   -1    0    0    0    0  0.00000000000E+00  0.00000000000E+00  0.45593999997E+02  0.45594000000E+02  0.51100000000E-03 0.  1.
         11   -1    0    0    0    0 -0.00000000000E+00 -0.00000000000E+00 -0.45593999997E+02  0.45594000000E+02  0.51100000000E-03 0. -1.
    9900012    2    1    2    0    0  0.90525988690E+01 -0.16212999906E+02  0.24232079567E+01  0.72461472050E+02  0.69999872019E+02 0.  0.
         12    1    1    2    0    0 -0.90525988690E+01  0.16212999906E+02 -0.24232079567E+01  0.18726527950E+02  0.00000000000E+00 0. -1.
         11    1    3    3    0    0 -0.18025585444E+02 -0.30915309351E+02  0.12494605482E+01  0.35808368223E+02  0.51100000000E-03 0. -1.
        -11    1    3    3    0    0  0.16285763388E+01 -0.26560460879E+01 -0.43554463629E+01  0.53550681596E+01  0.51100000000E-03 0.  1.
        -12    1    3    3    0    0  0.25449607975E+02  0.17358355533E+02  0.55291937714E+01  0.31298035667E+02  0.00000000000E+00 0.  1.
</event>
<event>
 7    1  0.2941727E-013  0.7246161E+02  0.7816164E-02  0.1226708E+00
        -11   -1    0    0    0    0  0.00000000000E+00  0.00000000000E+00  0.45593999997E+02  0.45594000000E+02  0.51100000000E-03 0.  1.
         11   -1    0    0    0    0 -0.00000000000E+00 -0.00000000000E+00 -0.45593999997E+02  0.45594000000E+02  0.51100000000E-03 0. -1.
    9900012    2    1    2    0    0 -0.84239165306E+01  0.11615553020E+02  0.12033050376E+02  0.72461608382E+02  0.70000049616E+02 0.  0.
         12    1    1    2    0    0  0.84239165306E+01 -0.11615553020E+02 -0.12033050376E+02  0.18726391618E+02  0.00000000000E+00 0. -1.
         11    1    3    3    0    0 -0.17866928035E+02  0.21132705244E+02 -0.55274911983E+01  0.28220055059E+02  0.51100000000E-03 0. -1.
        -11    1    3    3    0    0 -0.81157117522E+01 -0.64150973414E+01 -0.79992379907E+01  0.13076928532E+02  0.51100000000E-03 0.  1.
        -12    1    3    3    0    0  0.17558723257E+02 -0.31020548823E+01  0.25559779565E+02  0.31164624790E+02  0.00000000000E+00 0.  1.
</event>
<event>
 7    1  0.2941727E-013  0.7246160E+02  0.7816164E-02  0.1226708E+00
        -11   -1    0    0    0    0  0.00000000000E+00  0.00000000000E+00  0.45593999997E+02  0.45594000000E+02  0.51100000000E-03 0.  1.
         11   -1    0    0    0    0 -0.00000000000E+00 -0.00000000000E+00 -0.45593999997E+02  0.45594000000E+02  0.51100000000E-03 0. -1.
    9900012    2    1    2    0    0 -0.50709434927E+01 -0.13684175894E+02  0.11734860257E+02  0.72461599303E+02  0.70000037789E+02 0.  0.
         12    1    1    2    0    0  0.50709434927E+01  0.13684175894E+02 -0.11734860257E+02  0.18726400697E+02  0.00000000000E+00 0. -1.
         11    1    3    3    0    0 -0.16564531855E+02 -0.55277184551E+01 -0.15407280669E+02  0.23287844142E+02  0.51100000000E-03 0. -1.
        -11    1    3    3    0    0  0.18794384975E+01 -0.12103677161E+02 -0.65675386322E+01  0.13898339967E+02  0.51100000000E-03 0.  1.
        -12    1    3    3    0    0  0.96141498653E+01  0.39472197219E+01  0.33709679558E+02  0.35275415194E+02  0.00000000000E+00 0.  1.
</event>
<event>
 7    1  0.2941727E-013  0.7246186E+02  0.7816164E-02  0.1226707E+00
        -11   -1    0    0    0    0  0.00000000000E+00  0.00000000000E+00  0.45593999997E+02  0.45594000000E+02  0.51100000000E-03 0.  1.
         11   -1    0    0    0    0 -0.00000000000E+00 -0.00000000000E+00 -0.45593999997E+02  0.45594000000E+02  0.51100000000E-03 0. -1.
    9900012    2    1    2    0    0 -0.15646106821E+01  0.18454918920E+02 -0.27634068064E+01  0.72461856347E+02  0.70000372636E+02 0.  0.
         12    1    1    2    0    0  0.15646106821E+01 -0.18454918920E+02  0.27634068064E+01  0.18726143653E+02  0.00000000000E+00 0. -1.
         11    1    3    3    0    0 -0.13173788456E+02  0.72868963573E+01 -0.53598694404E+01  0.15980480640E+02  0.51100000000E-03 0. -1.
        -11    1    3    3    0    0 -0.11069669099E+02  0.61904866007E+01  0.22546591600E+02  0.25869064369E+02  0.51100000000E-03 0.  1.
        -12    1    3    3    0    0  0.22678846873E+02  0.49775359619E+01 -0.19950128966E+02  0.30612311338E+02  0.00000000000E+00 0.  1.
</event>
<event>
 7    1  0.2941727E-013  0.7246150E+02  0.7816164E-02  0.1226708E+00
        -11   -1    0    0    0    0  0.00000000000E+00  0.00000000000E+00  0.45593999997E+02  0.45594000000E+02  0.51100000000E-03 0.  1.
         11   -1    0    0    0    0 -0.00000000000E+00 -0.00000000000E+00 -0.45593999997E+02  0.45594000000E+02  0.51100000000E-03 0. -1.
    9900012    2    1    2    0    0  0.72374356742E+01 -0.15998760695E+02  0.65069989634E+01  0.72461498607E+02  0.69999906614E+02 0.  0.
         12    1    1    2    0    0 -0.72374356742E+01  0.15998760695E+02 -0.65069989634E+01  0.18726501393E+02  0.00000000000E+00 0. -1.
         11    1    3    3    0    0  0.39041477207E+01  0.18900961531E+02 -0.16265269768E+01  0.19368384199E+02  0.51100000000E-03 0. -1.
        -11    1    3    3    0    0  0.53249161770E+01 -0.19281467834E+02 -0.15075190643E+02  0.25047776494E+02  0.51100000000E-03 0.  1.
         12    1    3    3    0    0 -0.19916282234E+01 -0.15618254392E+02  0.23208716583E+02  0.28045337913E+02  0.00000000000E+00 0. -1.
</event>
<event>
 7    1  0.2941727E-013  0.7246153E+02  0.7816164E-02  0.1226708E+00
        -11   -1    0    0    0    0  0.00000000000E+00  0.00000000000E+00  0.45593999997E+02  0.45594000000E+02  0.51100000000E-03 0. -1.
         11   -1    0    0    0    0 -0.00000000000E+00 -0.00000000000E+00 -0.45593999997E+02  0.45594000000E+02  0.51100000000E-03 0.  1.
    9900012    2    1    2    0    0 -0.10611214787E+02  0.14351219500E+02 -0.56679230392E+01  0.72461528576E+02  0.69999945655E+02 0.  0.
         12    1    1    2    0    0  0.10611214787E+02 -0.14351219500E+02  0.56679230392E+01  0.18726471424E+02  0.00000000000E+00 0. -1.
         11    1    3    3    0    0  0.15882322147E+01  0.30759583881E+02 -0.27049483678E+01  0.30919107814E+02  0.51100000000E-03 0. -1.
        -11    1    3    3    0    0 -0.88824251921E+01  0.53716573879E+01 -0.13574738981E+02  0.17088760021E+02  0.51100000000E-03 0.  1.
        -12    1    3    3    0    0 -0.33170218097E+01 -0.21780021769E+02  0.10611764309E+02  0.24453660742E+02  0.00000000000E+00 0.  1.
</event>
<event>
 7    1  0.2941727E-013  0.7246140E+02  0.7816164E-02  0.1226708E+00
        -11   -1    0    0    0    0  0.00000000000E+00  0.00000000000E+00  0.45593999997E+02  0.45594000000E+02  0.51100000000E-03 0. -1.
         11   -1    0    0    0    0 -0.00000000000E+00 -0.00000000000E+00 -0.45593999997E+02  0.45594000000E+02  0.51100000000E-03 0.  1.
    9900012    2    1    2    0    0 -0.14794647337E+02 -0.11479607889E+02  0.14998410153E+00  0.72461401741E+02  0.69999780428E+02 0.  0.
         12    1    1    2    0    0  0.14794647337E+02  0.11479607889E+02 -0.14998410153E+00  0.18726598259E+02  0.00000000000E+00 0. -1.
         11    1    3    3    0    0 -0.87717471636E+01 -0.16028418602E+02  0.47921006024E+01  0.18889626244E+02  0.51100000000E-03 0. -1.
        -11    1    3    3    0    0  0.12209629778E+02 -0.14327028765E+02 -0.16257571750E+02  0.24872624550E+02  0.51100000000E-03 0.  1.
        -12    1    3    3    0    0 -0.18232529952E+02  0.18875839478E+02  0.11615455249E+02  0.28699150947E+02  0.00000000000E+00 0.  1.
</event>
<event>
 7    1  0.2941727E-013  0.7246154E+02  0.7816164E-02  0.1226708E+00
        -11   -1    0    0    0    0  0.00000000000E+00  0.00000000000E+00  0.45593999997E+02  0.45594000000E+02  0.51100000000E-03 0. -1.
         11   -1    0    0    0    0 -0.00000000000E+00 -0.00000000000E+00 -0.45593999997E+02  0.45594000000E+02  0.51100000000E-03 0.  1.
    9900012    2    1    2    0    0 -0.45259949735E+01 -0.14097218665E+02 -0.11465774555E+02  0.72461543028E+02  0.69999964480E+02 0.  0.
         12    1    1    2    0    0  0.45259949735E+01  0.14097218665E+02  0.11465774555E+02  0.18726456972E+02  0.00000000000E+00 0. -1.
         11    1    3    3    0    0  0.14733377730E+02  0.54923393844E+01 -0.19247623497E+02  0.24853756694E+02  0.51100000000E-03 0. -1.
        -11    1    3    3    0    0 -0.78764834654E+00 -0.26378808910E+02 -0.14624884384E+00  0.26390970775E+02  0.51100000000E-03 0.  1.
         12    1    3    3    0    0 -0.18471724357E+02  0.67892508610E+01  0.79280977861E+01  0.21216815559E+02  0.00000000000E+00 0. -1.
</event>
<event>
 7    1  0.2941727E-013  0.7246154E+02  0.7816164E-02  0.1226708E+00
        -11   -1    0    0    0    0  0.00000000000E+00  0.00000000000E+00  0.45593999997E+02  0.45594000000E+02  0.51100000000E-03 0.  1.
         11   -1    0    0    0    0 -0.00000000000E+00 -0.00000000000E+00 -0.45593999997E+02  0.45594000000E+02  0.51100000000E-03 0. -1.
    9900012    2    1    2    0    0  0.68028864668E+00 -0.20472879296E+01  0.18601779501E+02  0.72461537944E+02  0.69999957858E+02 0.  0.
         12    1    1    2    0    0 -0.68028864668E+00  0.20472879296E+01 -0.18601779501E+02  0.18726462056E+02  0.00000000000E+00 0. -1.
         11    1    3    3    0    0  0.26090408034E+01  0.38445276347E+01  0.26934465121E+02  0.27332268443E+02  0.51100000000E-03 0. -1.
        -11    1    3    3    0    0  0.75645853554E+01  0.16089394783E+02 -0.11202945982E+02  0.21014223160E+02  0.51100000000E-03 0.  1.
         12    1    3    3    0    0 -0.94933375122E+01 -0.21981210348E+02  0.28702603624E+01  0.24115046341E+02  0.00000000000E+00 0. -1.
</event>
<event>
 7    1  0.3271251E-013  0.7246156E+02  0.7816164E-02  0.1226708E+00
        -11   -1    0    0    0    0  0.00000000000E+00  0.00000000000E+00  0.45593999997E+02  0.45594000000E+02  0.51100000000E-03 0. -1.
         11   -1    0    0    0    0 -0.00000000000E+00 -0.00000000000E+00 -0.45593999997E+02  0.45594000000E+02  0.51100000000E-03 0.  1.
    9900012    2    1    2    0    0  0.25059969806E+01 -0.68454666481E+01 -0.17249321939E+02  0.72461560353E+02  0.69999987049E+02 0.  0.
         12    1    1    2    0    0 -0.25059969806E+01  0.68454666481E+01  0.17249321939E+02  0.18726439647E+02  0.00000000000E+00 0. -1.
         11    1    3    3    0    0  0.21106401572E+02 -0.14153589980E+02  0.11003353681E+02  0.27692563787E+02  0.51100000000E-03 0. -1.
        -11    1    3    3    0    0  0.74788735036E+01 -0.22219899321E+00 -0.47429646264E+01  0.88588167937E+01  0.51100000000E-03 0.  1.
        -12    1    3    3    0    0 -0.26079278095E+02  0.75303223246E+01 -0.23509710994E+02  0.35910179772E+02  0.00000000000E+00 0.  1.
</event>
<event>
 7    1  0.2941727E-013  0.7246129E+02  0.7816164E-02  0.1226709E+00
        -11   -1    0    0    0    0  0.00000000000E+00  0.00000000000E+00  0.45593999997E+02  0.45594000000E+02  0.51100000000E-03 0. -1.
         11   -1    0    0    0    0 -0.00000000000E+00 -0.00000000000E+00 -0.45593999997E+02  0.45594000000E+02  0.51100000000E-03 0.  1.
    9900012    2    1    2    0    0 -0.12420927549E+02  0.64415750640E+01 -0.12446540147E+02  0.72461289341E+02  0.69999634005E+02 0.  0.
         12    1    1    2    0    0  0.12420927549E+02 -0.64415750640E+01  0.12446540147E+02  0.18726710659E+02  0.00000000000E+00 0. -1.
         11    1    3    3    0    0 -0.17249611267E+02 -0.10669327041E+02  0.14723839682E+02  0.25063421227E+02  0.51100000000E-03 0. -1.
        -11    1    3    3    0    0  0.52925509052E+01 -0.86318922778E+01 -0.22305326329E+00  0.10127705189E+02  0.51100000000E-03 0.  1.
        -12    1    3    3    0    0 -0.46386718712E+00  0.25742794383E+02 -0.26947326566E+02  0.37270162925E+02  0.00000000000E+00 0.  1.
</event>
<event>
 7    1  0.2941727E-013  0.7246154E+02  0.7816164E-02  0.1226708E+00
        -11   -1    0    0    0    0  0.00000000000E+00  0.00000000000E+00  0.45593999997E+02  0.45594000000E+02  0.51100000000E-03 0.  1.
         11   -1    0    0    0    0 -0.00000000000E+00 -0.00000000000E+00 -0.45593999997E+02  0.45594000000E+02  0.51100000000E-03 0. -1.
    9900012    2    1    2    0    0  0.11005953394E+02  0.89963900138E+00  0.15124146242E+02  0.72461543848E+02  0.69999965549E+02 0.  0.
         12    1    1    2    0    0 -0.11005953394E+02 -0.89963900138E+00 -0.15124146242E+02  0.18726456152E+02  0.00000000000E+00 0. -1.
         11    1    3    3    0    0  0.48461171571E+01 -0.75147160756E+01 -0.15574727868E+02  0.17959063383E+02  0.51100000000E-03 0. -1.
        -11    1    3    3    0    0  0.39898293831E+01 -0.93696186875E+01 -0.72743981412E+01  0.12515005451E+02  0.51100000000E-03 0.  1.
        -12    1    3    3    0    0  0.21700068539E+01  0.17783973764E+02  0.37973272251E+02  0.41987475014E+02  0.00000000000E+00 0.  1.
</event>
<event>
 7    1  0.2941727E-013  0.7246157E+02  0.7816164E-02  0.1226708E+00
        -11   -1    0    0    0    0  0.00000000000E+00  0.00000000000E+00  0.45593999997E+02  0.45594000000E+02  0.51100000000E-03 0. -1.
         11   -1    0    0    0    0 -0.00000000000E+00 -0.00000000000E+00 -0.45593999997E+02  0.45594000000E+02  0.51100000000E-03 0.  1.
    9900012    2    1    2    0    0 -0.71516377877E+01 -0.58075679367E+01 -0.16303534444E+02  0.72461574721E+02  0.70000005766E+02 0.  0.
         12    1    1    2    0    0  0.71516377877E+01  0.58075679367E+01  0.16303534444E+02  0.18726425279E+02  0.00000000000E+00 0. -1.
         11    1    3    3    0    0 -0.16939253205E+02  0.10609909958E+02 -0.51639371598E+01  0.20643999993E+02  0.51100000000E-03 0. -1.
        -11    1    3    3    0    0  0.11617747546E+02  0.11074039542E+02  0.83274663914E+01  0.18081844667E+02  0.51100000000E-03 0.  1.
        -12    1    3    3    0    0 -0.18301321289E+01 -0.27491517437E+02 -0.19467063675E+02  0.33735730061E+02  0.00000000000E+00 0.  1.
</event>
<event>
 7    1  0.2941727E-013  0.7246151E+02  0.7816164E-02  0.1226708E+00
        -11   -1    0    0    0    0  0.00000000000E+00  0.00000000000E+00  0.45593999997E+02  0.45594000000E+02  0.51100000000E-03 0.  1.
         11   -1    0    0    0    0 -0.00000000000E+00 -0.00000000000E+00 -0.45593999997E+02  0.45594000000E+02  0.51100000000E-03 0. -1.
    9900012    2    1    2    0    0  0.47708582322E+01  0.17898936371E+02  0.27474129367E+01  0.72461513695E+02  0.69999926269E+02 0.  0.
         12    1    1    2    0    0 -0.47708582322E+01 -0.17898936371E+02 -0.27474129367E+01  0.18726486305E+02  0.00000000000E+00 0. -1.
         11    1    3    3    0    0 -0.21613666725E+02  0.37475655771E+00 -0.53444761965E+01  0.22267789694E+02  0.51100000000E-03 0. -1.
        -11    1    3    3    0    0  0.19868706307E+02  0.26572623211E+02 -0.43765209923E+01  0.33466755607E+02  0.51100000000E-03 0.  1.
         12    1    3    3    0    0  0.65158186504E+01 -0.90484433980E+01  0.12468410126E+02  0.16726968394E+02  0.00000000000E+00 0. -1.
</event>
<event>
 7    1  0.2941727E-013  0.7246160E+02  0.7816164E-02  0.1226708E+00
        -11   -1    0    0    0    0  0.00000000000E+00  0.00000000000E+00  0.45593999997E+02  0.45594000000E+02  0.51100000000E-03 0. -1.
         11   -1    0    0    0    0 -0.00000000000E+00 -0.00000000000E+00 -0.45593999997E+02  0.45594000000E+02  0.51100000000E-03 0.  1.
    9900012    2    1    2    0    0 -0.28246724360E+01 -0.18105785300E+02 -0.38574470349E+01  0.72461597961E+02  0.70000036041E+02 0.  0.
         12    1    1    2    0    0  0.28246724360E+01  0.18105785300E+02  0.38574470349E+01  0.18726402039E+02  0.00000000000E+00 0. -1.
         11    1    3    3    0    0 -0.41122908679E+01  0.68455042652E+01  0.81319268658E+01  0.11397372488E+02  0.51100000000E-03 0. -1.
        -11    1    3    3    0    0 -0.55784611102E+01  0.12608745024E+02  0.99725734449E+01  0.17016224635E+02  0.51100000000E-03 0.  1.
        -12    1    3    3    0    0  0.68660795420E+01 -0.37560034589E+02 -0.21961947346E+02  0.44048000838E+02  0.00000000000E+00 0.  1.
</event>
<event>
 7    1  0.2941727E-013  0.7246158E+02  0.7816164E-02  0.1226708E+00
        -11   -1    0    0    0    0  0.00000000000E+00  0.00000000000E+00  0.45593999997E+02  0.45594000000E+02  0.51100000000E-03 0.  1.
         11   -1    0    0    0    0 -0.00000000000E+00 -0.00000000000E+00 -0.45593999997E+02  0.45594000000E+02  0.51100000000E-03 0. -1.
    9900012    2    1    2    0    0  0.15806122331E+02 -0.93588937467E+01  0.36409173260E+01  0.72461583517E+02  0.70000017225E+02 0.  0.
         12    1    1    2    0    0 -0.15806122331E+02  0.93588937467E+01 -0.36409173260E+01  0.18726416483E+02  0.00000000000E+00 0. -1.
         11    1    3    3    0    0  0.22180948841E+02 -0.11949495019E+02 -0.13823652197E+02  0.28738098111E+02  0.51100000000E-03 0. -1.
        -11    1    3    3    0    0  0.51727580234E+01  0.80556751091E+01 -0.97469840058E+01  0.13662174955E+02  0.51100000000E-03 0.  1.
        -12    1    3    3    0    0 -0.11547584534E+02 -0.54650738367E+01  0.27211553529E+02  0.30061310451E+02  0.00000000000E+00 0.  1.
</event>
<event>
 7    1  0.2941727E-013  0.7246157E+02  0.7816164E-02  0.1226708E+00
        -11   -1    0    0    0    0  0.00000000000E+00  0.00000000000E+00  0.45593999997E+02  0.45594000000E+02  0.51100000000E-03 0.  1.
         11   -1    0    0    0    0 -0.00000000000E+00 -0.00000000000E+00 -0.45593999997E+02  0.45594000000E+02  0.51100000000E-03 0. -1.
    9900012    2    1    2    0    0 -0.12339612460E+02 -0.12068681107E+02 -0.72636077967E+01  0.72461572216E+02  0.70000002503E+02 0.  0.
         12    1    1    2    0    0  0.12339612460E+02  0.12068681107E+02  0.72636077967E+01  0.18726427784E+02  0.00000000000E+00 0. -1.
         11    1    3    3    0    0  0.37814340350E+01  0.12262302693E+02  0.21284786272E+01  0.13007449105E+02  0.51100000000E-03 0. -1.
        -11    1    3    3    0    0  0.17609611352E+02 -0.15942793213E+02 -0.14396013026E+01  0.23797973014E+02  0.51100000000E-03 0.  1.
         12    1    3    3    0    0 -0.33730657847E+02 -0.83881905874E+01 -0.79524851213E+01  0.35656150097E+02  0.00000000000E+00 0. -1.
</event>
<event>
 7    1  0.2941727E-013  0.7246159E+02  0.7816164E-02  0.1226708E+00
        -11   -1    0    0    0    0  0.00000000000E+00  0.00000000000E+00  0.45593999997E+02  0.45594000000E+02  0.51100000000E-03 0.  1.
         11   -1    0    0    0    0 -0.00000000000E+00 -0.00000000000E+00 -0.45593999997E+02  0.45594000000E+02  0.51100000000E-03 0. -1.
    9900012    2    1    2    0    0  0.12912865028E+02  0.43266544331E+01  0.12853649052E+02  0.72461593090E+02  0.70000029696E+02 0.  0.
         12    1    1    2    0    0 -0.12912865028E+02 -0.43266544331E+01 -0.12853649052E+02  0.18726406910E+02  0.00000000000E+00 0. -1.
         11    1    3    3    0    0  0.11749788070E+02 -0.13040717857E+02  0.26580188313E+01  0.17753391402E+02  0.51100000000E-03 0. -1.
        -11    1    3    3    0    0  0.11293606469E+02 -0.79872140903E+01  0.21164343928E+02  0.25283800944E+02  0.51100000000E-03 0.  1.
         12    1    3    3    0    0 -0.10130529511E+02  0.25354586380E+02 -0.10968713708E+02  0.29424400743E+02  0.00000000000E+00 0. -1.
</event>
<event>
 7    1  0.2941727E-013  0.7246153E+02  0.7816164E-02  0.1226708E+00
        -11   -1    0    0    0    0  0.00000000000E+00  0.00000000000E+00  0.45593999997E+02  0.45594000000E+02  0.51100000000E-03 0.  1.
         11   -1    0    0    0    0 -0.00000000000E+00 -0.00000000000E+00 -0.45593999997E+02  0.45594000000E+02  0.51100000000E-03 0. -1.
    9900012    2    1    2    0    0 -0.60751942323E-01 -0.58209167098E+01  0.17798705476E+02  0.72461529997E+02  0.69999947505E+02 0.  0.
         12    1    1    2    0    0  0.60751942323E-01  0.58209167098E+01 -0.17798705476E+02  0.18726470003E+02  0.00000000000E+00 0. -1.
         11    1    3    3    0    0  0.17416412608E+02  0.93164651214E+01 -0.10938518824E+02  0.22578289236E+02  0.51100000000E-03 0. -1.
        -11    1    3    3    0    0 -0.12263577576E+02  0.79012836625E+01  0.28967452839E+01  0.14873357119E+02  0.51100000000E-03 0.  1.
        -12    1    3    3    0    0 -0.52135869740E+01 -0.23038665494E+02  0.25840479016E+02  0.35009883642E+02  0.00000000000E+00 0.  1.
</event>
<event>
 7    1  0.2941727E-013  0.7246112E+02  0.7816164E-02  0.1226709E+00
        -11   -1    0    0    0    0  0.00000000000E+00  0.00000000000E+00  0.45593999997E+02  0.45594000000E+02  0.51100000000E-03 0.  1.
         11   -1    0    0    0    0 -0.00000000000E+00 -0.00000000000E+00 -0.45593999997E+02  0.45594000000E+02  0.51100000000E-03 0. -1.
    9900012    2    1    2    0    0 -0.88949051786E-01 -0.15229741100E+02 -0.10896924984E+02  0.72461123592E+02  0.69999418084E+02 0.  0.
         12    1    1    2    0    0  0.88949051786E-01  0.15229741100E+02  0.10896924984E+02  0.18726876408E+02  0.00000000000E+00 0. -1.
         11    1    3    3    0    0 -0.10880804245E+02 -0.17448141344E+02  0.15522753750E+02  0.25764033489E+02  0.51100000000E-03 0. -1.
        -11    1    3    3    0    0  0.33548515236E+01  0.10937092874E+02  0.55647425705E+01  0.12721689723E+02  0.51100000000E-03 0.  1.
         12    1    3    3    0    0  0.74370036699E+01 -0.87186926302E+01 -0.31984421304E+02  0.33975400379E+02  0.00000000000E+00 0. -1.
</event>
<event>
 7    1  0.2941727E-013  0.7246158E+02  0.7816164E-02  0.1226708E+00
        -11   -1    0    0    0    0  0.00000000000E+00  0.00000000000E+00  0.45593999997E+02  0.45594000000E+02  0.51100000000E-03 0.  1.
         11   -1    0    0    0    0 -0.00000000000E+00 -0.00000000000E+00 -0.45593999997E+02  0.45594000000E+02  0.51100000000E-03 0. -1.
    9900012    2    1    2    0    0  0.50465300493E+01  0.10303938091E+02  0.14800003134E+02  0.72461582871E+02  0.70000016384E+02 0.  0.
         12    1    1    2    0    0 -0.50465300493E+01 -0.10303938091E+02 -0.14800003134E+02  0.18726417129E+02  0.00000000000E+00 0. -1.
         11    1    3    3    0    0 -0.48077727444E+01 -0.83280063818E+01  0.17612418618E+02  0.20066580647E+02  0.51100000000E-03 0. -1.
        -11    1    3    3    0    0 -0.78081861878E+01 -0.11095107116E+02  0.85038948686E+01  0.16012039272E+02  0.51100000000E-03 0.  1.
        -12    1    3    3    0    0  0.17662488981E+02  0.29727051588E+02 -0.11316310352E+02  0.36382962952E+02  0.00000000000E+00 0.  1.
</event>
<event>
 7    1  0.2941727E-013  0.7246155E+02  0.7816164E-02  0.1226708E+00
        -11   -1    0    0    0    0  0.00000000000E+00  0.00000000000E+00  0.45593999997E+02  0.45594000000E+02  0.51100000000E-03 0.  1.
         11   -1    0    0    0    0 -0.00000000000E+00 -0.00000000000E+00 -0.45593999997E+02  0.45594000000E+02  0.51100000000E-03 0. -1.
    9900012    2    1    2    0    0 -0.63726416266E+01  0.12235073478E+02  0.12663814302E+02  0.72461554075E+02  0.69999978872E+02 0.  0.
         12    1    1    2    0    0  0.63726416266E+01 -0.12235073478E+02 -0.12663814302E+02  0.18726445925E+02  0.00000000000E+00 0. -1.
         11    1    3    3    0    0 -0.16008025344E+01  0.14579141986E+02 -0.15811461684E+01  0.14751744754E+02  0.51100000000E-03 0. -1.
        -11    1    3    3    0    0  0.24912098216E+02  0.45539247572E+01  0.83826150554E+01  0.26676189826E+02  0.51100000000E-03 0.  1.
         12    1    3    3    0    0 -0.29683937308E+02 -0.68979932658E+01  0.58623454147E+01  0.31033619495E+02  0.00000000000E+00 0. -1.
</event>
<event>
 7    1  0.2941727E-013  0.7246154E+02  0.7816164E-02  0.1226708E+00
        -11   -1    0    0    0    0  0.00000000000E+00  0.00000000000E+00  0.45593999997E+02  0.45594000000E+02  0.51100000000E-03 0. -1.
         11   -1    0    0    0    0 -0.00000000000E+00 -0.00000000000E+00 -0.45593999997E+02  0.45594000000E+02  0.51100000000E-03 0.  1.
    9900012    2    1    2    0    0 -0.82245996113E+00  0.10960654542E+01 -0.18676260007E+02  0.72461535099E+02  0.69999954151E+02 0.  0.
         12    1    1    2    0    0  0.82245996113E+00 -0.10960654542E+01  0.18676260007E+02  0.18726464901E+02  0.00000000000E+00 0. -1.
         11    1    3    3    0    0  0.15748658336E+01  0.61188899153E+01  0.14474144821E+02  0.15793096111E+02  0.51100000000E-03 0. -1.
        -11    1    3    3    0    0  0.63992564684E+01  0.18711341271E+02 -0.91594971419E+01  0.21793603732E+02  0.51100000000E-03 0.  1.
         12    1    3    3    0    0 -0.87965822632E+01 -0.23734165732E+02 -0.23990907686E+02  0.34874835255E+02  0.00000000000E+00 0. -1.
</event>
<event>
 7    1  0.2941727E-013  0.7246154E+02  0.7816164E-02  0.1226708E+00
        -11   -1    0    0    0    0  0.00000000000E+00  0.00000000000E+00  0.45593999997E+02  0.45594000000E+02  0.51100000000E-03 0.  1.
         11   -1    0    0    0    0 -0.00000000000E+00 -0.00000000000E+00 -0.45593999997E+02  0.45594000000E+02  0.51100000000E-03 0. -1.
    9900012    2    1    2    0    0  0.11826882494E+02  0.10834830384E+02  0.96649660907E+01  0.72461540952E+02  0.69999961775E+02 0.  0.
         12    1    1    2    0    0 -0.11826882494E+02 -0.10834830384E+02 -0.96649660907E+01  0.18726459048E+02  0.00000000000E+00 0. -1.
         11    1    3    3    0    0 -0.14330740270E+02  0.11750618695E+02 -0.59159583336E+01  0.19453681391E+02  0.51100000000E-03 0. -1.
        -11    1    3    3    0    0 -0.96416288108E+01  0.44155247593E+01 -0.46095719007E+01  0.11563131859E+02  0.51100000000E-03 0.  1.
        -12    1    3    3    0    0  0.35799251575E+02 -0.53313130702E+01  0.20190496325E+02  0.41444727701E+02  0.00000000000E+00 0.  1.
</event>
<event>
 7    1  0.2941727E-013  0.7246148E+02  0.7816164E-02  0.1226708E+00
        -11   -1    0    0    0    0  0.00000000000E+00  0.00000000000E+00  0.45593999997E+02  0.45594000000E+02  0.51100000000E-03 0.  1.
         11   -1    0    0    0    0 -0.00000000000E+00 -0.00000000000E+00 -0.45593999997E+02  0.45594000000E+02  0.51100000000E-03 0. -1.
    9900012    2    1    2    0    0  0.22517348204E+01 -0.18552949349E+02  0.11833904203E+01  0.72461477308E+02  0.69999878869E+02 0.  0.
         12    1    1    2    0    0 -0.22517348204E+01  0.18552949349E+02 -0.11833904203E+01  0.18726522692E+02  0.00000000000E+00 0. -1.
         11    1    3    3    0    0 -0.31544288908E+01 -0.41474862503E+01 -0.39300375734E+01  0.65266575989E+01  0.51100000000E-03 0. -1.
        -11    1    3    3    0    0  0.10286360225E+02 -0.38482064894E+02 -0.32956437192E+01  0.39969235581E+02  0.51100000000E-03 0.  1.
         12    1    3    3    0    0 -0.48801965139E+01  0.24076601796E+02  0.84090717129E+01  0.25965584128E+02  0.00000000000E+00 0. -1.
</event>
<event>
 7    1  0.2941727E-013  0.7246161E+02  0.7816164E-02  0.1226708E+00
        -11   -1    0    0    0    0  0.00000000000E+00  0.00000000000E+00  0.45593999997E+02  0.45594000000E+02  0.51100000000E-03 0.  1.
         11   -1    0    0    0    0 -0.00000000000E+00 -0.00000000000E+00 -0.45593999997E+02  0.45594000000E+02  0.51100000000E-03 0. -1.
    9900012    2    1    2    0    0  0.13347364302E+00  0.14695164334E+02 -0.11606543711E+02  0.72461614152E+02  0.70000057133E+02 0.  0.
         12    1    1    2    0    0 -0.13347364302E+00 -0.14695164334E+02  0.11606543711E+02  0.18726385848E+02  0.00000000000E+00 0. -1.
         11    1    3    3    0    0  0.65118355684E+01 -0.16813071555E+02 -0.11769536697E+02  0.21531497206E+02  0.51100000000E-03 0. -1.
        -11    1    3    3    0    0 -0.19401250200E+01  0.10488438782E+02  0.19370097999E+02  0.22112714214E+02  0.51100000000E-03 0.  1.
         12    1    3    3    0    0 -0.44382369054E+01  0.21019797108E+02 -0.19207105012E+02  0.28817402732E+02  0.00000000000E+00 0. -1.
</event>
<event>
 7    1  0.2941727E-013  0.7246157E+02  0.7816164E-02  0.1226708E+00
        -11   -1    0    0    0    0  0.00000000000E+00  0.00000000000E+00  0.45593999997E+02  0.45594000000E+02  0.51100000000E-03 0.  1.
         11   -1    0    0    0    0 -0.00000000000E+00 -0.00000000000E+00 -0.45593999997E+02  0.45594000000E+02  0.51100000000E-03 0. -1.
    9900012    2    1    2    0    0 -0.91954442852E+00 -0.74003268223E-01  0.18703689683E+02  0.72461573587E+02  0.70000004290E+02 0.  0.
         12    1    1    2    0    0  0.91954442852E+00  0.74003268223E-01 -0.18703689683E+02  0.18726426413E+02  0.00000000000E+00 0. -1.
         11    1    3    3    0    0  0.92295098018E+01 -0.12741102946E+01 -0.95836408731E+00  0.93661982794E+01  0.51100000000E-03 0. -1.
        -11    1    3    3    0    0 -0.19816463333E+02 -0.24532873505E+02  0.16001082879E+02  0.35363664332E+02  0.51100000000E-03 0.  1.
         12    1    3    3    0    0  0.96674091023E+01  0.25732980532E+02  0.36609708908E+01  0.27731710976E+02  0.00000000000E+00 0. -1.
</event>
<event>
 7    1  0.2941727E-013  0.7246151E+02  0.7816164E-02  0.1226708E+00
        -11   -1    0    0    0    0  0.00000000000E+00  0.00000000000E+00  0.45593999997E+02  0.45594000000E+02  0.51100000000E-03 0.  1.
         11   -1    0    0    0    0 -0.00000000000E+00 -0.00000000000E+00 -0.45593999997E+02  0.45594000000E+02  0.51100000000E-03 0. -1.
    9900012    2    1    2    0    0 -0.67403846515E+00 -0.16019848923E+02  0.96742685874E+01  0.72461511806E+02  0.69999923808E+02 0.  0.
         12    1    1    2    0    0  0.67403846515E+00  0.16019848923E+02 -0.96742685874E+01  0.18726488194E+02  0.00000000000E+00 0. -1.
         11    1    3    3    0    0  0.12800904533E+01  0.10505209036E+02 -0.45055330097E+01  0.11502081395E+02  0.51100000000E-03 0. -1.
        -11    1    3    3    0    0 -0.12939509547E+02  0.11279601165E+02  0.13070494309E+02  0.21575405709E+02  0.51100000000E-03 0.  1.
         12    1    3    3    0    0  0.10985380628E+02 -0.37804659125E+02  0.11093072886E+01  0.39384024702E+02  0.00000000000E+00 0. -1.
</event>
<event>
 7    1  0.2941727E-013  0.7246156E+02  0.7816164E-02  0.1226708E+00
        -11   -1    0    0    0    0  0.00000000000E+00  0.00000000000E+00  0.45593999997E+02  0.45594000000E+02  0.51100000000E-03 0.  1.
         11   -1    0    0    0    0 -0.00000000000E+00 -0.00000000000E+00 -0.45593999997E+02  0.45594000000E+02  0.51100000000E-03 0. -1.
    9900012    2    1    2    0    0  0.12299418131E+02  0.13227588395E+02  0.49431714477E+01  0.72461555461E+02  0.69999980677E+02 0.  0.
         12    1    1    2    0    0 -0.12299418131E+02 -0.13227588395E+02 -0.49431714477E+01  0.18726444539E+02  0.00000000000E+00 0. -1.
         11    1    3    3    0    0  0.65129172261E+01  0.15779431898E+02  0.65151565448E+01  0.18271722056E+02  0.51100000000E-03 0. -1.
        -11    1    3    3    0    0  0.12048098999E+02  0.20711155394E+02  0.11722084626E+02  0.26674255669E+02  0.51100000000E-03 0.  1.
         12    1    3    3    0    0 -0.62615980940E+01 -0.23262998897E+02 -0.13294069723E+02  0.27515577736E+02  0.00000000000E+00 0. -1.
</event>
<event>
 7    1  0.2941727E-013  0.7246159E+02  0.7816164E-02  0.1226708E+00
        -11   -1    0    0    0    0  0.00000000000E+00  0.00000000000E+00  0.45593999997E+02  0.45594000000E+02  0.51100000000E-03 0.  1.
         11   -1    0    0    0    0 -0.00000000000E+00 -0.00000000000E+00 -0.45593999997E+02  0.45594000000E+02  0.51100000000E-03 0. -1.
    9900012    2    1    2    0    0 -0.11812260077E+02  0.11422725388E+02  0.89816740622E+01  0.72461585170E+02  0.70000019379E+02 0.  0.
         12    1    1    2    0    0  0.11812260077E+02 -0.11422725388E+02 -0.89816740622E+01  0.18726414830E+02  0.00000000000E+00 0. -1.
         11    1    3    3    0    0 -0.17932076583E+02  0.23882846733E+00 -0.21037571001E+02  0.27644091656E+02  0.51100000000E-03 0. -1.
        -11    1    3    3    0    0  0.10542587351E+02  0.24958982837E+00 -0.19656045117E+01  0.10727163861E+02  0.51100000000E-03 0.  1.
        -12    1    3    3    0    0 -0.44227708455E+01  0.10934307092E+02  0.31984849575E+02  0.34090329653E+02  0.00000000000E+00 0.  1.
</event>
<event>
 7    1  0.2941727E-013  0.7246141E+02  0.7816164E-02  0.1226708E+00
        -11   -1    0    0    0    0  0.00000000000E+00  0.00000000000E+00  0.45593999997E+02  0.45594000000E+02  0.51100000000E-03 0. -1.
         11   -1    0    0    0    0 -0.00000000000E+00 -0.00000000000E+00 -0.45593999997E+02  0.45594000000E+02  0.51100000000E-03 0.  1.
    9900012    2    1    2    0    0  0.15435879950E+02  0.10577477369E+02 -0.73182792818E+00  0.72461414901E+02  0.69999797572E+02 0.  0.
         12    1    1    2    0    0 -0.15435879950E+02 -0.10577477369E+02  0.73182792818E+00  0.18726585099E+02  0.00000000000E+00 0. -1.
         11    1    3    3    0    0  0.17463748732E+01  0.65750456874E+01  0.94011342288E+00  0.68676680539E+01  0.51100000000E-03 0. -1.
        -11    1    3    3    0    0  0.14936382895E+02  0.20149723525E+02 -0.26155562422E+02  0.36238382110E+02  0.51100000000E-03 0.  1.
        -12    1    3    3    0    0 -0.12468778175E+01 -0.16147291843E+02  0.24483621071E+02  0.29355364738E+02  0.00000000000E+00 0.  1.
</event>
<event>
 7    1  0.2941727E-013  0.7246156E+02  0.7816164E-02  0.1226708E+00
        -11   -1    0    0    0    0  0.00000000000E+00  0.00000000000E+00  0.45593999997E+02  0.45594000000E+02  0.51100000000E-03 0.  1.
         11   -1    0    0    0    0 -0.00000000000E+00 -0.00000000000E+00 -0.45593999997E+02  0.45594000000E+02  0.51100000000E-03 0. -1.
    9900012    2    1    2    0    0 -0.50370535494E+01 -0.10148528500E+02  0.14910235119E+02  0.72461557452E+02  0.69999983271E+02 0.  0.
         12    1    1    2    0    0  0.50370535494E+01  0.10148528500E+02 -0.14910235119E+02  0.18726442548E+02  0.00000000000E+00 0. -1.
         11    1    3    3    0    0 -0.89609277645E+01 -0.31176934397E+02  0.10530985832E+02  0.34105734527E+02  0.51100000000E-03 0. -1.
        -11    1    3    3    0    0  0.35746827999E+01 -0.15564514529E-01 -0.11466524940E+02  0.12010819865E+02  0.51100000000E-03 0.  1.
        -12    1    3    3    0    0  0.34919141522E+00  0.21043970412E+02  0.15845774228E+02  0.26345003060E+02  0.00000000000E+00 0.  1.
</event>
<event>
 7    1  0.2941727E-013  0.7246157E+02  0.7816164E-02  0.1226708E+00
        -11   -1    0    0    0    0  0.00000000000E+00  0.00000000000E+00  0.45593999997E+02  0.45594000000E+02  0.51100000000E-03 0.  1.
         11   -1    0    0    0    0 -0.00000000000E+00 -0.00000000000E+00 -0.45593999997E+02  0.45594000000E+02  0.51100000000E-03 0. -1.
    9900012    2    1    2    0    0  0.77797919562E+01 -0.12728057352E+02  0.11320357924E+02  0.72461571874E+02  0.70000002058E+02 0.  0.
         12    1    1    2    0    0 -0.77797919562E+01  0.12728057352E+02 -0.11320357924E+02  0.18726428126E+02  0.00000000000E+00 0. -1.
         11    1    3    3    0    0  0.26212117274E+01 -0.22167871717E+02  0.24942755963E+01  0.22461226556E+02  0.51100000000E-03 0. -1.
        -11    1    3    3    0    0  0.11187055726E+02  0.14411542773E+02  0.25634816620E+02  0.31464052573E+02  0.51100000000E-03 0.  1.
         12    1    3    3    0    0 -0.60284754973E+01 -0.49717284074E+01 -0.16808734293E+02  0.18536292745E+02  0.00000000000E+00 0. -1.
</event>
<event>
 7    1  0.2941727E-013  0.7246162E+02  0.7816164E-02  0.1226708E+00
        -11   -1    0    0    0    0  0.00000000000E+00  0.00000000000E+00  0.45593999997E+02  0.45594000000E+02  0.51100000000E-03 0. -1.
         11   -1    0    0    0    0 -0.00000000000E+00 -0.00000000000E+00 -0.45593999997E+02  0.45594000000E+02  0.51100000000E-03 0.  1.
    9900012    2    1    2    0    0  0.18636367242E+02 -0.17958209115E+01  0.37158849736E+00  0.72461621954E+02  0.70000067296E+02 0.  0.
         12    1    1    2    0    0 -0.18636367242E+02  0.17958209115E+01 -0.37158849736E+00  0.18726378046E+02  0.00000000000E+00 0. -1.
         11    1    3    3    0    0  0.97719344953E+01  0.87627099471E+01 -0.12051765981E+02  0.17819114818E+02  0.51100000000E-03 0. -1.
        -11    1    3    3    0    0  0.27887151409E+02 -0.41573674410E+01 -0.42953041189E+01  0.28520633855E+02  0.51100000000E-03 0.  1.
         12    1    3    3    0    0 -0.19022718662E+02 -0.64011634177E+01  0.16718658597E+02  0.26121873281E+02  0.00000000000E+00 0. -1.
</event>
<event>
 7    1  0.2941727E-013  0.7246158E+02  0.7816164E-02  0.1226708E+00
        -11   -1    0    0    0    0  0.00000000000E+00  0.00000000000E+00  0.45593999997E+02  0.45594000000E+02  0.51100000000E-03 0. -1.
         11   -1    0    0    0    0 -0.00000000000E+00 -0.00000000000E+00 -0.45593999997E+02  0.45594000000E+02  0.51100000000E-03 0.  1.
    9900012    2    1    2    0    0  0.12477972884E+02 -0.67103283937E+01 -0.12245423139E+02  0.72461582769E+02  0.70000016250E+02 0.  0.
         12    1    1    2    0    0 -0.12477972884E+02  0.67103283937E+01  0.12245423139E+02  0.18726417231E+02  0.00000000000E+00 0. -1.
         11    1    3    3    0    0  0.23446702517E+01  0.21477138228E+02 -0.10627540580E+02  0.24077158555E+02  0.51100000000E-03 0. -1.
        -11    1    3    3    0    0 -0.24823537261E+01 -0.19617510430E+02 -0.17470846992E+02  0.26386346666E+02  0.51100000000E-03 0.  1.
        -12    1    3    3    0    0  0.12615656359E+02 -0.85699561912E+01  0.15852964433E+02  0.21998077548E+02  0.00000000000E+00 0.  1.
</event>
<event>
 7    1  0.2941727E-013  0.7246155E+02  0.7816164E-02  0.1226708E+00
        -11   -1    0    0    0    0  0.00000000000E+00  0.00000000000E+00  0.45593999997E+02  0.45594000000E+02  0.51100000000E-03 0.  1.
         11   -1    0    0    0    0 -0.00000000000E+00 -0.00000000000E+00 -0.45593999997E+02  0.45594000000E+02  0.51100000000E-03 0. -1.
    9900012    2    1    2    0    0  0.14422333578E+02  0.11121966793E+02 -0.43563720830E+01  0.72461552689E+02  0.69999977066E+02 0.  0.
         12    1    1    2    0    0 -0.14422333578E+02 -0.11121966793E+02  0.43563720830E+01  0.18726447311E+02  0.00000000000E+00 0. -1.
         11    1    3    3    0    0  0.55034360807E+01 -0.55518918784E+01 -0.49720867919E+01  0.92646078952E+01  0.51100000000E-03 0. -1.
        -11    1    3    3    0    0  0.33766443968E+02  0.16399322953E+02 -0.45615909433E+01  0.37814265083E+02  0.51100000000E-03 0.  1.
         12    1    3    3    0    0 -0.24847546471E+02  0.27453571773E+00  0.51773056521E+01  0.25382679711E+02  0.00000000000E+00 0. -1.
</event>
<event>
 7    1  0.2941727E-013  0.7246159E+02  0.7816164E-02  0.1226708E+00
        -11   -1    0    0    0    0  0.00000000000E+00  0.00000000000E+00  0.45593999997E+02  0.45594000000E+02  0.51100000000E-03 0.  1.
         11   -1    0    0    0    0 -0.00000000000E+00 -0.00000000000E+00 -0.45593999997E+02  0.45594000000E+02  0.51100000000E-03 0. -1.
    9900012    2    1    2    0    0  0.88932098251E+01  0.16461726339E+02 -0.77510265952E+00  0.72461590862E+02  0.70000026793E+02 0.  0.
         12    1    1    2    0    0 -0.88932098251E+01 -0.16461726339E+02  0.77510265952E+00  0.18726409138E+02  0.00000000000E+00 0. -1.
         11    1    3    3    0    0  0.17631629519E+02 -0.97370295060E+01  0.12911303260E+01  0.20182941333E+02  0.51100000000E-03 0. -1.
        -11    1    3    3    0    0 -0.12552152446E+02 -0.70937528583E+01 -0.10363927661E+02  0.17756375122E+02  0.51100000000E-03 0.  1.
        -12    1    3    3    0    0  0.38137327530E+01  0.33292508704E+02  0.82976946755E+01  0.34522274407E+02  0.00000000000E+00 0.  1.
</event>
<event>
 7    1  0.2941727E-013  0.7246156E+02  0.7816164E-02  0.1226708E+00
        -11   -1    0    0    0    0  0.00000000000E+00  0.00000000000E+00  0.45593999997E+02  0.45594000000E+02  0.51100000000E-03 0.  1.
         11   -1    0    0    0    0 -0.00000000000E+00 -0.00000000000E+00 -0.45593999997E+02  0.45594000000E+02  0.51100000000E-03 0. -1.
    9900012    2    1    2    0    0  0.15607762789E+02 -0.98601925033E+01  0.31390633910E+01  0.72461564823E+02  0.69999992872E+02 0.  0.
         12    1    1    2    0    0 -0.15607762789E+02  0.98601925033E+01 -0.31390633910E+01  0.18726435177E+02  0.00000000000E+00 0. -1.
         11    1    3    3    0    0  0.14417261463E+02  0.21122999751E+02 -0.92195189914E+01  0.27185254777E+02  0.51100000000E-03 0. -1.
        -11    1    3    3    0    0  0.31792681489E+01  0.47741254654E+01  0.70242455110E+01  0.90686297301E+01  0.51100000000E-03 0.  1.
        -12    1    3    3    0    0 -0.19887668230E+01 -0.35757317720E+02  0.53343368714E+01  0.36207680316E+02  0.00000000000E+00 0.  1.
</event>
<event>
 7    1  0.2941727E-013  0.7246157E+02  0.7816164E-02  0.1226708E+00
        -11   -1    0    0    0    0  0.00000000000E+00  0.00000000000E+00  0.45593999997E+02  0.45594000000E+02  0.51100000000E-03 0. -1.
         11   -1    0    0    0    0 -0.00000000000E+00 -0.00000000000E+00 -0.45593999997E+02  0.45594000000E+02  0.51100000000E-03 0.  1.
    9900012    2    1    2    0    0  0.13131965812E+02 -0.64949976360E+01  0.11663862601E+02  0.72461569183E+02  0.69999998552E+02 0.  0.
         12    1    1    2    0    0 -0.13131965812E+02  0.64949976360E+01 -0.11663862601E+02  0.18726430817E+02  0.00000000000E+00 0. -1.
         11    1    3    3    0    0  0.28666025067E+02 -0.83528177728E+01  0.13386269117E+02  0.32721594690E+02  0.51100000000E-03 0. -1.
        -11    1    3    3    0    0  0.10560318794E+02 -0.60493143331E+01 -0.26609735947E+01  0.12457741274E+02  0.51100000000E-03 0.  1.
        -12    1    3    3    0    0 -0.26094378049E+02  0.79071344699E+01  0.93856707776E+00  0.27282233219E+02  0.00000000000E+00 0.  1.
</event>
<event>
 7    1  0.2941727E-013  0.7246154E+02  0.7816164E-02  0.1226708E+00
        -11   -1    0    0    0    0  0.00000000000E+00  0.00000000000E+00  0.45593999997E+02  0.45594000000E+02  0.51100000000E-03 0.  1.
         11   -1    0    0    0    0 -0.00000000000E+00 -0.00000000000E+00 -0.45593999997E+02  0.45594000000E+02  0.51100000000E-03 0. -1.
    9900012    2    1    2    0    0 -0.76105238536E+01  0.16811837884E+02  0.31815728916E+01  0.72461538176E+02  0.69999958160E+02 0.  0.
         12    1    1    2    0    0  0.76105238536E+01 -0.16811837884E+02 -0.31815728916E+01  0.18726461824E+02  0.00000000000E+00 0. -1.
         11    1    3    3    0    0 -0.24439056747E+02 -0.12765974683E+02 -0.54986276760E+01  0.28115342980E+02  0.51100000000E-03 0. -1.
        -11    1    3    3    0    0  0.16074808146E+01  0.93604197627E+00  0.11629519030E+02  0.11777346147E+02  0.51100000000E-03 0.  1.
        -12    1    3    3    0    0  0.15221052079E+02  0.28641770591E+02 -0.29493184622E+01  0.32568849049E+02  0.00000000000E+00 0.  1.
</event>
<event>
 7    1  0.2941727E-013  0.7246136E+02  0.7816164E-02  0.1226709E+00
        -11   -1    0    0    0    0  0.00000000000E+00  0.00000000000E+00  0.45593999997E+02  0.45594000000E+02  0.51100000000E-03 0.  1.
         11   -1    0    0    0    0 -0.00000000000E+00 -0.00000000000E+00 -0.45593999997E+02  0.45594000000E+02  0.51100000000E-03 0. -1.
    9900012    2    1    2    0    0  0.37275818846E+01 -0.14320383859E+02  0.11476872991E+02  0.72461364578E+02  0.69999732016E+02 0.  0.
         12    1    1    2    0    0 -0.37275818846E+01  0.14320383859E+02 -0.11476872991E+02  0.18726635422E+02  0.00000000000E+00 0. -1.
         11    1    3    3    0    0  0.98811788197E+01 -0.32697385057E+02  0.50151276868E+01  0.34524023381E+02  0.51100000000E-03 0. -1.
        -11    1    3    3    0    0  0.11800226024E+02  0.15026469302E+02  0.28001216233E+01  0.19310121575E+02  0.51100000000E-03 0.  1.
        -12    1    3    3    0    0 -0.17953822959E+02  0.33505318963E+01  0.36616236808E+01  0.18627219621E+02  0.00000000000E+00 0.  1.
</event>
<event>
 7    1  0.2941727E-013  0.7246156E+02  0.7816164E-02  0.1226708E+00
        -11   -1    0    0    0    0  0.00000000000E+00  0.00000000000E+00  0.45593999997E+02  0.45594000000E+02  0.51100000000E-03 0.  1.
         11   -1    0    0    0    0 -0.00000000000E+00 -0.00000000000E+00 -0.45593999997E+02  0.45594000000E+02  0.51100000000E-03 0. -1.
    9900012    2    1    2    0    0  0.18144487117E+01 -0.13053716925E+02  0.13303673744E+02  0.72461561877E+02  0.69999989035E+02 0.  0.
         12    1    1    2    0    0 -0.18144487117E+01  0.13053716925E+02 -0.13303673744E+02  0.18726438123E+02  0.00000000000E+00 0. -1.
         11    1    3    3    0    0  0.45835851625E+01  0.15706419744E+02 -0.18491071073E+02  0.24690495819E+02  0.51100000000E-03 0. -1.
        -11    1    3    3    0    0  0.89591245514E+01 -0.10559584246E+02  0.10274042198E+02  0.17243163153E+02  0.51100000000E-03 0.  1.
        -12    1    3    3    0    0 -0.11728261002E+02 -0.18200552422E+02  0.21520702619E+02  0.30527902906E+02  0.00000000000E+00 0.  1.
</event>
<event>
 7    1  0.2941727E-013  0.7246159E+02  0.7816164E-02  0.1226708E+00
        -11   -1    0    0    0    0  0.00000000000E+00  0.00000000000E+00  0.45593999997E+02  0.45594000000E+02  0.51100000000E-03 0. -1.
         11   -1    0    0    0    0 -0.00000000000E+00 -0.00000000000E+00 -0.45593999997E+02  0.45594000000E+02  0.51100000000E-03 0.  1.
    9900012    2    1    2    0    0  0.98818000355E+01 -0.35125282051E+01 -0.15514204733E+02  0.72461591513E+02  0.70000027641E+02 0.  0.
         12    1    1    2    0    0 -0.98818000355E+01  0.35125282051E+01  0.15514204733E+02  0.18726408487E+02  0.00000000000E+00 0. -1.
         11    1    3    3    0    0  0.10938464767E+02 -0.17175221419E+02  0.17704889414E+02  0.26983353233E+02  0.51100000000E-03 0. -1.
        -11    1    3    3    0    0 -0.46473951338E+01 -0.13306699170E+01  0.32899020498E+01  0.58474284703E+01  0.51100000000E-03 0.  1.
        -12    1    3    3    0    0  0.35907304025E+01  0.14993363131E+02 -0.36508996198E+02  0.39630809809E+02  0.00000000000E+00 0.  1.
</event>
<event>
 7    1  0.2941727E-013  0.7246159E+02  0.7816164E-02  0.1226708E+00
        -11   -1    0    0    0    0  0.00000000000E+00  0.00000000000E+00  0.45593999997E+02  0.45594000000E+02  0.51100000000E-03 0. -1.
         11   -1    0    0    0    0 -0.00000000000E+00 -0.00000000000E+00 -0.45593999997E+02  0.45594000000E+02  0.51100000000E-03 0.  1.
    9900012    2    1    2    0    0  0.87222285206E+01  0.11367379084E+02 -0.12057524059E+02  0.72461589131E+02  0.70000024538E+02 0.  0.
         12    1    1    2    0    0 -0.87222285206E+01 -0.11367379084E+02  0.12057524059E+02  0.18726410869E+02  0.00000000000E+00 0. -1.
         11    1    3    3    0    0  0.20252083046E+02  0.11237096757E+02  0.13055779963E+02  0.26587075844E+02  0.51100000000E-03 0. -1.
        -11    1    3    3    0    0  0.50389668195E+01  0.72764702503E+01  0.54412390658E+01  0.10389672215E+02  0.51100000000E-03 0.  1.
        -12    1    3    3    0    0 -0.16568821345E+02 -0.71461879224E+01 -0.30554543088E+02  0.35484841072E+02  0.00000000000E+00 0.  1.
</event>
<event>
 7    1  0.2941727E-013  0.7246155E+02  0.7816164E-02  0.1226708E+00
        -11   -1    0    0    0    0  0.00000000000E+00  0.00000000000E+00  0.45593999997E+02  0.45594000000E+02  0.51100000000E-03 0. -1.
         11   -1    0    0    0    0 -0.00000000000E+00 -0.00000000000E+00 -0.45593999997E+02  0.45594000000E+02  0.51100000000E-03 0.  1.
    9900012    2    1    2    0    0 -0.28846007751E+01  0.20937281166E+00 -0.18501758555E+02  0.72461552706E+02  0.69999977088E+02 0.  0.
         12    1    1    2    0    0  0.28846007751E+01 -0.20937281166E+00  0.18501758555E+02  0.18726447294E+02  0.00000000000E+00 0. -1.
         11    1    3    3    0    0 -0.51473929968E+01  0.14187528167E+02  0.28008731604E+00  0.15095034261E+02  0.51100000000E-03 0. -1.
        -11    1    3    3    0    0 -0.23630368649E+01  0.18270069795E+02  0.22950936764E+01  0.18564666675E+02  0.51100000000E-03 0.  1.
         12    1    3    3    0    0  0.46258290867E+01 -0.32248225150E+02 -0.21076939548E+02  0.38801851770E+02  0.00000000000E+00 0. -1.
</event>
<event>
 7    1  0.2941727E-013  0.7246164E+02  0.7816164E-02  0.1226708E+00
        -11   -1    0    0    0    0  0.00000000000E+00  0.00000000000E+00  0.45593999997E+02  0.45594000000E+02  0.51100000000E-03 0.  1.
         11   -1    0    0    0    0 -0.00000000000E+00 -0.00000000000E+00 -0.45593999997E+02  0.45594000000E+02  0.51100000000E-03 0. -1.
    9900012    2    1    2    0    0 -0.25820043432E+01 -0.15708829323E+02  0.98611587796E+01  0.72461641102E+02  0.70000092239E+02 0.  0.
         12    1    1    2    0    0  0.25820043432E+01  0.15708829323E+02 -0.98611587796E+01  0.18726358898E+02  0.00000000000E+00 0. -1.
         11    1    3    3    0    0 -0.18909877656E+02  0.95565240202E+00 -0.42611046185E+01  0.19407569588E+02  0.51100000000E-03 0. -1.
        -11    1    3    3    0    0 -0.62051778247E+01 -0.25864330327E+02  0.97304119774E+01  0.28322230361E+02  0.51100000000E-03 0.  1.
        -12    1    3    3    0    0  0.22533051138E+02  0.91998486026E+01  0.43918514206E+01  0.24731841152E+02  0.00000000000E+00 0.  1.
</event>
<event>
 7    1  0.2941727E-013  0.7246160E+02  0.7816164E-02  0.1226708E+00
        -11   -1    0    0    0    0  0.00000000000E+00  0.00000000000E+00  0.45593999997E+02  0.45594000000E+02  0.51100000000E-03 0.  1.
         11   -1    0    0    0    0 -0.00000000000E+00 -0.00000000000E+00 -0.45593999997E+02  0.45594000000E+02  0.51100000000E-03 0. -1.
    9900012    2    1    2    0    0  0.11268818472E+01  0.43045523078E+01  0.18190075376E+02  0.72461604847E+02  0.70000045011E+02 0.  0.
         12    1    1    2    0    0 -0.11268818472E+01 -0.43045523078E+01 -0.18190075376E+02  0.18726395153E+02  0.00000000000E+00 0. -1.
         11    1    3    3    0    0 -0.95253788884E+01 -0.46084284013E+01 -0.67460063159E+01  0.12549065972E+02  0.51100000000E-03 0. -1.
        -11    1    3    3    0    0 -0.16966177314E+02 -0.94557083842E+01  0.18728917511E+01  0.19513311289E+02  0.51100000000E-03 0.  1.
        -12    1    3    3    0    0  0.27618438049E+02  0.18368689093E+02  0.23063189941E+02  0.40399227586E+02  0.00000000000E+00 0.  1.
</event>
<event>
 7    1  0.2941727E-013  0.7246166E+02  0.7816164E-02  0.1226708E+00
        -11   -1    0    0    0    0  0.00000000000E+00  0.00000000000E+00  0.45593999997E+02  0.45594000000E+02  0.51100000000E-03 0.  1.
         11   -1    0    0    0    0 -0.00000000000E+00 -0.00000000000E+00 -0.45593999997E+02  0.45594000000E+02  0.51100000000E-03 0. -1.
    9900012    2    1    2    0    0  0.13277079468E+02  0.76484243383E+01  0.10765529224E+02  0.72461658832E+02  0.70000115337E+02 0.  0.
         12    1    1    2    0    0 -0.13277079468E+02 -0.76484243383E+01 -0.10765529224E+02  0.18726341168E+02  0.00000000000E+00 0. -1.
         11    1    3    3    0    0 -0.27142188207E+01  0.34365694421E+01 -0.18844320454E+02  0.19346457220E+02  0.51100000000E-03 0. -1.
        -11    1    3    3    0    0 -0.58058307432E+01  0.47933980484E+01 -0.71447179476E+01  0.10379370418E+02  0.51100000000E-03 0.  1.
        -12    1    3    3    0    0  0.21797129032E+02 -0.58154315220E+00  0.36754567625E+02  0.42735831194E+02  0.00000000000E+00 0.  1.
</event>
<event>
 7    1  0.2941727E-013  0.7246089E+02  0.7816164E-02  0.1226710E+00
        -11   -1    0    0    0    0  0.00000000000E+00  0.00000000000E+00  0.45593999997E+02  0.45594000000E+02  0.51100000000E-03 0.  1.
         11   -1    0    0    0    0 -0.00000000000E+00 -0.00000000000E+00 -0.45593999997E+02  0.45594000000E+02  0.51100000000E-03 0. -1.
    9900012    2    1    2    0    0  0.18306320312E+02 -0.33611480209E+01 -0.20702664038E+01  0.72460889108E+02  0.69999112622E+02 0.  0.
         12    1    1    2    0    0 -0.18306320312E+02  0.33611480209E+01  0.20702664038E+01  0.18727110892E+02  0.00000000000E+00 0. -1.
         11    1    3    3    0    0 -0.23061779307E+02  0.41554537473E+01  0.26845291860E+01  0.23586440127E+02  0.51100000000E-03 0. -1.
        -11    1    3    3    0    0  0.31592664653E+01 -0.97618943461E+01  0.31606717003E+00  0.10265254237E+02  0.51100000000E-03 0.  1.
        -12    1    3    3    0    0  0.38208833153E+02  0.22452925780E+01 -0.50708627599E+01  0.38609194745E+02  0.00000000000E+00 0.  1.
</event>
<event>
 7    1  0.2941727E-013  0.7246156E+02  0.7816164E-02  0.1226708E+00
        -11   -1    0    0    0    0  0.00000000000E+00  0.00000000000E+00  0.45593999997E+02  0.45594000000E+02  0.51100000000E-03 0.  1.
         11   -1    0    0    0    0 -0.00000000000E+00 -0.00000000000E+00 -0.45593999997E+02  0.45594000000E+02  0.51100000000E-03 0. -1.
    9900012    2    1    2    0    0 -0.17969198623E+02  0.10506301459E+01 -0.51656375676E+01  0.72461555214E+02  0.69999980355E+02 0.  0.
         12    1    1    2    0    0  0.17969198623E+02 -0.10506301459E+01  0.51656375676E+01  0.18726444786E+02  0.00000000000E+00 0. -1.
         11    1    3    3    0    0 -0.19848938439E+01  0.22056694066E+02 -0.17158003627E+02  0.28014900418E+02  0.51100000000E-03 0. -1.
        -11    1    3    3    0    0  0.10088172650E+02 -0.77273390459E+01 -0.29778452098E+00  0.12711084612E+02  0.51100000000E-03 0.  1.
        -12    1    3    3    0    0 -0.26072477429E+02 -0.13278724874E+02  0.12290150581E+02  0.31735570183E+02  0.00000000000E+00 0.  1.
</event>
<event>
 7    1  0.2941727E-013  0.7246158E+02  0.7816164E-02  0.1226708E+00
        -11   -1    0    0    0    0  0.00000000000E+00  0.00000000000E+00  0.45593999997E+02  0.45594000000E+02  0.51100000000E-03 0.  1.
         11   -1    0    0    0    0 -0.00000000000E+00 -0.00000000000E+00 -0.45593999997E+02  0.45594000000E+02  0.51100000000E-03 0. -1.
    9900012    2    1    2    0    0  0.18343470400E+02 -0.24865713937E+01  0.28306935598E+01  0.72461580971E+02  0.70000013909E+02 0.  0.
         12    1    1    2    0    0 -0.18343470400E+02  0.24865713937E+01 -0.28306935598E+01  0.18726419029E+02  0.00000000000E+00 0. -1.
         11    1    3    3    0    0  0.11274817254E+02  0.25839458853E+01  0.17967623346E+01  0.11705837672E+02  0.51100000000E-03 0. -1.
        -11    1    3    3    0    0  0.26298718838E+02 -0.87874227571E+01  0.19451579849E+02  0.33870420283E+02  0.51100000000E-03 0.  1.
         12    1    3    3    0    0 -0.19230065692E+02  0.37169054781E+01 -0.18417648624E+02  0.26885323016E+02  0.00000000000E+00 0. -1.
</event>
<event>
 7    1  0.2941727E-013  0.7246157E+02  0.7816164E-02  0.1226708E+00
        -11   -1    0    0    0    0  0.00000000000E+00  0.00000000000E+00  0.45593999997E+02  0.45594000000E+02  0.51100000000E-03 0. -1.
         11   -1    0    0    0    0 -0.00000000000E+00 -0.00000000000E+00 -0.45593999997E+02  0.45594000000E+02  0.51100000000E-03 0.  1.
    9900012    2    1    2    0    0 -0.60370742346E+01  0.80201278254E+01 -0.15808559527E+02  0.72461567612E+02  0.69999996506E+02 0.  0.
         12    1    1    2    0    0  0.60370742346E+01 -0.80201278254E+01  0.15808559527E+02  0.18726432388E+02  0.00000000000E+00 0. -1.
         11    1    3    3    0    0 -0.27912714856E+01 -0.17702215341E+02  0.75700018546E+01  0.19454165436E+02  0.51100000000E-03 0. -1.
        -11    1    3    3    0    0 -0.14275825324E+02  0.19034574762E+01  0.41321258921E+01  0.14983217401E+02  0.51100000000E-03 0.  1.
        -12    1    3    3    0    0  0.11030022575E+02  0.23818885690E+02 -0.27510687274E+02  0.38024184775E+02  0.00000000000E+00 0.  1.
</event>
<event>
 7    1  0.2941727E-013  0.7246156E+02  0.7816164E-02  0.1226708E+00
        -11   -1    0    0    0    0  0.00000000000E+00  0.00000000000E+00  0.45593999997E+02  0.45594000000E+02  0.51100000000E-03 0.  1.
         11   -1    0    0    0    0 -0.00000000000E+00 -0.00000000000E+00 -0.45593999997E+02  0.45594000000E+02  0.51100000000E-03 0. -1.
    9900012    2    1    2    0    0 -0.11266013443E+02 -0.13332114642E+02 -0.67831607139E+01  0.72461558560E+02  0.69999984714E+02 0.  0.
         12    1    1    2    0    0  0.11266013443E+02  0.13332114642E+02  0.67831607139E+01  0.18726441440E+02  0.00000000000E+00 0. -1.
         11    1    3    3    0    0 -0.71856332862E+01 -0.23852476422E+02  0.35691976338E+01  0.25165713365E+02  0.51100000000E-03 0. -1.
        -11    1    3    3    0    0  0.70636992015E+01 -0.18478425435E+01  0.15163103713E+02  0.16829440958E+02  0.51100000000E-03 0.  1.
        -12    1    3    3    0    0 -0.11144079358E+02  0.12368204323E+02 -0.25515462061E+02  0.30466404237E+02  0.00000000000E+00 0.  1.
</event>
<event>
 7    1  0.2941727E-013  0.7246153E+02  0.7816164E-02  0.1226708E+00
        -11   -1    0    0    0    0  0.00000000000E+00  0.00000000000E+00  0.45593999997E+02  0.45594000000E+02  0.51100000000E-03 0.  1.
         11   -1    0    0    0    0 -0.00000000000E+00 -0.00000000000E+00 -0.45593999997E+02  0.45594000000E+02  0.51100000000E-03 0. -1.
    9900012    2    1    2    0    0  0.88053106763E+01  0.10839082108E+02  0.12476435683E+02  0.72461530915E+02  0.69999948701E+02 0.  0.
         12    1    1    2    0    0 -0.88053106763E+01 -0.10839082108E+02 -0.12476435683E+02  0.18726469085E+02  0.00000000000E+00 0. -1.
         11    1    3    3    0    0 -0.16500690633E+02 -0.75628988463E+01 -0.45521302145E+01  0.18713420854E+02  0.51100000000E-03 0. -1.
        -11    1    3    3    0    0 -0.74761253969E+01 -0.62499726300E+01  0.13533979292E+01  0.98380025941E+01  0.51100000000E-03 0.  1.
        -12    1    3    3    0    0  0.32782126706E+02  0.24651953584E+02  0.15675167968E+02  0.43910107466E+02  0.00000000000E+00 0.  1.
</event>
<event>
 7    1  0.2941727E-013  0.7246157E+02  0.7816164E-02  0.1226708E+00
        -11   -1    0    0    0    0  0.00000000000E+00  0.00000000000E+00  0.45593999997E+02  0.45594000000E+02  0.51100000000E-03 0. -1.
         11   -1    0    0    0    0 -0.00000000000E+00 -0.00000000000E+00 -0.45593999997E+02  0.45594000000E+02  0.51100000000E-03 0.  1.
    9900012    2    1    2    0    0 -0.27378485323E+01 -0.17071730752E+02 -0.71930099080E+01  0.72461569561E+02  0.69999999045E+02 0.  0.
         12    1    1    2    0    0  0.27378485323E+01  0.17071730752E+02  0.71930099080E+01  0.18726430439E+02  0.00000000000E+00 0. -1.
         11    1    3    3    0    0 -0.67866510411E+01 -0.10183057743E+02 -0.26618962302E+01  0.12523537405E+02  0.51100000000E-03 0. -1.
        -11    1    3    3    0    0 -0.18310024062E+02 -0.19483561815E+02 -0.16713456524E+02  0.31531029025E+02  0.51100000000E-03 0.  1.
         12    1    3    3    0    0  0.22358826570E+02  0.12594888806E+02  0.12182342846E+02  0.28407003131E+02  0.00000000000E+00 0. -1.
</event>
<event>
 7    1  0.2941727E-013  0.7246157E+02  0.7816164E-02  0.1226708E+00
        -11   -1    0    0    0    0  0.00000000000E+00  0.00000000000E+00  0.45593999997E+02  0.45594000000E+02  0.51100000000E-03 0.  1.
         11   -1    0    0    0    0 -0.00000000000E+00 -0.00000000000E+00 -0.45593999997E+02  0.45594000000E+02  0.51100000000E-03 0. -1.
    9900012    2    1    2    0    0  0.14450282054E+02 -0.90520063233E+01  0.77414284098E+01  0.72461569915E+02  0.69999999506E+02 0.  0.
         12    1    1    2    0    0 -0.14450282054E+02  0.90520063233E+01 -0.77414284098E+01  0.18726430085E+02  0.00000000000E+00 0. -1.
         11    1    3    3    0    0  0.85842525634E+01 -0.15336076150E+02 -0.59981317254E+00  0.17585346168E+02  0.51100000000E-03 0. -1.
        -11    1    3    3    0    0  0.18450761409E+02 -0.18674904417E+02  0.50121003527E+01  0.26726462575E+02  0.51100000000E-03 0.  1.
        -12    1    3    3    0    0 -0.12584731919E+02  0.24958974243E+02  0.33291412297E+01  0.28149761172E+02  0.00000000000E+00 0.  1.
</event>
<event>
 7    1  0.2941727E-013  0.7246147E+02  0.7816164E-02  0.1226708E+00
        -11   -1    0    0    0    0  0.00000000000E+00  0.00000000000E+00  0.45593999997E+02  0.45594000000E+02  0.51100000000E-03 0.  1.
         11   -1    0    0    0    0 -0.00000000000E+00 -0.00000000000E+00 -0.45593999997E+02  0.45594000000E+02  0.51100000000E-03 0. -1.
    9900012    2    1    2    0    0 -0.10097442121E+00  0.55412064475E+01  0.17887645299E+02  0.72461467511E+02  0.69999866106E+02 0.  0.
         12    1    1    2    0    0  0.10097442121E+00 -0.55412064475E+01 -0.17887645299E+02  0.18726532489E+02  0.00000000000E+00 0. -1.
         11    1    3    3    0    0  0.91363930697E+01  0.61979664642E+01 -0.21525915627E+02  0.24192013361E+02  0.51100000000E-03 0. -1.
        -11    1    3    3    0    0 -0.68316738305E+01 -0.13322823529E+02  0.21397906271E+02  0.26115891468E+02  0.51100000000E-03 0.  1.
        -12    1    3    3    0    0 -0.24056936604E+01  0.12666063513E+02  0.18015654654E+02  0.22153562682E+02  0.00000000000E+00 0.  1.
</event>
<event>
 7    1  0.2941727E-013  0.7246156E+02  0.7816164E-02  0.1226708E+00
        -11   -1    0    0    0    0  0.00000000000E+00  0.00000000000E+00  0.45593999997E+02  0.45594000000E+02  0.51100000000E-03 0. -1.
         11   -1    0    0    0    0 -0.00000000000E+00 -0.00000000000E+00 -0.45593999997E+02  0.45594000000E+02  0.51100000000E-03 0.  1.
    9900012    2    1    2    0    0 -0.15936452007E+02 -0.42467472690E+01 -0.88698374325E+01  0.72461564647E+02  0.69999992643E+02 0.  0.
         12    1    1    2    0    0  0.15936452007E+02  0.42467472690E+01  0.88698374325E+01  0.18726435353E+02  0.00000000000E+00 0. -1.
         11    1    3    3    0    0  0.63863269368E+01  0.15749891500E+02  0.55192625106E+00  0.17004378167E+02  0.51100000000E-03 0. -1.
        -11    1    3    3    0    0  0.19806451556E+01 -0.22619569540E+02 -0.18594463834E+02  0.29348287291E+02  0.51100000000E-03 0.  1.
         12    1    3    3    0    0 -0.24303424100E+02  0.26229307713E+01  0.91727001505E+01  0.26108899189E+02  0.00000000000E+00 0. -1.
</event>
<event>
 7    1  0.2941727E-013  0.7246156E+02  0.7816164E-02  0.1226708E+00
        -11   -1    0    0    0    0  0.00000000000E+00  0.00000000000E+00  0.45593999997E+02  0.45594000000E+02  0.51100000000E-03 0. -1.
         11   -1    0    0    0    0 -0.00000000000E+00 -0.00000000000E+00 -0.45593999997E+02  0.45594000000E+02  0.51100000000E-03 0.  1.
    9900012    2    1    2    0    0 -0.61176383560E+01 -0.28734229099E+01 -0.17464174818E+02  0.72461562529E+02  0.69999989885E+02 0.  0.
         12    1    1    2    0    0  0.61176383560E+01  0.28734229099E+01  0.17464174818E+02  0.18726437471E+02  0.00000000000E+00 0. -1.
         11    1    3    3    0    0  0.18721811408E+01 -0.20507212159E+02  0.16626656543E+01  0.20659507983E+02  0.51100000000E-03 0. -1.
        -11    1    3    3    0    0  0.17815346190E+02  0.46216110552E+01 -0.12206107534E+02  0.22084721189E+02  0.51100000000E-03 0.  1.
         12    1    3    3    0    0 -0.25805165686E+02  0.13012178194E+02 -0.69207329381E+01  0.29717333357E+02  0.00000000000E+00 0. -1.
</event>
<event>
 7    1  0.2941727E-013  0.7246157E+02  0.7816164E-02  0.1226708E+00
        -11   -1    0    0    0    0  0.00000000000E+00  0.00000000000E+00  0.45593999997E+02  0.45594000000E+02  0.51100000000E-03 0. -1.
         11   -1    0    0    0    0 -0.00000000000E+00 -0.00000000000E+00 -0.45593999997E+02  0.45594000000E+02  0.51100000000E-03 0.  1.
    9900012    2    1    2    0    0  0.96322337382E+00  0.34817473573E+01 -0.18374675800E+02  0.72461572827E+02  0.70000003299E+02 0.  0.
         12    1    1    2    0    0 -0.96322337382E+00 -0.34817473573E+01  0.18374675800E+02  0.18726427173E+02  0.00000000000E+00 0. -1.
         11    1    3    3    0    0 -0.37719695241E+01 -0.84969279193E+01 -0.14949471531E+02  0.17604324397E+02  0.51100000000E-03 0. -1.
        -11    1    3    3    0    0  0.17200539579E+02  0.16944056556E+02 -0.21511376368E+02  0.32337268405E+02  0.51100000000E-03 0.  1.
         12    1    3    3    0    0 -0.12465346681E+02 -0.49653812794E+01  0.18086172099E+02  0.22519980025E+02  0.00000000000E+00 0. -1.
</event>
<event>
 7    1  0.2941727E-013  0.7246159E+02  0.7816164E-02  0.1226708E+00
        -11   -1    0    0    0    0  0.00000000000E+00  0.00000000000E+00  0.45593999997E+02  0.45594000000E+02  0.51100000000E-03 0.  1.
         11   -1    0    0    0    0 -0.00000000000E+00 -0.00000000000E+00 -0.45593999997E+02  0.45594000000E+02  0.51100000000E-03 0. -1.
    9900012    2    1    2    0    0  0.16928717739E+02 -0.61137309722E+01  0.51690484658E+01  0.72461594773E+02  0.70000031888E+02 0.  0.
         12    1    1    2    0    0 -0.16928717739E+02  0.61137309722E+01 -0.51690484658E+01  0.18726405227E+02  0.00000000000E+00 0. -1.
         11    1    3    3    0    0  0.12015400723E+02  0.67525412373E+01 -0.52226673621E+01  0.14739162877E+02  0.51100000000E-03 0. -1.
        -11    1    3    3    0    0  0.27581157232E+02  0.28870488223E+01 -0.12584415359E+01  0.27760384733E+02  0.51100000000E-03 0.  1.
        -12    1    3    3    0    0 -0.22667840216E+02 -0.15753321032E+02  0.11650157364E+02  0.29962047163E+02  0.00000000000E+00 0.  1.
</event>
<event>
 7    1  0.2941727E-013  0.7246156E+02  0.7816164E-02  0.1226708E+00
        -11   -1    0    0    0    0  0.00000000000E+00  0.00000000000E+00  0.45593999997E+02  0.45594000000E+02  0.51100000000E-03 0.  1.
         11   -1    0    0    0    0 -0.00000000000E+00 -0.00000000000E+00 -0.45593999997E+02  0.45594000000E+02  0.51100000000E-03 0. -1.
    9900012    2    1    2    0    0 -0.17142300568E+02  0.57512515028E+00  0.75159941682E+01  0.72461563979E+02  0.69999991774E+02 0.  0.
         12    1    1    2    0    0  0.17142300568E+02 -0.57512515028E+00 -0.75159941682E+01  0.18726436021E+02  0.00000000000E+00 0. -1.
         11    1    3    3    0    0 -0.12225678961E+02 -0.19292542469E+01 -0.17876129156E+02  0.21742705486E+02  0.51100000000E-03 0. -1.
        -11    1    3    3    0    0 -0.14614555997E+02 -0.91270712808E+01 -0.39695348318E+01  0.17681795277E+02  0.51100000000E-03 0.  1.
        -12    1    3    3    0    0  0.96979343910E+01  0.11631450678E+02  0.29361658156E+02  0.33037063216E+02  0.00000000000E+00 0.  1.
</event>
<event>
 7    1  0.2941727E-013  0.7246156E+02  0.7816164E-02  0.1226708E+00
        -11   -1    0    0    0    0  0.00000000000E+00  0.00000000000E+00  0.45593999997E+02  0.45594000000E+02  0.51100000000E-03 0.  1.
         11   -1    0    0    0    0 -0.00000000000E+00 -0.00000000000E+00 -0.45593999997E+02  0.45594000000E+02  0.51100000000E-03 0. -1.
    9900012    2    1    2    0    0  0.13004153693E+02 -0.86644756487E+01  0.10319814607E+02  0.72461555461E+02  0.69999980677E+02 0.  0.
         12    1    1    2    0    0 -0.13004153693E+02  0.86644756487E+01 -0.10319814607E+02  0.18726444539E+02  0.00000000000E+00 0. -1.
         11    1    3    3    0    0  0.21548811148E+00 -0.27152104912E+01 -0.61578360054E+01  0.67333310975E+01  0.51100000000E-03 0. -1.
        -11    1    3    3    0    0 -0.85022010990E+01 -0.26017392573E+02 -0.69574297731E+01  0.28241777018E+02  0.51100000000E-03 0.  1.
         12    1    3    3    0    0  0.21290866681E+02  0.20068127415E+02  0.23435080385E+02  0.37486447346E+02  0.00000000000E+00 0. -1.
</event>
<event>
 7    1  0.2941727E-013  0.7246158E+02  0.7816164E-02  0.1226708E+00
        -11   -1    0    0    0    0  0.00000000000E+00  0.00000000000E+00  0.45593999997E+02  0.45594000000E+02  0.51100000000E-03 0.  1.
         11   -1    0    0    0    0 -0.00000000000E+00 -0.00000000000E+00 -0.45593999997E+02  0.45594000000E+02  0.51100000000E-03 0. -1.
    9900012    2    1    2    0    0  0.12350386689E+01  0.43395421113E+01  0.18174761850E+02  0.72461577102E+02  0.70000008869E+02 0.  0.
         12    1    1    2    0    0 -0.12350386689E+01 -0.43395421113E+01 -0.18174761850E+02  0.18726422898E+02  0.00000000000E+00 0. -1.
         11    1    3    3    0    0 -0.11574032232E+02 -0.12079181331E+01  0.38911093683E+02  0.40613920030E+02  0.51100000000E-03 0. -1.
        -11    1    3    3    0    0  0.55199892336E+01 -0.16523901535E+01  0.26300096844E+01  0.63338476110E+01  0.51100000000E-03 0.  1.
         12    1    3    3    0    0  0.72890816668E+01  0.71998503979E+01 -0.23366341518E+02  0.25513809461E+02  0.00000000000E+00 0. -1.
</event>
<event>
 7    1  0.2941727E-013  0.7246155E+02  0.7816164E-02  0.1226708E+00
        -11   -1    0    0    0    0  0.00000000000E+00  0.00000000000E+00  0.45593999997E+02  0.45594000000E+02  0.51100000000E-03 0.  1.
         11   -1    0    0    0    0 -0.00000000000E+00 -0.00000000000E+00 -0.45593999997E+02  0.45594000000E+02  0.51100000000E-03 0. -1.
    9900012    2    1    2    0    0  0.17825251792E+02  0.57336164070E+01 -0.25696401679E+00  0.72461548413E+02  0.69999971495E+02 0.  0.
         12    1    1    2    0    0 -0.17825251792E+02 -0.57336164070E+01  0.25696401679E+00  0.18726451587E+02  0.00000000000E+00 0. -1.
         11    1    3    3    0    0  0.46334784309E+01  0.15112071882E+02  0.83301892796E+01  0.17867173605E+02  0.51100000000E-03 0. -1.
        -11    1    3    3    0    0  0.10305218339E+02  0.11985547132E+02  0.15590233699E+02  0.22201492114E+02  0.51100000000E-03 0.  1.
         12    1    3    3    0    0  0.28865550221E+01 -0.21364002607E+02 -0.24177386995E+02  0.32392882694E+02  0.00000000000E+00 0. -1.
</event>
<event>
 7    1  0.2941727E-013  0.7246160E+02  0.7816164E-02  0.1226708E+00
        -11   -1    0    0    0    0  0.00000000000E+00  0.00000000000E+00  0.45593999997E+02  0.45594000000E+02  0.51100000000E-03 0. -1.
         11   -1    0    0    0    0 -0.00000000000E+00 -0.00000000000E+00 -0.45593999997E+02  0.45594000000E+02  0.51100000000E-03 0.  1.
    9900012    2    1    2    0    0  0.67299598092E+01  0.11522947457E+02 -0.13138018287E+02  0.72461596137E+02  0.70000033665E+02 0.  0.
         12    1    1    2    0    0 -0.67299598092E+01 -0.11522947457E+02  0.13138018287E+02  0.18726403863E+02  0.00000000000E+00 0. -1.
         11    1    3    3    0    0 -0.45015101128E+01  0.39876972713E+01 -0.38471249330E+01  0.71390260775E+01  0.51100000000E-03 0. -1.
        -11    1    3    3    0    0 -0.85817404771E+01  0.31976623723E+02 -0.64559243635E+01  0.33731731263E+02  0.51100000000E-03 0.  1.
         12    1    3    3    0    0  0.19813210399E+02 -0.24441373537E+02 -0.28349689907E+01  0.31590838797E+02  0.00000000000E+00 0. -1.
</event>
<event>
 7    1  0.2941727E-013  0.7246154E+02  0.7816164E-02  0.1226708E+00
        -11   -1    0    0    0    0  0.00000000000E+00  0.00000000000E+00  0.45593999997E+02  0.45594000000E+02  0.51100000000E-03 0. -1.
         11   -1    0    0    0    0 -0.00000000000E+00 -0.00000000000E+00 -0.45593999997E+02  0.45594000000E+02  0.51100000000E-03 0.  1.
    9900012    2    1    2    0    0  0.15248576558E+02 -0.94356009633E+01  0.53972928131E+01  0.72461536845E+02  0.69999956426E+02 0.  0.
         12    1    1    2    0    0 -0.15248576558E+02  0.94356009633E+01 -0.53972928131E+01  0.18726463155E+02  0.00000000000E+00 0. -1.
         11    1    3    3    0    0  0.34778440579E+01  0.18220721402E+02  0.17432328783E+02  0.25455376147E+02  0.51100000000E-03 0. -1.
        -11    1    3    3    0    0  0.14727539482E+02 -0.34230724578E+01  0.63957399035E+01  0.16417165816E+02  0.51100000000E-03 0.  1.
        -12    1    3    3    0    0 -0.29568069823E+01 -0.24233249908E+02 -0.18430775874E+02  0.30588994883E+02  0.00000000000E+00 0.  1.
</event>
<event>
 7    1  0.2941727E-013  0.7246142E+02  0.7816164E-02  0.1226708E+00
        -11   -1    0    0    0    0  0.00000000000E+00  0.00000000000E+00  0.45593999997E+02  0.45594000000E+02  0.51100000000E-03 0.  1.
         11   -1    0    0    0    0 -0.00000000000E+00 -0.00000000000E+00 -0.45593999997E+02  0.45594000000E+02  0.51100000000E-03 0. -1.
    9900012    2    1    2    0    0 -0.73534081038E+01 -0.70504019157E+01  0.15713177708E+02  0.72461421786E+02  0.69999806541E+02 0.  0.
         12    1    1    2    0    0  0.73534081038E+01  0.70504019157E+01 -0.15713177708E+02  0.18726578214E+02  0.00000000000E+00 0. -1.
         11    1    3    3    0    0 -0.46516043832E+01  0.10933906173E+02 -0.16318527311E+02  0.20186184915E+02  0.51100000000E-03 0. -1.
        -11    1    3    3    0    0 -0.63391718166E+01  0.90406307809E+01  0.19176918275E+02  0.22128540373E+02  0.51100000000E-03 0.  1.
        -12    1    3    3    0    0  0.36373680960E+01 -0.27024938870E+02  0.12854786744E+02  0.30146696499E+02  0.00000000000E+00 0.  1.
</event>
<event>
 7    1  0.2941727E-013  0.7246156E+02  0.7816164E-02  0.1226708E+00
        -11   -1    0    0    0    0  0.00000000000E+00  0.00000000000E+00  0.45593999997E+02  0.45594000000E+02  0.51100000000E-03 0.  1.
         11   -1    0    0    0    0 -0.00000000000E+00 -0.00000000000E+00 -0.45593999997E+02  0.45594000000E+02  0.51100000000E-03 0. -1.
    9900012    2    1    2    0    0 -0.83689126037E+01  0.15351958987E+02  0.67050836045E+01  0.72461561763E+02  0.69999988886E+02 0.  0.
         12    1    1    2    0    0  0.83689126037E+01 -0.15351958987E+02 -0.67050836045E+01  0.18726438237E+02  0.00000000000E+00 0. -1.
         11    1    3    3    0    0 -0.16289891935E+02 -0.11237571805E+01 -0.69232089496E+01  0.17735676809E+02  0.51100000000E-03 0. -1.
        -11    1    3    3    0    0  0.21096593445E+02  0.18945520093E+01  0.24403247737E+02  0.32313682593E+02  0.51100000000E-03 0.  1.
         12    1    3    3    0    0 -0.13175614114E+02  0.14581164158E+02 -0.10774955183E+02  0.22412202361E+02  0.00000000000E+00 0. -1.
</event>
<event>
 7    1  0.2941727E-013  0.7246157E+02  0.7816164E-02  0.1226708E+00
        -11   -1    0    0    0    0  0.00000000000E+00  0.00000000000E+00  0.45593999997E+02  0.45594000000E+02  0.51100000000E-03 0. -1.
         11   -1    0    0    0    0 -0.00000000000E+00 -0.00000000000E+00 -0.45593999997E+02  0.45594000000E+02  0.51100000000E-03 0.  1.
    9900012    2    1    2    0    0 -0.53793623253E+01  0.11584730381E+02 -0.13694371704E+02  0.72461565919E+02  0.69999994301E+02 0.  0.
         12    1    1    2    0    0  0.53793623253E+01 -0.11584730381E+02  0.13694371704E+02  0.18726434081E+02  0.00000000000E+00 0. -1.
         11    1    3    3    0    0  0.26235427519E+02 -0.87604426828E+00  0.16767298064E+01  0.26303546030E+02  0.51100000000E-03 0. -1.
        -11    1    3    3    0    0 -0.15968065067E+02 -0.78462581045E+01 -0.47966059680E+01  0.18426890603E+02  0.51100000000E-03 0.  1.
        -12    1    3    3    0    0 -0.15646724777E+02  0.20307032753E+02 -0.10574495542E+02  0.27731129286E+02  0.00000000000E+00 0.  1.
</event>
<event>
 7    1  0.2941727E-013  0.7246155E+02  0.7816164E-02  0.1226708E+00
        -11   -1    0    0    0    0  0.00000000000E+00  0.00000000000E+00  0.45593999997E+02  0.45594000000E+02  0.51100000000E-03 0.  1.
         11   -1    0    0    0    0 -0.00000000000E+00 -0.00000000000E+00 -0.45593999997E+02  0.45594000000E+02  0.51100000000E-03 0. -1.
    9900012    2    1    2    0    0  0.96419517858E+01  0.14056406604E+00  0.16052819159E+02  0.72461548242E+02  0.69999971273E+02 0.  0.
         12    1    1    2    0    0 -0.96419517858E+01 -0.14056406604E+00 -0.16052819159E+02  0.18726451758E+02  0.00000000000E+00 0. -1.
         11    1    3    3    0    0  0.16695776529E+02  0.13847302176E+02 -0.74535533897E+01  0.22935827647E+02  0.51100000000E-03 0. -1.
        -11    1    3    3    0    0  0.17067427279E+02 -0.75826654502E+01  0.91816489551E+01  0.20810972275E+02  0.51100000000E-03 0.  1.
        -12    1    3    3    0    0 -0.24121252022E+02 -0.61240726602E+01  0.14324723593E+02  0.28714748320E+02  0.00000000000E+00 0.  1.
</event>
<event>
 7    1  0.2941727E-013  0.7246152E+02  0.7816164E-02  0.1226708E+00
        -11   -1    0    0    0    0  0.00000000000E+00  0.00000000000E+00  0.45593999997E+02  0.45594000000E+02  0.51100000000E-03 0.  1.
         11   -1    0    0    0    0 -0.00000000000E+00 -0.00000000000E+00 -0.45593999997E+02  0.45594000000E+02  0.51100000000E-03 0. -1.
    9900012    2    1    2    0    0 -0.16731773846E+02  0.68659318103E+01  0.48567062172E+01  0.72461524866E+02  0.69999940821E+02 0.  0.
         12    1    1    2    0    0  0.16731773846E+02 -0.68659318103E+01 -0.48567062172E+01  0.18726475134E+02  0.00000000000E+00 0. -1.
         11    1    3    3    0    0  0.12197008635E+02  0.26879478901E+01 -0.15136529106E+02  0.19624133029E+02  0.51100000000E-03 0. -1.
        -11    1    3    3    0    0  0.88861567874E+01  0.58276296392E+01  0.15733492792E+01  0.10742461444E+02  0.51100000000E-03 0.  1.
        -12    1    3    3    0    0 -0.37814939269E+02 -0.16496457191E+01  0.18419886044E+02  0.42094930393E+02  0.00000000000E+00 0.  1.
</event>
<event>
 7    1  0.2941727E-013  0.7246161E+02  0.7816164E-02  0.1226708E+00
        -11   -1    0    0    0    0  0.00000000000E+00  0.00000000000E+00  0.45593999997E+02  0.45594000000E+02  0.51100000000E-03 0.  1.
         11   -1    0    0    0    0 -0.00000000000E+00 -0.00000000000E+00 -0.45593999997E+02  0.45594000000E+02  0.51100000000E-03 0. -1.
    9900012    2    1    2    0    0  0.17330043703E+02  0.52305294371E+01  0.47946849096E+01  0.72461605357E+02  0.70000045676E+02 0.  0.
         12    1    1    2    0    0 -0.17330043703E+02 -0.52305294371E+01 -0.47946849096E+01  0.18726394643E+02  0.00000000000E+00 0. -1.
         11    1    3    3    0    0  0.38743635352E+01 -0.60643464373E+01  0.31173741554E+01  0.78425131431E+01  0.51100000000E-03 0. -1.
        -11    1    3    3    0    0 -0.16145385399E+01 -0.60672914161E+01  0.28562490391E+02  0.29244394632E+02  0.51100000000E-03 0.  1.
         12    1    3    3    0    0  0.15070218707E+02  0.17362167291E+02 -0.26885179637E+02  0.35374697582E+02  0.00000000000E+00 0. -1.
</event>
<event>
 7    1  0.2941727E-013  0.7246154E+02  0.7816164E-02  0.1226708E+00
        -11   -1    0    0    0    0  0.00000000000E+00  0.00000000000E+00  0.45593999997E+02  0.45594000000E+02  0.51100000000E-03 0. -1.
         11   -1    0    0    0    0 -0.00000000000E+00 -0.00000000000E+00 -0.45593999997E+02  0.45594000000E+02  0.51100000000E-03 0.  1.
    9900012    2    1    2    0    0 -0.37138565190E+01 -0.54930611020E+01 -0.17513246366E+02  0.72461541478E+02  0.69999962461E+02 0.  0.
         12    1    1    2    0    0  0.37138565190E+01  0.54930611020E+01  0.17513246366E+02  0.18726458522E+02  0.00000000000E+00 0. -1.
         11    1    3    3    0    0 -0.13705656162E+01  0.66029926099E+01 -0.48645291301E+01  0.83151431397E+01  0.51100000000E-03 0. -1.
        -11    1    3    3    0    0  0.33767676191E+01  0.19659503913E+02 -0.22825086119E+02  0.30313086452E+02  0.51100000000E-03 0.  1.
         12    1    3    3    0    0 -0.57200585220E+01 -0.31755557624E+02  0.10176368883E+02  0.33833311886E+02  0.00000000000E+00 0. -1.
</event>
<event>
 7    1  0.2941727E-013  0.7246153E+02  0.7816164E-02  0.1226708E+00
        -11   -1    0    0    0    0  0.00000000000E+00  0.00000000000E+00  0.45593999997E+02  0.45594000000E+02  0.51100000000E-03 0.  1.
         11   -1    0    0    0    0 -0.00000000000E+00 -0.00000000000E+00 -0.45593999997E+02  0.45594000000E+02  0.51100000000E-03 0. -1.
    9900012    2    1    2    0    0 -0.13912857854E+02  0.20709078526E+01  0.12362215917E+02  0.72461530622E+02  0.69999948319E+02 0.  0.
         12    1    1    2    0    0  0.13912857854E+02 -0.20709078526E+01 -0.12362215917E+02  0.18726469378E+02  0.00000000000E+00 0. -1.
         11    1    3    3    0    0 -0.12943540059E+02  0.10072867160E+02 -0.93690328261E+01  0.18888532458E+02  0.51100000000E-03 0. -1.
        -11    1    3    3    0    0 -0.20231505990E+02  0.83986210183E+01  0.17246853566E+02  0.27880183425E+02  0.51100000000E-03 0.  1.
        -12    1    3    3    0    0  0.19262188195E+02 -0.16400580326E+02  0.44843951772E+01  0.25692814738E+02  0.00000000000E+00 0.  1.
</event>
<event>
 7    1  0.2941727E-013  0.7246120E+02  0.7816164E-02  0.1226709E+00
        -11   -1    0    0    0    0  0.00000000000E+00  0.00000000000E+00  0.45593999997E+02  0.45594000000E+02  0.51100000000E-03 0.  1.
         11   -1    0    0    0    0 -0.00000000000E+00 -0.00000000000E+00 -0.45593999997E+02  0.45594000000E+02  0.51100000000E-03 0. -1.
    9900012    2    1    2    0    0 -0.10049459166E+02  0.10238000230E+02  0.12036813886E+02  0.72461196569E+02  0.69999513151E+02 0.  0.
         12    1    1    2    0    0  0.10049459166E+02 -0.10238000230E+02 -0.12036813886E+02  0.18726803431E+02  0.00000000000E+00 0. -1.
         11    1    3    3    0    0  0.11167294312E+02 -0.47484493230E+01 -0.13598100577E+02  0.18225382651E+02  0.51100000000E-03 0. -1.
        -11    1    3    3    0    0  0.82816149307E+01 -0.68541925725E+01  0.86232335928E+01  0.13781337364E+02  0.51100000000E-03 0.  1.
        -12    1    3    3    0    0 -0.29498368408E+02  0.21840642125E+02  0.17011680870E+02  0.40454476554E+02  0.00000000000E+00 0.  1.
</event>
<event>
 7    1  0.3477789E-013  0.7246162E+02  0.7816164E-02  0.1226708E+00
        -11   -1    0    0    0    0  0.00000000000E+00  0.00000000000E+00  0.45593999997E+02  0.45594000000E+02  0.51100000000E-03 0. -1.
         11   -1    0    0    0    0 -0.00000000000E+00 -0.00000000000E+00 -0.45593999997E+02  0.45594000000E+02  0.51100000000E-03 0.  1.
    9900012    2    1    2    0    0  0.32601821156E+01 -0.14656621680E+02 -0.11190702317E+02  0.72461623820E+02  0.70000069727E+02 0.  0.
         12    1    1    2    0    0 -0.32601821156E+01  0.14656621680E+02  0.11190702317E+02  0.18726376180E+02  0.00000000000E+00 0. -1.
         11    1    3    3    0    0 -0.42269692047E+01 -0.18647892823E+02  0.17643657147E+02  0.26017490524E+02  0.51100000000E-03 0. -1.
        -11    1    3    3    0    0  0.15451827585E+02  0.45701178684E+01  0.42044183128E+00  0.16118986465E+02  0.51100000000E-03 0.  1.
        -12    1    3    3    0    0 -0.79646762651E+01 -0.57884672546E+00 -0.29254801295E+02  0.30325146831E+02  0.00000000000E+00 0.  1.
</event>
<event>
 7    1  0.2941727E-013  0.7246159E+02  0.7816164E-02  0.1226708E+00
        -11   -1    0    0    0    0  0.00000000000E+00  0.00000000000E+00  0.45593999997E+02  0.45594000000E+02  0.51100000000E-03 0.  1.
         11   -1    0    0    0    0 -0.00000000000E+00 -0.00000000000E+00 -0.45593999997E+02  0.45594000000E+02  0.51100000000E-03 0. -1.
    9900012    2    1    2    0    0  0.27666412174E+01 -0.12065937801E+02  0.14051236920E+02  0.72461590370E+02  0.70000026152E+02 0.  0.
         12    1    1    2    0    0 -0.27666412174E+01  0.12065937801E+02 -0.14051236920E+02  0.18726409630E+02  0.00000000000E+00 0. -1.
         11    1    3    3    0    0  0.23092462080E+02 -0.87674390630E+01  0.21430286319E+02  0.32701482606E+02  0.51100000000E-03 0. -1.
        -11    1    3    3    0    0  0.72921853311E+01  0.57365546801E+01 -0.51616931253E+01  0.10617302043E+02  0.51100000000E-03 0.  1.
        -12    1    3    3    0    0 -0.27618006194E+02 -0.90350534181E+01 -0.22173562738E+01  0.29142805720E+02  0.00000000000E+00 0.  1.
</event>
<event>
 7    1  0.2941727E-013  0.7246162E+02  0.7816164E-02  0.1226708E+00
        -11   -1    0    0    0    0  0.00000000000E+00  0.00000000000E+00  0.45593999997E+02  0.45594000000E+02  0.51100000000E-03 0.  1.
         11   -1    0    0    0    0 -0.00000000000E+00 -0.00000000000E+00 -0.45593999997E+02  0.45594000000E+02  0.51100000000E-03 0. -1.
    9900012    2    1    2    0    0 -0.33417812128E+01  0.12796927777E+02  0.13257017299E+02  0.72461618346E+02  0.70000062596E+02 0.  0.
         12    1    1    2    0    0  0.33417812128E+01 -0.12796927777E+02 -0.13257017299E+02  0.18726381654E+02  0.00000000000E+00 0. -1.
         11    1    3    3    0    0  0.78478211343E+01  0.16187690963E+02 -0.41829401435E+01  0.18469613525E+02  0.51100000000E-03 0. -1.
        -11    1    3    3    0    0  0.90103348321E+01  0.18925639283E+02  0.61656623244E+01  0.21849058291E+02  0.51100000000E-03 0.  1.
        -12    1    3    3    0    0 -0.20199937179E+02 -0.22316402469E+02  0.11274295118E+02  0.32142946529E+02  0.00000000000E+00 0.  1.
</event>
<event>
 7    1  0.2941727E-013  0.7246156E+02  0.7816164E-02  0.1226708E+00
        -11   -1    0    0    0    0  0.00000000000E+00  0.00000000000E+00  0.45593999997E+02  0.45594000000E+02  0.51100000000E-03 0. -1.
         11   -1    0    0    0    0 -0.00000000000E+00 -0.00000000000E+00 -0.45593999997E+02  0.45594000000E+02  0.51100000000E-03 0.  1.
    9900012    2    1    2    0    0 -0.13425352732E+01  0.75456741365E+01 -0.17086254683E+02  0.72461556178E+02  0.69999981610E+02 0.  0.
         12    1    1    2    0    0  0.13425352732E+01 -0.75456741365E+01  0.17086254683E+02  0.18726443822E+02  0.00000000000E+00 0. -1.
         11    1    3    3    0    0  0.30723390440E+01 -0.10769477143E+02  0.10829173293E+02  0.15578571809E+02  0.51100000000E-03 0. -1.
        -11    1    3    3    0    0 -0.10141190151E+02 -0.12322198877E+02 -0.18266211748E+02  0.24255614087E+02  0.51100000000E-03 0.  1.
        -12    1    3    3    0    0  0.57263158336E+01  0.30637350157E+02 -0.96492162282E+01  0.32627370281E+02  0.00000000000E+00 0.  1.
</event>
<event>
 7    1  0.2941727E-013  0.7246155E+02  0.7816164E-02  0.1226708E+00
        -11   -1    0    0    0    0  0.00000000000E+00  0.00000000000E+00  0.45593999997E+02  0.45594000000E+02  0.51100000000E-03 0. -1.
         11   -1    0    0    0    0 -0.00000000000E+00 -0.00000000000E+00 -0.45593999997E+02  0.45594000000E+02  0.51100000000E-03 0.  1.
    9900012    2    1    2    0    0  0.94956298381E+01 -0.15879317963E+02  0.28914047428E+01  0.72461549552E+02  0.69999972979E+02 0.  0.
         12    1    1    2    0    0 -0.94956298381E+01  0.15879317963E+02 -0.28914047428E+01  0.18726450448E+02  0.00000000000E+00 0. -1.
         11    1    3    3    0    0 -0.12159694928E+02 -0.78090955612E+01  0.60824591534E+01  0.15679172933E+02  0.51100000000E-03 0. -1.
        -11    1    3    3    0    0  0.33622459332E+02 -0.14421541772E+02  0.99440804064E+01  0.37912206135E+02  0.51100000000E-03 0.  1.
         12    1    3    3    0    0 -0.11967134566E+02  0.63513193698E+01 -0.13135134817E+02  0.18870170485E+02  0.00000000000E+00 0. -1.
</event>
<event>
 7    1  0.2941727E-013  0.7246156E+02  0.7816164E-02  0.1226708E+00
        -11   -1    0    0    0    0  0.00000000000E+00  0.00000000000E+00  0.45593999997E+02  0.45594000000E+02  0.51100000000E-03 0.  1.
         11   -1    0    0    0    0 -0.00000000000E+00 -0.00000000000E+00 -0.45593999997E+02  0.45594000000E+02  0.51100000000E-03 0. -1.
    9900012    2    1    2    0    0  0.77755006067E+00 -0.15942335969E+00  0.18709614017E+02  0.72461557290E+02  0.69999983059E+02 0.  0.
         12    1    1    2    0    0 -0.77755006067E+00  0.15942335969E+00 -0.18709614017E+02  0.18726442710E+02  0.00000000000E+00 0. -1.
         11    1    3    3    0    0 -0.79695525811E+00  0.94793225986E+01 -0.18563170903E+02  0.20858667475E+02  0.51100000000E-03 0. -1.
        -11    1    3    3    0    0 -0.21923515638E+01 -0.96536362887E+00 -0.64441407100E+01  0.68749750594E+01  0.51100000000E-03 0.  1.
        -12    1    3    3    0    0  0.37668568826E+01 -0.86733823294E+01  0.43716925630E+02  0.44727914755E+02  0.00000000000E+00 0.  1.
</event>
<event>
 7    1  0.2941727E-013  0.7246151E+02  0.7816164E-02  0.1226708E+00
        -11   -1    0    0    0    0  0.00000000000E+00  0.00000000000E+00  0.45593999997E+02  0.45594000000E+02  0.51100000000E-03 0. -1.
         11   -1    0    0    0    0 -0.00000000000E+00 -0.00000000000E+00 -0.45593999997E+02  0.45594000000E+02  0.51100000000E-03 0.  1.
    9900012    2    1    2    0    0  0.42805023812E+00  0.15303908712E+00 -0.18720972695E+02  0.72461508962E+02  0.69999920103E+02 0.  0.
         12    1    1    2    0    0 -0.42805023812E+00 -0.15303908712E+00  0.18720972695E+02  0.18726491038E+02  0.00000000000E+00 0. -1.
         11    1    3    3    0    0  0.67942873665E+01 -0.28461998075E+01  0.68762203877E+01  0.10076983737E+02  0.51100000000E-03 0. -1.
        -11    1    3    3    0    0  0.21242902168E+02  0.76907185012E+00 -0.27339262144E+02  0.34630732288E+02  0.51100000000E-03 0.  1.
        -12    1    3    3    0    0 -0.27609139296E+02  0.22301670445E+01  0.17420690610E+01  0.27753792936E+02  0.00000000000E+00 0.  1.
</event>
<event>
 7    1  0.2941727E-013  0.7246156E+02  0.7816164E-02  0.1226708E+00
        -11   -1    0    0    0    0  0.00000000000E+00  0.00000000000E+00  0.45593999997E+02  0.45594000000E+02  0.51100000000E-03 0.  1.
         11   -1    0    0    0    0 -0.00000000000E+00 -0.00000000000E+00 -0.45593999997E+02  0.45594000000E+02  0.51100000000E-03 0. -1.
    9900012    2    1    2    0    0  0.10360024490E+01 -0.17209518797E+02  0.73101704585E+01  0.72461563328E+02  0.69999990925E+02 0.  0.
         12    1    1    2    0    0 -0.10360024490E+01  0.17209518797E+02 -0.73101704585E+01  0.18726436672E+02  0.00000000000E+00 0. -1.
         11    1    3    3    0    0  0.79764124467E+01  0.19054603039E+02  0.91447624816E+01  0.22590434559E+02  0.51100000000E-03 0. -1.
        -11    1    3    3    0    0 -0.10863542285E+01  0.28101928009E+01 -0.91993799061E+01  0.96801828498E+01  0.51100000000E-03 0.  1.
        -12    1    3    3    0    0 -0.58540557692E+01 -0.39074314637E+02  0.73647878830E+01  0.40190945919E+02  0.00000000000E+00 0.  1.
</event>
<event>
 7    1  0.2941727E-013  0.7246157E+02  0.7816164E-02  0.1226708E+00
        -11   -1    0    0    0    0  0.00000000000E+00  0.00000000000E+00  0.45593999997E+02  0.45594000000E+02  0.51100000000E-03 0.  1.
         11   -1    0    0    0    0 -0.00000000000E+00 -0.00000000000E+00 -0.45593999997E+02  0.45594000000E+02  0.51100000000E-03 0. -1.
    9900012    2    1    2    0    0 -0.13785556669E+02 -0.11695175196E+02  0.48847079929E+01  0.72461573013E+02  0.70000003541E+02 0.  0.
         12    1    1    2    0    0  0.13785556669E+02  0.11695175196E+02 -0.48847079929E+01  0.18726426987E+02  0.00000000000E+00 0. -1.
         11    1    3    3    0    0  0.41525665269E+01  0.75520691933E+00 -0.54138169749E+00  0.42552603510E+01  0.51100000000E-03 0. -1.
        -11    1    3    3    0    0 -0.30939435131E+01  0.26306454787E+02  0.21544508740E+01  0.26575246165E+02  0.51100000000E-03 0.  1.
         12    1    3    3    0    0 -0.14844179683E+02 -0.38756836902E+02  0.32716388164E+01  0.41631066497E+02  0.00000000000E+00 0. -1.
</event>
<event>
 7    1  0.2941727E-013  0.7246165E+02  0.7816164E-02  0.1226708E+00
        -11   -1    0    0    0    0  0.00000000000E+00  0.00000000000E+00  0.45593999997E+02  0.45594000000E+02  0.51100000000E-03 0.  1.
         11   -1    0    0    0    0 -0.00000000000E+00 -0.00000000000E+00 -0.45593999997E+02  0.45594000000E+02  0.51100000000E-03 0. -1.
    9900012    2    1    2    0    0 -0.17499787611E+02  0.34287060150E+01 -0.57164480018E+01  0.72461645066E+02  0.70000097404E+02 0.  0.
         12    1    1    2    0    0  0.17499787611E+02 -0.34287060150E+01  0.57164480018E+01  0.18726354934E+02  0.00000000000E+00 0. -1.
         11    1    3    3    0    0  0.64671887416E+01  0.59011563661E+01  0.63185795257E+01  0.10796880298E+02  0.51100000000E-03 0. -1.
        -11    1    3    3    0    0 -0.69807761812E+00 -0.17040397243E+02  0.15308630795E+02  0.22917605189E+02  0.51100000000E-03 0.  1.
         12    1    3    3    0    0 -0.23268898735E+02  0.14567946891E+02 -0.27343658322E+02  0.38747159579E+02  0.00000000000E+00 0. -1.
</event>
<event>
 7    1  0.2941727E-013  0.7246157E+02  0.7816164E-02  0.1226708E+00
        -11   -1    0    0    0    0  0.00000000000E+00  0.00000000000E+00  0.45593999997E+02  0.45594000000E+02  0.51100000000E-03 0. -1.
         11   -1    0    0    0    0 -0.00000000000E+00 -0.00000000000E+00 -0.45593999997E+02  0.45594000000E+02  0.51100000000E-03 0.  1.
    9900012    2    1    2    0    0  0.64974007225E+01 -0.12660518584E+02 -0.12172678762E+02  0.72461573347E+02  0.70000003977E+02 0.  0.
         12    1    1    2    0    0 -0.64974007225E+01  0.12660518584E+02  0.12172678762E+02  0.18726426653E+02  0.00000000000E+00 0. -1.
         11    1    3    3    0    0  0.21668609693E+02 -0.14974258022E+01 -0.78733821603E+01  0.23103269833E+02  0.51100000000E-03 0. -1.
        -11    1    3    3    0    0 -0.21010352540E+01 -0.10549467971E+02 -0.23660194470E+02  0.25990583414E+02  0.51100000000E-03 0.  1.
         12    1    3    3    0    0 -0.13070173717E+02 -0.61362481035E+00  0.19360897868E+02  0.23367720100E+02  0.00000000000E+00 0. -1.
</event>
<event>
 7    1  0.2941727E-013  0.7246159E+02  0.7816164E-02  0.1226708E+00
        -11   -1    0    0    0    0  0.00000000000E+00  0.00000000000E+00  0.45593999997E+02  0.45594000000E+02  0.51100000000E-03 0.  1.
         11   -1    0    0    0    0 -0.00000000000E+00 -0.00000000000E+00 -0.45593999997E+02  0.45594000000E+02  0.51100000000E-03 0. -1.
    9900012    2    1    2    0    0 -0.79102468504E+01  0.97575129690E+01  0.13888755255E+02  0.72461585845E+02  0.70000020258E+02 0.  0.
         12    1    1    2    0    0  0.79102468504E+01 -0.97575129690E+01 -0.13888755255E+02  0.18726414155E+02  0.00000000000E+00 0. -1.
         11    1    3    3    0    0  0.20213126388E+02  0.80759157682E+01  0.79913319236E+00  0.21781402801E+02  0.51100000000E-03 0. -1.
        -11    1    3    3    0    0  0.10886489883E+01  0.11795581611E+02 -0.70502920630E+01  0.13785046993E+02  0.51100000000E-03 0.  1.
        -12    1    3    3    0    0 -0.29212022226E+02 -0.10113984411E+02  0.20139914125E+02  0.36895136051E+02  0.00000000000E+00 0.  1.
</event>
<event>
 7    1  0.2941727E-013  0.7246155E+02  0.7816164E-02  0.1226708E+00
        -11   -1    0    0    0    0  0.00000000000E+00  0.00000000000E+00  0.45593999997E+02  0.45594000000E+02  0.51100000000E-03 0.  1.
         11   -1    0    0    0    0 -0.00000000000E+00 -0.00000000000E+00 -0.45593999997E+02  0.45594000000E+02  0.51100000000E-03 0. -1.
    9900012    2    1    2    0    0  0.35480225222E+01 -0.17516646005E+02  0.55909456648E+01  0.72461547466E+02  0.69999970262E+02 0.  0.
         12    1    1    2    0    0 -0.35480225222E+01  0.17516646005E+02 -0.55909456648E+01  0.18726452534E+02  0.00000000000E+00 0. -1.
         11    1    3    3    0    0  0.21397475113E+02  0.29793500107E+01  0.21373445153E+02  0.30390008648E+02  0.51100000000E-03 0.  1.
        -11    1    3    3    0    0 -0.24176090896E+01  0.66884962137E+01 -0.13180556937E+00  0.71132403502E+01  0.51100000000E-03 0. -1.
        -12    1    3    3    0    0 -0.15431843501E+02 -0.27184492229E+02 -0.15650693919E+02  0.34958298467E+02  0.00000000000E+00 0.  1.
</event>
<event>
 7    1  0.2941727E-013  0.7246157E+02  0.7816164E-02  0.1226708E+00
        -11   -1    0    0    0    0  0.00000000000E+00  0.00000000000E+00  0.45593999997E+02  0.45594000000E+02  0.51100000000E-03 0.  1.
         11   -1    0    0    0    0 -0.00000000000E+00 -0.00000000000E+00 -0.45593999997E+02  0.45594000000E+02  0.51100000000E-03 0. -1.
    9900012    2    1    2    0    0 -0.10299575162E+02 -0.31322293531E+01  0.15322763844E+02  0.72461569452E+02  0.69999998903E+02 0.  0.
         12    1    1    2    0    0  0.10299575162E+02  0.31322293531E+01 -0.15322763844E+02  0.18726430548E+02  0.00000000000E+00 0. -1.
         11    1    3    3    0    0  0.13526492881E+01 -0.21290526145E+01  0.61718079607E+01  0.66673637141E+01  0.51100000000E-03 0. -1.
        -11    1    3    3    0    0 -0.30498018304E+02 -0.15585750775E+02  0.19945702143E+02  0.39634275342E+02  0.51100000000E-03 0.  1.
         12    1    3    3    0    0  0.18845793853E+02  0.14582574037E+02 -0.10794746260E+02  0.26159930396E+02  0.00000000000E+00 0. -1.
</event>
<event>
 7    1  0.2941727E-013  0.7246157E+02  0.7816164E-02  0.1226708E+00
        -11   -1    0    0    0    0  0.00000000000E+00  0.00000000000E+00  0.45593999997E+02  0.45594000000E+02  0.51100000000E-03 0.  1.
         11   -1    0    0    0    0 -0.00000000000E+00 -0.00000000000E+00 -0.45593999997E+02  0.45594000000E+02  0.51100000000E-03 0. -1.
    9900012    2    1    2    0    0  0.11557982778E-01 -0.25367443286E+01  0.18553816599E+02  0.72461566390E+02  0.69999994914E+02 0.  0.
         12    1    1    2    0    0 -0.11557982778E-01  0.25367443286E+01 -0.18553816599E+02  0.18726433610E+02  0.00000000000E+00 0. -1.
         11    1    3    3    0    0  0.10641128345E+02 -0.42995997660E+01  0.20672024158E+02  0.23644296430E+02  0.51100000000E-03 0. -1.
        -11    1    3    3    0    0  0.53346262238E+01 -0.18492508125E+01  0.20293913507E+02  0.21064683506E+02  0.51100000000E-03 0.  1.
         12    1    3    3    0    0 -0.15964196586E+02  0.36121062499E+01 -0.22412121066E+02  0.27752586454E+02  0.00000000000E+00 0. -1.
</event>
<event>
 7    1  0.2941727E-013  0.7246157E+02  0.7816164E-02  0.1226708E+00
        -11   -1    0    0    0    0  0.00000000000E+00  0.00000000000E+00  0.45593999997E+02  0.45594000000E+02  0.51100000000E-03 0. -1.
         11   -1    0    0    0    0 -0.00000000000E+00 -0.00000000000E+00 -0.45593999997E+02  0.45594000000E+02  0.51100000000E-03 0.  1.
    9900012    2    1    2    0    0 -0.13357754063E+02 -0.36977933758E+01 -0.12592687737E+02  0.72461573382E+02  0.70000004022E+02 0.  0.
         12    1    1    2    0    0  0.13357754063E+02  0.36977933758E+01  0.12592687737E+02  0.18726426618E+02  0.00000000000E+00 0. -1.
         11    1    3    3    0    0  0.21978367226E+02 -0.71628004978E+01 -0.68874193247E+01  0.24120341666E+02  0.51100000000E-03 0. -1.
        -11    1    3    3    0    0 -0.69238722107E+01 -0.12975600997E+02  0.13379377954E+01  0.14768084013E+02  0.51100000000E-03 0.  1.
         12    1    3    3    0    0 -0.28412249078E+02  0.16440608119E+02 -0.70432062074E+01  0.33573147702E+02  0.00000000000E+00 0. -1.
</event>
<event>
 7    1  0.2941727E-013  0.7246156E+02  0.7816164E-02  0.1226708E+00
        -11   -1    0    0    0    0  0.00000000000E+00  0.00000000000E+00  0.45593999997E+02  0.45594000000E+02  0.51100000000E-03 0.  1.
         11   -1    0    0    0    0 -0.00000000000E+00 -0.00000000000E+00 -0.45593999997E+02  0.45594000000E+02  0.51100000000E-03 0. -1.
    9900012    2    1    2    0    0 -0.86541695984E+01 -0.53304181663E+01  0.15728049824E+02  0.72461559855E+02  0.69999986400E+02 0.  0.
         12    1    1    2    0    0  0.86541695984E+01  0.53304181663E+01 -0.15728049824E+02  0.18726440145E+02  0.00000000000E+00 0. -1.
         11    1    3    3    0    0 -0.22152121606E+02  0.68558574422E+01 -0.50186197415E+01  0.23725636288E+02  0.51100000000E-03 0. -1.
        -11    1    3    3    0    0 -0.67291380343E+00  0.11416702405E+02  0.17651034673E+02  0.21032188001E+02  0.51100000000E-03 0.  1.
        -12    1    3    3    0    0  0.14170865811E+02 -0.23602978014E+02  0.30956348918E+01  0.27703735566E+02  0.00000000000E+00 0.  1.
</event>
<event>
 7    1  0.2941727E-013  0.7246158E+02  0.7816164E-02  0.1226708E+00
        -11   -1    0    0    0    0  0.00000000000E+00  0.00000000000E+00  0.45593999997E+02  0.45594000000E+02  0.51100000000E-03 0. -1.
         11   -1    0    0    0    0 -0.00000000000E+00 -0.00000000000E+00 -0.45593999997E+02  0.45594000000E+02  0.51100000000E-03 0.  1.
    9900012    2    1    2    0    0 -0.11217345869E+02 -0.14786512682E+02 -0.24918147786E+01  0.72461576249E+02  0.70000007756E+02 0.  0.
         12    1    1    2    0    0  0.11217345869E+02  0.14786512682E+02  0.24918147786E+01  0.18726423751E+02  0.00000000000E+00 0. -1.
         11    1    3    3    0    0 -0.78699037796E+01  0.34578931547E+01  0.11218339688E+02  0.14133066058E+02  0.51100000000E-03 0. -1.
        -11    1    3    3    0    0 -0.64257814373E+01 -0.34232737302E+02  0.30473364664E+01  0.34963655845E+02  0.51100000000E-03 0.  1.
         12    1    3    3    0    0  0.30783393477E+01  0.15988331466E+02 -0.16757490933E+02  0.23364854345E+02  0.00000000000E+00 0. -1.
</event>
<event>
 7    1  0.2941727E-013  0.7246159E+02  0.7816164E-02  0.1226708E+00
        -11   -1    0    0    0    0  0.00000000000E+00  0.00000000000E+00  0.45593999997E+02  0.45594000000E+02  0.51100000000E-03 0.  1.
         11   -1    0    0    0    0 -0.00000000000E+00 -0.00000000000E+00 -0.45593999997E+02  0.45594000000E+02  0.51100000000E-03 0. -1.
    9900012    2    1    2    0    0  0.15215147597E+02  0.10886919853E+02 -0.80796468501E+00  0.72461586910E+02  0.70000021645E+02 0.  0.
         12    1    1    2    0    0 -0.15215147597E+02 -0.10886919853E+02  0.80796468501E+00  0.18726413090E+02  0.00000000000E+00 0. -1.
         11    1    3    3    0    0  0.72213560622E+01  0.45402804206E+01 -0.17954125091E+02  0.19877442937E+02  0.51100000000E-03 0. -1.
        -11    1    3    3    0    0  0.23748099328E+02  0.60853808706E+00 -0.55217090759E+01  0.24389174067E+02  0.51100000000E-03 0.  1.
        -12    1    3    3    0    0 -0.15754307793E+02  0.57381013451E+01  0.22667869482E+02  0.28194969905E+02  0.00000000000E+00 0.  1.
</event>
<event>
 7    1  0.2941727E-013  0.7246164E+02  0.7816164E-02  0.1226708E+00
        -11   -1    0    0    0    0  0.00000000000E+00  0.00000000000E+00  0.45593999997E+02  0.45594000000E+02  0.51100000000E-03 0.  1.
         11   -1    0    0    0    0 -0.00000000000E+00 -0.00000000000E+00 -0.45593999997E+02  0.45594000000E+02  0.51100000000E-03 0. -1.
    9900012    2    1    2    0    0 -0.16220920430E+02  0.30891718421E+01  0.88326371755E+01  0.72461635651E+02  0.70000085139E+02 0.  0.
         12    1    1    2    0    0  0.16220920430E+02 -0.30891718421E+01 -0.88326371755E+01  0.18726364349E+02  0.00000000000E+00 0. -1.
         11    1    3    3    0    0 -0.62105141286E+01 -0.22955436446E+02  0.17875544592E+02  0.29749918368E+02  0.51100000000E-03 0. -1.
        -11    1    3    3    0    0  0.85439618093E+01  0.51468011213E+01  0.53052101150E+01  0.11297526269E+02  0.51100000000E-03 0.  1.
        -12    1    3    3    0    0 -0.18554368110E+02  0.20897807167E+02 -0.14348117531E+02  0.31414191014E+02  0.00000000000E+00 0.  1.
</event>
<event>
 7    1  0.2941727E-013  0.7246176E+02  0.7816164E-02  0.1226708E+00
        -11   -1    0    0    0    0  0.00000000000E+00  0.00000000000E+00  0.45593999997E+02  0.45594000000E+02  0.51100000000E-03 0. -1.
         11   -1    0    0    0    0 -0.00000000000E+00 -0.00000000000E+00 -0.45593999997E+02  0.45594000000E+02  0.51100000000E-03 0.  1.
    9900012    2    1    2    0    0 -0.14482895780E+02  0.46205858553E+01  0.10934717867E+02  0.72461758021E+02  0.70000244548E+02 0.  0.
         12    1    1    2    0    0  0.14482895780E+02 -0.46205858553E+01 -0.10934717867E+02  0.18726241979E+02  0.00000000000E+00 0. -1.
         11    1    3    3    0    0  0.54648305746E+01  0.95319248300E+01 -0.59827190915E+01  0.12510591200E+02  0.51100000000E-03 0. -1.
        -11    1    3    3    0    0 -0.30290926538E+02  0.14125832774E+02  0.18547847881E+02  0.38224364525E+02  0.51100000000E-03 0.  1.
         12    1    3    3    0    0  0.10343200183E+02 -0.19037171749E+02 -0.16304109224E+01  0.21726802296E+02  0.00000000000E+00 0. -1.
</event>
<event>
 7    1  0.2941727E-013  0.7246159E+02  0.7816164E-02  0.1226708E+00
        -11   -1    0    0    0    0  0.00000000000E+00  0.00000000000E+00  0.45593999997E+02  0.45594000000E+02  0.51100000000E-03 0.  1.
         11   -1    0    0    0    0 -0.00000000000E+00 -0.00000000000E+00 -0.45593999997E+02  0.45594000000E+02  0.51100000000E-03 0. -1.
    9900012    2    1    2    0    0  0.12312158941E+02 -0.13903960508E+02 -0.24018628648E+01  0.72461592955E+02  0.70000029519E+02 0.  0.
         12    1    1    2    0    0 -0.12312158941E+02  0.13903960508E+02  0.24018628648E+01  0.18726407045E+02  0.00000000000E+00 0. -1.
         11    1    3    3    0    0 -0.11588378044E+02 -0.12710311359E+02  0.61920433003E+01  0.18280698046E+02  0.51100000000E-03 0. -1.
        -11    1    3    3    0    0 -0.15621123203E+00 -0.10849150203E+01  0.18164902791E+02  0.18197943187E+02  0.51100000000E-03 0.  1.
         12    1    3    3    0    0  0.24056748217E+02 -0.10873412863E+00 -0.26758808957E+02  0.35982951722E+02  0.00000000000E+00 0. -1.
</event>
<event>
 7    1  0.2941727E-013  0.7246151E+02  0.7816164E-02  0.1226708E+00
        -11   -1    0    0    0    0  0.00000000000E+00  0.00000000000E+00  0.45593999997E+02  0.45594000000E+02  0.51100000000E-03 0.  1.
         11   -1    0    0    0    0 -0.00000000000E+00 -0.00000000000E+00 -0.45593999997E+02  0.45594000000E+02  0.51100000000E-03 0. -1.
    9900012    2    1    2    0    0  0.13043460583E+02  0.23754749677E+01  0.13225235423E+02  0.72461505472E+02  0.69999915557E+02 0.  0.
         12    1    1    2    0    0 -0.13043460583E+02 -0.23754749677E+01 -0.13225235423E+02  0.18726494528E+02  0.00000000000E+00 0. -1.
         11    1    3    3    0    0  0.11063912361E+02 -0.25193041886E+01  0.95306566508E+00  0.11387070947E+02  0.51100000000E-03 0. -1.
        -11    1    3    3    0    0  0.29726178101E+02  0.72907136239E+00  0.14197892242E+02  0.32950832371E+02  0.51100000000E-03 0.  1.
         12    1    3    3    0    0 -0.27746629879E+02  0.41657077939E+01 -0.19257224837E+01  0.28123602155E+02  0.00000000000E+00 0. -1.
</event>
<event>
 7    1  0.2941727E-013  0.7246158E+02  0.7816164E-02  0.1226708E+00
        -11   -1    0    0    0    0  0.00000000000E+00  0.00000000000E+00  0.45593999997E+02  0.45594000000E+02  0.51100000000E-03 0.  1.
         11   -1    0    0    0    0 -0.00000000000E+00 -0.00000000000E+00 -0.45593999997E+02  0.45594000000E+02  0.51100000000E-03 0. -1.
    9900012    2    1    2    0    0  0.17748045505E+02  0.56435602993E+01  0.19585427089E+01  0.72461580651E+02  0.70000013492E+02 0.  0.
         12    1    1    2    0    0 -0.17748045505E+02 -0.56435602993E+01 -0.19585427089E+01  0.18726419349E+02  0.00000000000E+00 0. -1.
         11    1    3    3    0    0  0.88938298885E+01  0.86990177371E+01  0.49502364821E+01  0.13389472027E+02  0.51100000000E-03 0. -1.
        -11    1    3    3    0    0  0.24569255444E+02 -0.22964781224E+02 -0.18996852196E+01  0.33684392438E+02  0.51100000000E-03 0.  1.
         12    1    3    3    0    0 -0.15715039828E+02  0.19909323787E+02 -0.10920085537E+01  0.25387716185E+02  0.00000000000E+00 0. -1.
</event>
<event>
 7    1  0.2941727E-013  0.7246155E+02  0.7816164E-02  0.1226708E+00
        -11   -1    0    0    0    0  0.00000000000E+00  0.00000000000E+00  0.45593999997E+02  0.45594000000E+02  0.51100000000E-03 0.  1.
         11   -1    0    0    0    0 -0.00000000000E+00 -0.00000000000E+00 -0.45593999997E+02  0.45594000000E+02  0.51100000000E-03 0. -1.
    9900012    2    1    2    0    0 -0.48099748194E+01  0.60836335859E+01  0.17045046593E+02  0.72461546286E+02  0.69999968724E+02 0.  0.
         12    1    1    2    0    0  0.48099748194E+01 -0.60836335859E+01 -0.17045046593E+02  0.18726453714E+02  0.00000000000E+00 0. -1.
         11    1    3    3    0    0  0.11372293951E+02  0.28343267769E+02  0.20319522066E+01  0.30607167912E+02  0.51100000000E-03 0.  1.
        -11    1    3    3    0    0 -0.11466894631E+01  0.70117123617E+00 -0.67154961137E+01  0.68486806132E+01  0.51100000000E-03 0. -1.
        -12    1    3    3    0    0 -0.15035579307E+02 -0.22960805420E+02  0.21728590500E+02  0.35005697761E+02  0.00000000000E+00 0.  1.
</event>
<event>
 7    1  0.2941727E-013  0.7246153E+02  0.7816164E-02  0.1226708E+00
        -11   -1    0    0    0    0  0.00000000000E+00  0.00000000000E+00  0.45593999997E+02  0.45594000000E+02  0.51100000000E-03 0. -1.
         11   -1    0    0    0    0 -0.00000000000E+00 -0.00000000000E+00 -0.45593999997E+02  0.45594000000E+02  0.51100000000E-03 0.  1.
    9900012    2    1    2    0    0 -0.70668214484E+01 -0.12701558874E+02 -0.11807245446E+02  0.72461531880E+02  0.69999949958E+02 0.  0.
         12    1    1    2    0    0  0.70668214484E+01  0.12701558874E+02  0.11807245446E+02  0.18726468120E+02  0.00000000000E+00 0. -1.
         11    1    3    3    0    0 -0.10878409413E+02  0.37146563951E+01  0.14858979951E+02  0.18786371361E+02  0.51100000000E-03 0. -1.
        -11    1    3    3    0    0 -0.15994472978E+01  0.12237988077E+02 -0.20409141101E+02  0.23850778280E+02  0.51100000000E-03 0.  1.
         12    1    3    3    0    0  0.54110352620E+01 -0.28654203347E+02 -0.62570842960E+01  0.29824382239E+02  0.00000000000E+00 0. -1.
</event>
<event>
 7    1  0.2941727E-013  0.7246156E+02  0.7816164E-02  0.1226708E+00
        -11   -1    0    0    0    0  0.00000000000E+00  0.00000000000E+00  0.45593999997E+02  0.45594000000E+02  0.51100000000E-03 0.  1.
         11   -1    0    0    0    0 -0.00000000000E+00 -0.00000000000E+00 -0.45593999997E+02  0.45594000000E+02  0.51100000000E-03 0. -1.
    9900012    2    1    2    0    0 -0.10716437302E+02  0.79383268037E+01  0.13146123285E+02  0.72461558311E+02  0.69999984390E+02 0.  0.
         12    1    1    2    0    0  0.10716437302E+02 -0.79383268037E+01 -0.13146123285E+02  0.18726441689E+02  0.00000000000E+00 0. -1.
         11    1    3    3    0    0 -0.12604465672E+01 -0.38765879551E+01 -0.21095032093E+02  0.21485274934E+02  0.51100000000E-03 0. -1.
        -11    1    3    3    0    0  0.83479873568E+01  0.34994905262E+01 -0.24298830976E+01  0.93722814182E+01  0.51100000000E-03 0.  1.
        -12    1    3    3    0    0 -0.17803978091E+02  0.83154242326E+01  0.36671038476E+02  0.41604001959E+02  0.00000000000E+00 0.  1.
</event>
<event>
 7    1  0.2941727E-013  0.7246157E+02  0.7816164E-02  0.1226708E+00
        -11   -1    0    0    0    0  0.00000000000E+00  0.00000000000E+00  0.45593999997E+02  0.45594000000E+02  0.51100000000E-03 0.  1.
         11   -1    0    0    0    0 -0.00000000000E+00 -0.00000000000E+00 -0.45593999997E+02  0.45594000000E+02  0.51100000000E-03 0. -1.
    9900012    2    1    2    0    0  0.11466739895E+01 -0.18453612779E+02  0.29712872940E+01  0.72461568572E+02  0.69999997757E+02 0.  0.
         12    1    1    2    0    0 -0.11466739895E+01  0.18453612779E+02 -0.29712872940E+01  0.18726431428E+02  0.00000000000E+00 0. -1.
         11    1    3    3    0    0 -0.24213692897E+01 -0.25167450948E+02 -0.37067505733E+01  0.25553935441E+02  0.51100000000E-03 0. -1.
        -11    1    3    3    0    0  0.18342213528E+02 -0.75077868121E+01 -0.83268567786E+01  0.21497446453E+02  0.51100000000E-03 0.  1.
        -12    1    3    3    0    0 -0.14774170249E+02  0.14221624981E+02  0.15004894646E+02  0.25410186678E+02  0.00000000000E+00 0.  1.
</event>
<event>
 7    1  0.2941727E-013  0.7246156E+02  0.7816164E-02  0.1226708E+00
        -11   -1    0    0    0    0  0.00000000000E+00  0.00000000000E+00  0.45593999997E+02  0.45594000000E+02  0.51100000000E-03 0. -1.
         11   -1    0    0    0    0 -0.00000000000E+00 -0.00000000000E+00 -0.45593999997E+02  0.45594000000E+02  0.51100000000E-03 0.  1.
    9900012    2    1    2    0    0 -0.73428084885E+01 -0.35318310536E+01 -0.16860869242E+02  0.72461559370E+02  0.69999985769E+02 0.  0.
         12    1    1    2    0    0  0.73428084885E+01  0.35318310536E+01  0.16860869242E+02  0.18726440630E+02  0.00000000000E+00 0. -1.
         11    1    3    3    0    0  0.19267580496E+02  0.18069164937E+02 -0.18945561308E+02  0.32506440488E+02  0.51100000000E-03 0. -1.
        -11    1    3    3    0    0 -0.16793160101E+01 -0.17894863882E+00  0.65668611509E+01  0.67805450012E+01  0.51100000000E-03 0.  1.
        -12    1    3    3    0    0 -0.24931072975E+02 -0.21422047352E+02 -0.44821690852E+01  0.33174573880E+02  0.00000000000E+00 0.  1.
</event>
<event>
 7    1  0.2941727E-013  0.7246158E+02  0.7816164E-02  0.1226708E+00
        -11   -1    0    0    0    0  0.00000000000E+00  0.00000000000E+00  0.45593999997E+02  0.45594000000E+02  0.51100000000E-03 0.  1.
         11   -1    0    0    0    0 -0.00000000000E+00 -0.00000000000E+00 -0.45593999997E+02  0.45594000000E+02  0.51100000000E-03 0. -1.
    9900012    2    1    2    0    0  0.56825195628E+01  0.17725520478E+01  0.17755167950E+02  0.72461575935E+02  0.70000007348E+02 0.  0.
         12    1    1    2    0    0 -0.56825195628E+01 -0.17725520478E+01 -0.17755167950E+02  0.18726424065E+02  0.00000000000E+00 0. -1.
         11    1    3    3    0    0 -0.26507986258E+02 -0.61934121171E+01  0.70977104052E+01  0.28131995705E+02  0.51100000000E-03 0. -1.
        -11    1    3    3    0    0 -0.38001453354E+01 -0.16516846305E+01 -0.24781183624E+01  0.48280676847E+01  0.51100000000E-03 0.  1.
        -12    1    3    3    0    0  0.35990651156E+02  0.96176487954E+01  0.13135575907E+02  0.39501512545E+02  0.00000000000E+00 0.  1.
</event>
<event>
 7    1  0.4033305E-013  0.7246160E+02  0.7816164E-02  0.1226708E+00
        -11   -1    0    0    0    0  0.00000000000E+00  0.00000000000E+00  0.45593999997E+02  0.45594000000E+02  0.51100000000E-03 0. -1.
         11   -1    0    0    0    0 -0.00000000000E+00 -0.00000000000E+00 -0.45593999997E+02  0.45594000000E+02  0.51100000000E-03 0.  1.
    9900012    2    1    2    0    0  0.11855552085E+02 -0.11570910071E+02 -0.87314318613E+01  0.72461602123E+02  0.70000041463E+02 0.  0.
         12    1    1    2    0    0 -0.11855552085E+02  0.11570910071E+02  0.87314318613E+01  0.18726397877E+02  0.00000000000E+00 0. -1.
         11    1    3    3    0    0  0.72125012813E+01  0.10163330957E+01 -0.15047583984E+01  0.74375671959E+01  0.51100000000E-03 0. -1.
        -11    1    3    3    0    0  0.19752039787E+02  0.12401618327E+02 -0.22207310861E+02  0.32204159186E+02  0.51100000000E-03 0.  1.
         12    1    3    3    0    0 -0.15108988984E+02 -0.24988861493E+02  0.14980637398E+02  0.32819875742E+02  0.00000000000E+00 0. -1.
</event>
<event>
 7    1  0.2941727E-013  0.7246160E+02  0.7816164E-02  0.1226708E+00
        -11   -1    0    0    0    0  0.00000000000E+00  0.00000000000E+00  0.45593999997E+02  0.45594000000E+02  0.51100000000E-03 0.  1.
         11   -1    0    0    0    0 -0.00000000000E+00 -0.00000000000E+00 -0.45593999997E+02  0.45594000000E+02  0.51100000000E-03 0. -1.
    9900012    2    1    2    0    0 -0.13005781781E+02 -0.15691509010E+01  0.13381535974E+02  0.72461598869E+02  0.70000037224E+02 0.  0.
         12    1    1    2    0    0  0.13005781781E+02  0.15691509010E+01 -0.13381535974E+02  0.18726401131E+02  0.00000000000E+00 0. -1.
         11    1    3    3    0    0  0.15528828053E+02 -0.31337944537E+00 -0.12952347014E+02  0.20223896776E+02  0.51100000000E-03 0.  1.
        -11    1    3    3    0    0 -0.76400555015E+01  0.16152714974E+02  0.11645941518E+02  0.21328586526E+02  0.51100000000E-03 0. -1.
        -12    1    3    3    0    0 -0.20894554332E+02 -0.17408486429E+02  0.14687941471E+02  0.30909115567E+02  0.00000000000E+00 0.  1.
</event>
<event>
 7    1  0.3208133E-013  0.7246159E+02  0.7816164E-02  0.1226708E+00
        -11   -1    0    0    0    0  0.00000000000E+00  0.00000000000E+00  0.45593999997E+02  0.45594000000E+02  0.51100000000E-03 0. -1.
         11   -1    0    0    0    0 -0.00000000000E+00 -0.00000000000E+00 -0.45593999997E+02  0.45594000000E+02  0.51100000000E-03 0.  1.
    9900012    2    1    2    0    0  0.14861810779E+02 -0.10353292257E+02 -0.47554594198E+01  0.72461588852E+02  0.70000024175E+02 0.  0.
         12    1    1    2    0    0 -0.14861810779E+02  0.10353292257E+02  0.47554594198E+01  0.18726411148E+02  0.00000000000E+00 0. -1.
         11    1    3    3    0    0 -0.57224975810E+01  0.69096224834E+00  0.18503975998E+01  0.60537904599E+01  0.51100000000E-03 0. -1.
        -11    1    3    3    0    0 -0.42286694600E+00 -0.49733602782E+01 -0.32291447765E+02  0.32674925064E+02  0.51100000000E-03 0.  1.
         12    1    3    3    0    0  0.21007175307E+02 -0.60708942268E+01  0.25685590745E+02  0.33732873328E+02  0.00000000000E+00 0. -1.
</event>
<event>
 7    1  0.2941727E-013  0.7246156E+02  0.7816164E-02  0.1226708E+00
        -11   -1    0    0    0    0  0.00000000000E+00  0.00000000000E+00  0.45593999997E+02  0.45594000000E+02  0.51100000000E-03 0.  1.
         11   -1    0    0    0    0 -0.00000000000E+00 -0.00000000000E+00 -0.45593999997E+02  0.45594000000E+02  0.51100000000E-03 0. -1.
    9900012    2    1    2    0    0  0.13825707137E+01  0.70653761653E+01  0.17287230429E+02  0.72461564727E+02  0.69999992747E+02 0.  0.
         12    1    1    2    0    0 -0.13825707137E+01 -0.70653761653E+01 -0.17287230429E+02  0.18726435273E+02  0.00000000000E+00 0. -1.
         11    1    3    3    0    0  0.20286497066E+02  0.72394191252E+01  0.46132038627E+01  0.22028000423E+02  0.51100000000E-03 0. -1.
        -11    1    3    3    0    0  0.13456791215E+02 -0.64031668810E+01 -0.57879158464E+00  0.14913778055E+02  0.51100000000E-03 0.  1.
         12    1    3    3    0    0 -0.32360717567E+02  0.62291239211E+01  0.13252818151E+02  0.35519786250E+02  0.00000000000E+00 0. -1.
</event>
<event>
 7    1  0.2941727E-013  0.7246159E+02  0.7816164E-02  0.1226708E+00
        -11   -1    0    0    0    0  0.00000000000E+00  0.00000000000E+00  0.45593999997E+02  0.45594000000E+02  0.51100000000E-03 0.  1.
         11   -1    0    0    0    0 -0.00000000000E+00 -0.00000000000E+00 -0.45593999997E+02  0.45594000000E+02  0.51100000000E-03 0. -1.
    9900012    2    1    2    0    0 -0.68533013521E+01  0.40056370143E+01  0.16960709854E+02  0.72461586941E+02  0.70000021685E+02 0.  0.
         12    1    1    2    0    0  0.68533013521E+01 -0.40056370143E+01 -0.16960709854E+02  0.18726413059E+02  0.00000000000E+00 0. -1.
         11    1    3    3    0    0  0.88154063907E+01  0.10742726360E+02  0.68002168326E+00  0.13913302600E+02  0.51100000000E-03 0. -1.
        -11    1    3    3    0    0  0.18970422546E+02  0.35733263394E+01  0.10414841686E+02  0.21934322882E+02  0.51100000000E-03 0.  1.
         12    1    3    3    0    0 -0.34639130289E+02 -0.10310415685E+02  0.58658464839E+01  0.36613961459E+02  0.00000000000E+00 0. -1.
</event>
<event>
 7    1  0.2941727E-013  0.7246155E+02  0.7816164E-02  0.1226708E+00
        -11   -1    0    0    0    0  0.00000000000E+00  0.00000000000E+00  0.45593999997E+02  0.45594000000E+02  0.51100000000E-03 0.  1.
         11   -1    0    0    0    0 -0.00000000000E+00 -0.00000000000E+00 -0.45593999997E+02  0.45594000000E+02  0.51100000000E-03 0. -1.
    9900012    2    1    2    0    0 -0.12302177988E+02 -0.73107453839E+01  0.12078472565E+02  0.72461545962E+02  0.69999968303E+02 0.  0.
         12    1    1    2    0    0  0.12302177988E+02  0.73107453839E+01 -0.12078472565E+02  0.18726454038E+02  0.00000000000E+00 0. -1.
         11    1    3    3    0    0 -0.22675758974E+02 -0.26288852219E+01 -0.66653535479E+01  0.23780833054E+02  0.51100000000E-03 0. -1.
        -11    1    3    3    0    0 -0.21232562050E+01  0.12867858059E+02  0.23261128025E+02  0.26667772033E+02  0.51100000000E-03 0.  1.
         12    1    3    3    0    0  0.12496837191E+02 -0.17549718221E+02 -0.45173019122E+01  0.22012940876E+02  0.00000000000E+00 0. -1.
</event>
<event>
 7    1  0.2941727E-013  0.7246186E+02  0.7816164E-02  0.1226707E+00
        -11   -1    0    0    0    0  0.00000000000E+00  0.00000000000E+00  0.45593999997E+02  0.45594000000E+02  0.51100000000E-03 0.  1.
         11   -1    0    0    0    0 -0.00000000000E+00 -0.00000000000E+00 -0.45593999997E+02  0.45594000000E+02  0.51100000000E-03 0. -1.
    9900012    2    1    2    0    0  0.76274390483E+01 -0.69825233539E+01  0.15612006937E+02  0.72461862666E+02  0.70000380868E+02 0.  0.
         12    1    1    2    0    0 -0.76274390483E+01  0.69825233539E+01 -0.15612006937E+02  0.18726137334E+02  0.00000000000E+00 0. -1.
         11    1    3    3    0    0  0.64204682781E+01 -0.20300645792E+02 -0.12245029885E+02  0.24561746470E+02  0.51100000000E-03 0. -1.
        -11    1    3    3    0    0  0.28004240891E+01 -0.12645521951E+02  0.95079555583E+01  0.16067134768E+02  0.51100000000E-03 0.  1.
        -12    1    3    3    0    0 -0.15934533189E+01  0.25963644389E+02  0.18349081264E+02  0.31832981429E+02  0.00000000000E+00 0.  1.
</event>
<event>
 7    1  0.2941727E-013  0.7246148E+02  0.7816164E-02  0.1226708E+00
        -11   -1    0    0    0    0  0.00000000000E+00  0.00000000000E+00  0.45593999997E+02  0.45594000000E+02  0.51100000000E-03 0.  1.
         11   -1    0    0    0    0 -0.00000000000E+00 -0.00000000000E+00 -0.45593999997E+02  0.45594000000E+02  0.51100000000E-03 0. -1.
    9900012    2    1    2    0    0  0.11259917144E+02 -0.16581312068E+01  0.14871026445E+02  0.72461479749E+02  0.69999882047E+02 0.  0.
         12    1    1    2    0    0 -0.11259917144E+02  0.16581312068E+01 -0.14871026445E+02  0.18726520251E+02  0.00000000000E+00 0. -1.
         11    1    3    3    0    0  0.14294460527E+02 -0.82670304862E+01 -0.26483407522E+01  0.16723908151E+02  0.51100000000E-03 0. -1.
        -11    1    3    3    0    0 -0.63726917793E+01 -0.50916095848E+01  0.34161535273E+02  0.35121876105E+02  0.51100000000E-03 0.  1.
         12    1    3    3    0    0  0.33381483960E+01  0.11700508864E+02 -0.16642168076E+02  0.20615695493E+02  0.00000000000E+00 0. -1.
</event>
<event>
 7    1  0.2941727E-013  0.7246158E+02  0.7816164E-02  0.1226708E+00
        -11   -1    0    0    0    0  0.00000000000E+00  0.00000000000E+00  0.45593999997E+02  0.45594000000E+02  0.51100000000E-03 0.  1.
         11   -1    0    0    0    0 -0.00000000000E+00 -0.00000000000E+00 -0.45593999997E+02  0.45594000000E+02  0.51100000000E-03 0. -1.
    9900012    2    1    2    0    0  0.13324339112E+02  0.88070371099E+01 -0.97763525532E+01  0.72461575230E+02  0.70000006430E+02 0.  0.
         12    1    1    2    0    0 -0.13324339112E+02 -0.88070371099E+01  0.97763525532E+01  0.18726424770E+02  0.00000000000E+00 0. -1.
         11    1    3    3    0    0  0.60828095190E+01 -0.53679786089E+01 -0.99980723144E+01  0.12875450138E+02  0.51100000000E-03 0. -1.
        -11    1    3    3    0    0 -0.83001660765E+01 -0.69787323848E+01 -0.22430373835E+02  0.24914195416E+02  0.51100000000E-03 0.  1.
        -12    1    3    3    0    0  0.15541695669E+02  0.21153748104E+02  0.22652093597E+02  0.34671929675E+02  0.00000000000E+00 0.  1.
</event>
<event>
 7    1  0.2941727E-013  0.7246161E+02  0.7816164E-02  0.1226708E+00
        -11   -1    0    0    0    0  0.00000000000E+00  0.00000000000E+00  0.45593999997E+02  0.45594000000E+02  0.51100000000E-03 0. -1.
         11   -1    0    0    0    0 -0.00000000000E+00 -0.00000000000E+00 -0.45593999997E+02  0.45594000000E+02  0.51100000000E-03 0.  1.
    9900012    2    1    2    0    0  0.13260275585E+02  0.10136441442E+02 -0.84909002595E+01  0.72461608438E+02  0.70000049690E+02 0.  0.
         12    1    1    2    0    0 -0.13260275585E+02 -0.10136441442E+02  0.84909002595E+01  0.18726391562E+02  0.00000000000E+00 0. -1.
         11    1    3    3    0    0  0.13067472978E+02 -0.10043001181E+01  0.14323370300E+02  0.19414592599E+02  0.51100000000E-03 0. -1.
        -11    1    3    3    0    0  0.10678900704E+02  0.25109303460E+02 -0.43501201403E+01  0.27630410528E+02  0.51100000000E-03 0.  1.
        -12    1    3    3    0    0 -0.10486098097E+02 -0.13968561900E+02 -0.18464150419E+02  0.25416605311E+02  0.00000000000E+00 0.  1.
</event>
<event>
 7    1  0.2941727E-013  0.7246155E+02  0.7816164E-02  0.1226708E+00
        -11   -1    0    0    0    0  0.00000000000E+00  0.00000000000E+00  0.45593999997E+02  0.45594000000E+02  0.51100000000E-03 0.  1.
         11   -1    0    0    0    0 -0.00000000000E+00 -0.00000000000E+00 -0.45593999997E+02  0.45594000000E+02  0.51100000000E-03 0. -1.
    9900012    2    1    2    0    0  0.12284614804E+02  0.13479830405E+02  0.42499976097E+01  0.72461546296E+02  0.69999968738E+02 0.  0.
         12    1    1    2    0    0 -0.12284614804E+02 -0.13479830405E+02 -0.42499976097E+01  0.18726453704E+02  0.00000000000E+00 0. -1.
         11    1    3    3    0    0 -0.12400559303E+02 -0.12138770569E+02  0.18936515263E+02  0.25684922279E+02  0.51100000000E-03 0.  1.
        -11    1    3    3    0    0 -0.19760361122E+01  0.17887856975E+01 -0.10430408350E+02  0.10765588307E+02  0.51100000000E-03 0. -1.
         12    1    3    3    0    0  0.26661210219E+02  0.23829815277E+02 -0.42561093030E+01  0.36011035710E+02  0.00000000000E+00 0. -1.
</event>
<event>
 7    1  0.2941727E-013  0.7246157E+02  0.7816164E-02  0.1226708E+00
        -11   -1    0    0    0    0  0.00000000000E+00  0.00000000000E+00  0.45593999997E+02  0.45594000000E+02  0.51100000000E-03 0. -1.
         11   -1    0    0    0    0 -0.00000000000E+00 -0.00000000000E+00 -0.45593999997E+02  0.45594000000E+02  0.51100000000E-03 0.  1.
    9900012    2    1    2    0    0 -0.37234083262E+01  0.14011390056E+02 -0.11853111752E+02  0.72461572709E+02  0.70000003146E+02 0.  0.
         12    1    1    2    0    0  0.37234083262E+01 -0.14011390056E+02  0.11853111752E+02  0.18726427291E+02  0.00000000000E+00 0. -1.
         11    1    3    3    0    0 -0.66648647348E+01 -0.41099942837E+01  0.96644070607E+01  0.12438377669E+02  0.51100000000E-03 0. -1.
        -11    1    3    3    0    0 -0.20527133721E+02  0.86474069972E+01 -0.26089793737E+02  0.34304783982E+02  0.51100000000E-03 0.  1.
        -12    1    3    3    0    0  0.23468590129E+02  0.94739773430E+01  0.45722749246E+01  0.25718411058E+02  0.00000000000E+00 0.  1.
</event>
<event>
 7    1  0.2941727E-013  0.7246157E+02  0.7816164E-02  0.1226708E+00
        -11   -1    0    0    0    0  0.00000000000E+00  0.00000000000E+00  0.45593999997E+02  0.45594000000E+02  0.51100000000E-03 0.  1.
         11   -1    0    0    0    0 -0.00000000000E+00 -0.00000000000E+00 -0.45593999997E+02  0.45594000000E+02  0.51100000000E-03 0. -1.
    9900012    2    1    2    0    0  0.38669883733E+01 -0.95058842450E+01  0.15664096917E+02  0.72461565033E+02  0.69999993146E+02 0.  0.
         12    1    1    2    0    0 -0.38669883733E+01  0.95058842450E+01 -0.15664096917E+02  0.18726434967E+02  0.00000000000E+00 0. -1.
         11    1    3    3    0    0 -0.11368619635E+02  0.21739943797E+02  0.13771239643E+02  0.28133924544E+02  0.51100000000E-03 0. -1.
        -11    1    3    3    0    0 -0.86464735508E+00 -0.18876234236E+01  0.97220899886E+01  0.99413163739E+01  0.51100000000E-03 0.  1.
         12    1    3    3    0    0  0.16100255363E+02 -0.29358204619E+02 -0.78292327142E+01  0.34386324114E+02  0.00000000000E+00 0. -1.
</event>
<event>
 7    1  0.2941727E-013  0.7246156E+02  0.7816164E-02  0.1226708E+00
        -11   -1    0    0    0    0  0.00000000000E+00  0.00000000000E+00  0.45593999997E+02  0.45594000000E+02  0.51100000000E-03 0.  1.
         11   -1    0    0    0    0 -0.00000000000E+00 -0.00000000000E+00 -0.45593999997E+02  0.45594000000E+02  0.51100000000E-03 0. -1.
    9900012    2    1    2    0    0 -0.17887162976E+02 -0.28511631612E+01  0.47539301133E+01  0.72461559276E+02  0.69999985646E+02 0.  0.
         12    1    1    2    0    0  0.17887162976E+02  0.28511631612E+01 -0.47539301133E+01  0.18726440724E+02  0.00000000000E+00 0. -1.
         11    1    3    3    0    0  0.12222638536E+02  0.69665154192E+01  0.18243544361E+02  0.23038058534E+02  0.51100000000E-03 0. -1.
        -11    1    3    3    0    0  0.28815048621E+01  0.82766849014E+01 -0.70527588374E+01  0.11249355124E+02  0.51100000000E-03 0.  1.
        -12    1    3    3    0    0 -0.32991306374E+02 -0.18094363482E+02 -0.64368554106E+01  0.38174145618E+02  0.00000000000E+00 0.  1.
</event>
<event>
 7    1  0.2941727E-013  0.7246156E+02  0.7816164E-02  0.1226708E+00
        -11   -1    0    0    0    0  0.00000000000E+00  0.00000000000E+00  0.45593999997E+02  0.45594000000E+02  0.51100000000E-03 0.  1.
         11   -1    0    0    0    0 -0.00000000000E+00 -0.00000000000E+00 -0.45593999997E+02  0.45594000000E+02  0.51100000000E-03 0. -1.
    9900012    2    1    2    0    0 -0.16636065250E+02  0.48389745424E+01  0.71066966590E+01  0.72461562030E+02  0.69999989234E+02 0.  0.
         12    1    1    2    0    0  0.16636065250E+02 -0.48389745424E+01 -0.71066966590E+01  0.18726437970E+02  0.00000000000E+00 0. -1.
         11    1    3    3    0    0 -0.58177599138E+01  0.16939325566E+02  0.49988222578E+01  0.18595034425E+02  0.51100000000E-03 0. -1.
        -11    1    3    3    0    0  0.17216401808E+02  0.59308242521E+01  0.82190075835E+01  0.19978269531E+02  0.51100000000E-03 0.  1.
         12    1    3    3    0    0 -0.28034707145E+02 -0.18031175276E+02 -0.61111331824E+01  0.33888258074E+02  0.00000000000E+00 0. -1.
</event>
<event>
 7    1  0.2941727E-013  0.7246166E+02  0.7816164E-02  0.1226708E+00
        -11   -1    0    0    0    0  0.00000000000E+00  0.00000000000E+00  0.45593999997E+02  0.45594000000E+02  0.51100000000E-03 0.  1.
         11   -1    0    0    0    0 -0.00000000000E+00 -0.00000000000E+00 -0.45593999997E+02  0.45594000000E+02  0.51100000000E-03 0. -1.
    9900012    2    1    2    0    0  0.10710348733E+02 -0.49224491466E+01  0.14551067870E+02  0.72461664220E+02  0.70000122356E+02 0.  0.
         12    1    1    2    0    0 -0.10710348733E+02  0.49224491466E+01 -0.14551067870E+02  0.18726335780E+02  0.00000000000E+00 0. -1.
         11    1    3    3    0    0 -0.23606494860E+02  0.76621610698E+01 -0.44187265664E+01  0.25209134387E+02  0.51100000000E-03 0. -1.
        -11    1    3    3    0    0 -0.20101951924E+01 -0.47411842806E+01 -0.71154937997E+00  0.51986551987E+01  0.51100000000E-03 0.  1.
        -12    1    3    3    0    0  0.36327038785E+02 -0.78434259358E+01  0.19681343817E+02  0.42053874634E+02  0.00000000000E+00 0.  1.
</event>
<event>
 7    1  0.2941727E-013  0.7246174E+02  0.7816164E-02  0.1226708E+00
        -11   -1    0    0    0    0  0.00000000000E+00  0.00000000000E+00  0.45593999997E+02  0.45594000000E+02  0.51100000000E-03 0. -1.
         11   -1    0    0    0    0 -0.00000000000E+00 -0.00000000000E+00 -0.45593999997E+02  0.45594000000E+02  0.51100000000E-03 0.  1.
    9900012    2    1    2    0    0  0.13122672712E+02 -0.20733990804E+01 -0.13197327925E+02  0.72461735364E+02  0.70000215033E+02 0.  0.
         12    1    1    2    0    0 -0.13122672712E+02  0.20733990804E+01  0.13197327925E+02  0.18726264636E+02  0.00000000000E+00 0. -1.
         11    1    3    3    0    0 -0.16828646418E+02 -0.40495858740E+01 -0.50477181109E+01  0.18030028963E+02  0.51100000000E-03 0. -1.
        -11    1    3    3    0    0 -0.28964772939E+01 -0.15810282406E+02 -0.54813158451E+01  0.16982327112E+02  0.51100000000E-03 0.  1.
        -12    1    3    3    0    0  0.32847796424E+02  0.17786469199E+02 -0.26682939694E+01  0.37449379290E+02  0.00000000000E+00 0.  1.
</event>
<event>
 7    1  0.2941727E-013  0.7246161E+02  0.7816164E-02  0.1226708E+00
        -11   -1    0    0    0    0  0.00000000000E+00  0.00000000000E+00  0.45593999997E+02  0.45594000000E+02  0.51100000000E-03 0.  1.
         11   -1    0    0    0    0 -0.00000000000E+00 -0.00000000000E+00 -0.45593999997E+02  0.45594000000E+02  0.51100000000E-03 0. -1.
    9900012    2    1    2    0    0  0.63782409359E+01 -0.17524405493E+02 -0.17002466068E+01  0.72461612632E+02  0.70000055153E+02 0.  0.
         12    1    1    2    0    0 -0.63782409359E+01  0.17524405493E+02  0.17002466068E+01  0.18726387368E+02  0.00000000000E+00 0. -1.
         11    1    3    3    0    0 -0.22996894186E+02 -0.15001615647E+02 -0.12837268450E+02  0.30310082080E+02  0.51100000000E-03 0. -1.
        -11    1    3    3    0    0 -0.40024796615E+01 -0.17901088779E+00 -0.37882026148E+01  0.55138342059E+01  0.51100000000E-03 0.  1.
        -12    1    3    3    0    0  0.33377614783E+02 -0.23437789587E+01  0.14925224458E+02  0.36637696346E+02  0.00000000000E+00 0.  1.
</event>
<event>
 7    1  0.2941727E-013  0.7246156E+02  0.7816164E-02  0.1226708E+00
        -11   -1    0    0    0    0  0.00000000000E+00  0.00000000000E+00  0.45593999997E+02  0.45594000000E+02  0.51100000000E-03 0. -1.
         11   -1    0    0    0    0 -0.00000000000E+00 -0.00000000000E+00 -0.45593999997E+02  0.45594000000E+02  0.51100000000E-03 0.  1.
    9900012    2    1    2    0    0 -0.14647642492E+02  0.83089852996E+01 -0.81906651674E+01  0.72461557114E+02  0.69999982830E+02 0.  0.
         12    1    1    2    0    0  0.14647642492E+02 -0.83089852996E+01  0.81906651674E+01  0.18726442886E+02  0.00000000000E+00 0. -1.
         11    1    3    3    0    0 -0.45427474724E+01  0.22909090982E+01  0.25123933416E+01  0.56742347201E+01  0.51100000000E-03 0. -1.
        -11    1    3    3    0    0 -0.90310127894E+01  0.32387691649E+02 -0.19621417086E+02  0.38929702941E+02  0.51100000000E-03 0.  1.
        -12    1    3    3    0    0 -0.10738822299E+01 -0.26369615447E+02  0.89183585768E+01  0.27857619453E+02  0.00000000000E+00 0.  1.
</event>
<event>
 7    1  0.2941727E-013  0.7246156E+02  0.7816164E-02  0.1226708E+00
        -11   -1    0    0    0    0  0.00000000000E+00  0.00000000000E+00  0.45593999997E+02  0.45594000000E+02  0.51100000000E-03 0.  1.
         11   -1    0    0    0    0 -0.00000000000E+00 -0.00000000000E+00 -0.45593999997E+02  0.45594000000E+02  0.51100000000E-03 0. -1.
    9900012    2    1    2    0    0  0.14416302676E+02  0.11951659869E+02  0.88153412870E-01  0.72461555397E+02  0.69999980593E+02 0.  0.
         12    1    1    2    0    0 -0.14416302676E+02 -0.11951659869E+02 -0.88153412870E-01  0.18726444603E+02  0.00000000000E+00 0. -1.
         11    1    3    3    0    0 -0.94786375201E+01  0.80828011236E+01 -0.74075480841E+01  0.14493033227E+02  0.51100000000E-03 0. -1.
        -11    1    3    3    0    0  0.24854617330E+02  0.21158408973E+02  0.18434348107E+02  0.37486737165E+02  0.51100000000E-03 0.  1.
         12    1    3    3    0    0 -0.95967713417E+00 -0.17289550228E+02 -0.10938646610E+02  0.20481785004E+02  0.00000000000E+00 0. -1.
</event>
<event>
 7    1  0.2941727E-013  0.7246155E+02  0.7816164E-02  0.1226708E+00
        -11   -1    0    0    0    0  0.00000000000E+00  0.00000000000E+00  0.45593999997E+02  0.45594000000E+02  0.51100000000E-03 0.  1.
         11   -1    0    0    0    0 -0.00000000000E+00 -0.00000000000E+00 -0.45593999997E+02  0.45594000000E+02  0.51100000000E-03 0. -1.
    9900012    2    1    2    0    0 -0.41839520720E+01 -0.15794029086E+02 -0.91500324739E+01  0.72461550684E+02  0.69999974453E+02 0.  0.
         12    1    1    2    0    0  0.41839520720E+01  0.15794029086E+02  0.91500324739E+01  0.18726449316E+02  0.00000000000E+00 0. -1.
         11    1    3    3    0    0 -0.42195684609E+01  0.34375987544E+01  0.34566576115E+01  0.64475053546E+01  0.51100000000E-03 0. -1.
        -11    1    3    3    0    0 -0.92559753714E+01  0.13153978772E+02 -0.25325322380E+02  0.30001203168E+02  0.51100000000E-03 0.  1.
         12    1    3    3    0    0  0.92915917603E+01 -0.32385606613E+02  0.12718632294E+02  0.36012842162E+02  0.00000000000E+00 0. -1.
</event>
<event>
 7    1  0.2941727E-013  0.7246148E+02  0.7816164E-02  0.1226708E+00
        -11   -1    0    0    0    0  0.00000000000E+00  0.00000000000E+00  0.45593999997E+02  0.45594000000E+02  0.51100000000E-03 0. -1.
         11   -1    0    0    0    0 -0.00000000000E+00 -0.00000000000E+00 -0.45593999997E+02  0.45594000000E+02  0.51100000000E-03 0.  1.
    9900012    2    1    2    0    0  0.17891255385E+02 -0.43628123999E+01 -0.33987180753E+01  0.72461483083E+02  0.69999886391E+02 0.  0.
         12    1    1    2    0    0 -0.17891255385E+02  0.43628123999E+01  0.33987180753E+01  0.18726516917E+02  0.00000000000E+00 0. -1.
         11    1    3    3    0    0 -0.70871003433E+01 -0.12345069161E+02  0.14317060571E+01  0.14306554664E+02  0.51100000000E-03 0. -1.
        -11    1    3    3    0    0  0.13709577274E+02  0.27421042064E+02  0.87743756340E+01  0.31888175316E+02  0.51100000000E-03 0.  1.
         12    1    3    3    0    0  0.11268778454E+02 -0.19438785304E+02 -0.13604799766E+02  0.26266753104E+02  0.00000000000E+00 0. -1.
</event>
<event>
 7    1  0.2941727E-013  0.7246153E+02  0.7816164E-02  0.1226708E+00
        -11   -1    0    0    0    0  0.00000000000E+00  0.00000000000E+00  0.45593999997E+02  0.45594000000E+02  0.51100000000E-03 0. -1.
         11   -1    0    0    0    0 -0.00000000000E+00 -0.00000000000E+00 -0.45593999997E+02  0.45594000000E+02  0.51100000000E-03 0.  1.
    9900012    2    1    2    0    0 -0.16595228726E+02 -0.58070600132E+00 -0.86568970242E+01  0.72461529377E+02  0.69999946697E+02 0.  0.
         12    1    1    2    0    0  0.16595228726E+02  0.58070600132E+00  0.86568970242E+01  0.18726470623E+02  0.00000000000E+00 0. -1.
         11    1    3    3    0    0 -0.51825032139E+01  0.46424249702E+01 -0.14515674612E+02  0.16097057460E+02  0.51100000000E-03 0. -1.
        -11    1    3    3    0    0 -0.15823586984E+02  0.19255824520E+02 -0.10012161901E+02  0.26859189659E+02  0.51100000000E-03 0.  1.
         12    1    3    3    0    0  0.44108614723E+01 -0.24478955491E+02  0.15870939488E+02  0.29505282258E+02  0.00000000000E+00 0. -1.
</event>
<event>
 7    1  0.2941727E-013  0.7246157E+02  0.7816164E-02  0.1226708E+00
        -11   -1    0    0    0    0  0.00000000000E+00  0.00000000000E+00  0.45593999997E+02  0.45594000000E+02  0.51100000000E-03 0. -1.
         11   -1    0    0    0    0 -0.00000000000E+00 -0.00000000000E+00 -0.45593999997E+02  0.45594000000E+02  0.51100000000E-03 0.  1.
    9900012    2    1    2    0    0  0.10829221338E+02  0.13435090202E+02 -0.72736221442E+01  0.72461567809E+02  0.69999996762E+02 0.  0.
         12    1    1    2    0    0 -0.10829221338E+02 -0.13435090202E+02  0.72736221442E+01  0.18726432191E+02  0.00000000000E+00 0. -1.
         11    1    3    3    0    0 -0.25036381946E+01 -0.16247755890E+02  0.20525104464E+01  0.16567153499E+02  0.51100000000E-03 0. -1.
        -11    1    3    3    0    0 -0.15731803837E+02  0.16161375404E+02 -0.75698177263E+01  0.23790373002E+02  0.51100000000E-03 0.  1.
        -12    1    3    3    0    0  0.29064663370E+02  0.13521470688E+02 -0.17563148643E+01  0.32104041307E+02  0.00000000000E+00 0.  1.
</event>
<event>
 7    1  0.2941727E-013  0.7246158E+02  0.7816164E-02  0.1226708E+00
        -11   -1    0    0    0    0  0.00000000000E+00  0.00000000000E+00  0.45593999997E+02  0.45594000000E+02  0.51100000000E-03 0. -1.
         11   -1    0    0    0    0 -0.00000000000E+00 -0.00000000000E+00 -0.45593999997E+02  0.45594000000E+02  0.51100000000E-03 0.  1.
    9900012    2    1    2    0    0 -0.45534300431E+01  0.16915606966E+02 -0.66187027579E+01  0.72461582553E+02  0.70000015969E+02 0.  0.
         12    1    1    2    0    0  0.45534300431E+01 -0.16915606966E+02  0.66187027579E+01  0.18726417447E+02  0.00000000000E+00 0. -1.
         11    1    3    3    0    0  0.42544924569E+01  0.81754856453E+00 -0.14126015554E+02  0.14775432562E+02  0.51100000000E-03 0. -1.
        -11    1    3    3    0    0  0.15191610381E+02  0.26625450727E+02  0.94025928451E+00  0.30668937709E+02  0.51100000000E-03 0.  1.
        -12    1    3    3    0    0 -0.23999532881E+02 -0.10527392325E+02  0.65670535113E+01  0.27017212282E+02  0.00000000000E+00 0.  1.
</event>
<event>
 7    1  0.2941727E-013  0.7246160E+02  0.7816164E-02  0.1226708E+00
        -11   -1    0    0    0    0  0.00000000000E+00  0.00000000000E+00  0.45593999997E+02  0.45594000000E+02  0.51100000000E-03 0.  1.
         11   -1    0    0    0    0 -0.00000000000E+00 -0.00000000000E+00 -0.45593999997E+02  0.45594000000E+02  0.51100000000E-03 0. -1.
    9900012    2    1    2    0    0  0.14835694226E+02 -0.11057223323E+02  0.28840760979E+01  0.72461604038E+02  0.70000043958E+02 0.  0.
         12    1    1    2    0    0 -0.14835694226E+02  0.11057223323E+02 -0.28840760979E+01  0.18726395962E+02  0.00000000000E+00 0. -1.
         11    1    3    3    0    0  0.45404726982E+01  0.63254690521E+01  0.43286939605E+00  0.77983861938E+01  0.51100000000E-03 0. -1.
        -11    1    3    3    0    0  0.35559651328E+02 -0.15984217496E+02  0.46571103697E+01  0.39264139985E+02  0.51100000000E-03 0.  1.
         12    1    3    3    0    0 -0.25264429800E+02 -0.13984748796E+01 -0.22059036679E+01  0.25399077860E+02  0.00000000000E+00 0. -1.
</event>
<event>
 7    1  0.2941727E-013  0.7246164E+02  0.7816164E-02  0.1226708E+00
        -11   -1    0    0    0    0  0.00000000000E+00  0.00000000000E+00  0.45593999997E+02  0.45594000000E+02  0.51100000000E-03 0.  1.
         11   -1    0    0    0    0 -0.00000000000E+00 -0.00000000000E+00 -0.45593999997E+02  0.45594000000E+02  0.51100000000E-03 0. -1.
    9900012    2    1    2    0    0 -0.14218596126E+02  0.92264024719E+01  0.79612488240E+01  0.72461642607E+02  0.70000094201E+02 0.  0.
         12    1    1    2    0    0  0.14218596126E+02 -0.92264024719E+01 -0.79612488240E+01  0.18726357393E+02  0.00000000000E+00 0. -1.
         11    1    3    3    0    0 -0.30000845343E+01 -0.10979479700E+02 -0.68455940867E-01  0.11382186441E+02  0.51100000000E-03 0. -1.
        -11    1    3    3    0    0  0.33831057078E+01 -0.18558577682E+02 -0.10624854708E+00  0.18864715710E+02  0.51100000000E-03 0.  1.
         12    1    3    3    0    0 -0.14601617300E+02  0.38764459854E+02  0.81359533120E+01  0.42214740456E+02  0.00000000000E+00 0. -1.
</event>
<event>
 7    1  0.2941727E-013  0.7246140E+02  0.7816164E-02  0.1226708E+00
        -11   -1    0    0    0    0  0.00000000000E+00  0.00000000000E+00  0.45593999997E+02  0.45594000000E+02  0.51100000000E-03 0.  1.
         11   -1    0    0    0    0 -0.00000000000E+00 -0.00000000000E+00 -0.45593999997E+02  0.45594000000E+02  0.51100000000E-03 0. -1.
    9900012    2    1    2    0    0  0.54358141735E+01 -0.15514441614E+02  0.89688188183E+01  0.72461396322E+02  0.69999773368E+02 0.  0.
         12    1    1    2    0    0 -0.54358141735E+01  0.15514441614E+02 -0.89688188183E+01  0.18726603678E+02  0.00000000000E+00 0. -1.
         11    1    3    3    0    0 -0.16992671852E+02 -0.33227610149E+01  0.29497500629E+01  0.17563959210E+02  0.51100000000E-03 0. -1.
        -11    1    3    3    0    0 -0.14628459252E+02 -0.71107115768E+01 -0.27084139428E+01  0.16489073520E+02  0.51100000000E-03 0.  1.
         12    1    3    3    0    0  0.37056945278E+02 -0.50809690226E+01  0.87274826982E+01  0.38408363591E+02  0.00000000000E+00 0. -1.
</event>
<event>
 7    1  0.2941727E-013  0.7246160E+02  0.7816164E-02  0.1226708E+00
        -11   -1    0    0    0    0  0.00000000000E+00  0.00000000000E+00  0.45593999997E+02  0.45594000000E+02  0.51100000000E-03 0.  1.
         11   -1    0    0    0    0 -0.00000000000E+00 -0.00000000000E+00 -0.45593999997E+02  0.45594000000E+02  0.51100000000E-03 0. -1.
    9900012    2    1    2    0    0  0.66911839158E+01  0.14647936048E+02  0.95574156791E+01  0.72461597059E+02  0.70000034866E+02 0.  0.
         12    1    1    2    0    0 -0.66911839158E+01 -0.14647936048E+02 -0.95574156791E+01  0.18726402941E+02  0.00000000000E+00 0. -1.
         11    1    3    3    0    0  0.20438074510E+02  0.36577402761E+02  0.64912350637E+00  0.41905162499E+02  0.51100000000E-03 0. -1.
        -11    1    3    3    0    0 -0.57038002199E+01 -0.45021571600E+00  0.43124961762E+01  0.71647508450E+01  0.51100000000E-03 0.  1.
        -12    1    3    3    0    0 -0.80430903747E+01 -0.21479250998E+02  0.45957959965E+01  0.23391683715E+02  0.00000000000E+00 0.  1.
</event>
<event>
 7    1  0.3604457E-013  0.7246158E+02  0.7816164E-02  0.1226708E+00
        -11   -1    0    0    0    0  0.00000000000E+00  0.00000000000E+00  0.45593999997E+02  0.45594000000E+02  0.51100000000E-03 0. -1.
         11   -1    0    0    0    0 -0.00000000000E+00 -0.00000000000E+00 -0.45593999997E+02  0.45594000000E+02  0.51100000000E-03 0.  1.
    9900012    2    1    2    0    0 -0.76500971236E+01  0.18687320021E+01 -0.16990075696E+02  0.72461579695E+02  0.70000012246E+02 0.  0.
         12    1    1    2    0    0  0.76500971236E+01 -0.18687320021E+01  0.16990075696E+02  0.18726420305E+02  0.00000000000E+00 0. -1.
         11    1    3    3    0    0 -0.19799354803E+02  0.19048975940E+02  0.46766967521E+01  0.27870224752E+02  0.51100000000E-03 0. -1.
        -11    1    3    3    0    0 -0.11281661842E+02 -0.53381714026E+01 -0.47208953670E+01  0.13343868298E+02  0.51100000000E-03 0.  1.
        -12    1    3    3    0    0  0.23430919521E+02 -0.11842072536E+02 -0.16945877081E+02  0.31247486644E+02  0.00000000000E+00 0.  1.
</event>
<event>
 7    1  0.2941727E-013  0.7246165E+02  0.7816164E-02  0.1226708E+00
        -11   -1    0    0    0    0  0.00000000000E+00  0.00000000000E+00  0.45593999997E+02  0.45594000000E+02  0.51100000000E-03 0. -1.
         11   -1    0    0    0    0 -0.00000000000E+00 -0.00000000000E+00 -0.45593999997E+02  0.45594000000E+02  0.51100000000E-03 0.  1.
    9900012    2    1    2    0    0  0.13589443869E+02 -0.56686156730E+01 -0.11570220376E+02  0.72461649905E+02  0.70000103708E+02 0.  0.
         12    1    1    2    0    0 -0.13589443869E+02  0.56686156730E+01  0.11570220376E+02  0.18726350095E+02  0.00000000000E+00 0. -1.
         11    1    3    3    0    0  0.15586686302E+02  0.16570983831E+02 -0.53244469789E+01  0.23364332452E+02  0.51100000000E-03 0. -1.
        -11    1    3    3    0    0 -0.22608304079E+01 -0.24535455767E+02 -0.22086159421E+02  0.33089248738E+02  0.51100000000E-03 0.  1.
         12    1    3    3    0    0  0.26358797530E+00  0.22958562624E+01  0.15840386024E+02  0.16008068716E+02  0.00000000000E+00 0. -1.
</event>
<event>
 7    1  0.2941727E-013  0.7246157E+02  0.7816164E-02  0.1226708E+00
        -11   -1    0    0    0    0  0.00000000000E+00  0.00000000000E+00  0.45593999997E+02  0.45594000000E+02  0.51100000000E-03 0. -1.
         11   -1    0    0    0    0 -0.00000000000E+00 -0.00000000000E+00 -0.45593999997E+02  0.45594000000E+02  0.51100000000E-03 0.  1.
    9900012    2    1    2    0    0 -0.41579053975E+00 -0.13824508511E+02  0.12624948177E+02  0.72461568577E+02  0.69999997763E+02 0.  0.
         12    1    1    2    0    0  0.41579053975E+00  0.13824508511E+02 -0.12624948177E+02  0.18726431423E+02  0.00000000000E+00 0. -1.
         11    1    3    3    0    0  0.30624816842E+02 -0.42214553490E+01  0.12979961114E+02  0.33528785881E+02  0.51100000000E-03 0. -1.
        -11    1    3    3    0    0 -0.11127201114E+02  0.63487090506E+01 -0.33530617726E+01  0.13242497301E+02  0.51100000000E-03 0.  1.
        -12    1    3    3    0    0 -0.19913406268E+02 -0.15951762213E+02  0.29980488362E+01  0.25690285395E+02  0.00000000000E+00 0.  1.
</event>
<event>
 7    1  0.2941727E-013  0.7246156E+02  0.7816164E-02  0.1226708E+00
        -11   -1    0    0    0    0  0.00000000000E+00  0.00000000000E+00  0.45593999997E+02  0.45594000000E+02  0.51100000000E-03 0.  1.
         11   -1    0    0    0    0 -0.00000000000E+00 -0.00000000000E+00 -0.45593999997E+02  0.45594000000E+02  0.51100000000E-03 0. -1.
    9900012    2    1    2    0    0  0.16141630550E+02  0.45219386503E+01  0.83474116738E+01  0.72461562869E+02  0.69999990328E+02 0.  0.
         12    1    1    2    0    0 -0.16141630550E+02 -0.45219386503E+01 -0.83474116738E+01  0.18726437131E+02  0.00000000000E+00 0. -1.
         11    1    3    3    0    0  0.17310377645E+02  0.28658896039E+02  0.33330604684E+01  0.33646556863E+02  0.51100000000E-03 0. -1.
        -11    1    3    3    0    0  0.13168191279E+02 -0.43629358538E+01 -0.43617694688E-01  0.13872215886E+02  0.51100000000E-03 0.  1.
        -12    1    3    3    0    0 -0.14336938374E+02 -0.19774021535E+02  0.50579689001E+01  0.24942790121E+02  0.00000000000E+00 0.  1.
</event>
<event>
 7    1  0.2941727E-013  0.7246166E+02  0.7816164E-02  0.1226708E+00
        -11   -1    0    0    0    0  0.00000000000E+00  0.00000000000E+00  0.45593999997E+02  0.45594000000E+02  0.51100000000E-03 0.  1.
         11   -1    0    0    0    0 -0.00000000000E+00 -0.00000000000E+00 -0.45593999997E+02  0.45594000000E+02  0.51100000000E-03 0. -1.
    9900012    2    1    2    0    0 -0.60533518361E+01  0.17717460055E+02  0.35285839735E+00  0.72461655768E+02  0.70000111345E+02 0.  0.
         12    1    1    2    0    0  0.60533518361E+01 -0.17717460055E+02 -0.35285839735E+00  0.18726344232E+02  0.00000000000E+00 0. -1.
         11    1    3    3    0    0  0.14985556370E+01  0.12183383287E+02  0.12189876503E+02  0.17299525622E+02  0.51100000000E-03 0. -1.
        -11    1    3    3    0    0 -0.10606319345E+02 -0.25642382264E+01  0.19666712544E+02  0.22491085129E+02  0.51100000000E-03 0.  1.
         12    1    3    3    0    0  0.30544118722E+01  0.80983149943E+01 -0.31503730650E+02  0.32671045017E+02  0.00000000000E+00 0. -1.
</event>
<event>
 7    1  0.2941727E-013  0.7246163E+02  0.7816164E-02  0.1226708E+00
        -11   -1    0    0    0    0  0.00000000000E+00  0.00000000000E+00  0.45593999997E+02  0.45594000000E+02  0.51100000000E-03 0. -1.
         11   -1    0    0    0    0 -0.00000000000E+00 -0.00000000000E+00 -0.45593999997E+02  0.45594000000E+02  0.51100000000E-03 0.  1.
    9900012    2    1    2    0    0 -0.16316398960E+02  0.14539179331E+01  0.90740302868E+01  0.72461634148E+02  0.70000083181E+02 0.  0.
         12    1    1    2    0    0  0.16316398960E+02 -0.14539179331E+01 -0.90740302868E+01  0.18726365852E+02  0.00000000000E+00 0. -1.
         11    1    3    3    0    0  0.52189413292E+01 -0.13739096495E+02  0.85059268306E+01  0.16980898463E+02  0.51100000000E-03 0. -1.
        -11    1    3    3    0    0 -0.14652452303E+02 -0.15583296126E+02  0.84097678554E+01  0.22983856776E+02  0.51100000000E-03 0.  1.
        -12    1    3    3    0    0 -0.68828879857E+01  0.30776310554E+02 -0.78416643993E+01  0.32496878910E+02  0.00000000000E+00 0.  1.
</event>
<event>
 7    1  0.2941727E-013  0.7246165E+02  0.7816164E-02  0.1226708E+00
        -11   -1    0    0    0    0  0.00000000000E+00  0.00000000000E+00  0.45593999997E+02  0.45594000000E+02  0.51100000000E-03 0.  1.
         11   -1    0    0    0    0 -0.00000000000E+00 -0.00000000000E+00 -0.45593999997E+02  0.45594000000E+02  0.51100000000E-03 0. -1.
    9900012    2    1    2    0    0  0.17948559480E+02 -0.31845083716E+01 -0.42876740471E+01  0.72461654128E+02  0.70000109209E+02 0.  0.
         12    1    1    2    0    0 -0.17948559480E+02  0.31845083716E+01  0.42876740471E+01  0.18726345872E+02  0.00000000000E+00 0. -1.
         11    1    3    3    0    0  0.15281523902E+02 -0.80529018016E+01 -0.37009603536E+01  0.17665540128E+02  0.51100000000E-03 0. -1.
        -11    1    3    3    0    0  0.22010420380E+02  0.37036157955E+01  0.17443093887E+02  0.28327317202E+02  0.51100000000E-03 0.  1.
         12    1    3    3    0    0 -0.19343384802E+02  0.11647776344E+01 -0.18029807580E+02  0.26468796798E+02  0.00000000000E+00 0. -1.
</event>
<event>
 7    1  0.2941727E-013  0.7246156E+02  0.7816164E-02  0.1226708E+00
        -11   -1    0    0    0    0  0.00000000000E+00  0.00000000000E+00  0.45593999997E+02  0.45594000000E+02  0.51100000000E-03 0.  1.
         11   -1    0    0    0    0 -0.00000000000E+00 -0.00000000000E+00 -0.45593999997E+02  0.45594000000E+02  0.51100000000E-03 0. -1.
    9900012    2    1    2    0    0  0.15892407318E+02  0.62757619250E+01  0.76632725183E+01  0.72461560301E+02  0.69999986982E+02 0.  0.
         12    1    1    2    0    0 -0.15892407318E+02 -0.62757619250E+01 -0.76632725183E+01  0.18726439699E+02  0.00000000000E+00 0. -1.
         11    1    3    3    0    0  0.36454278129E+00 -0.73593196627E+01  0.26052088255E+02  0.27074042551E+02  0.51100000000E-03 0. -1.
        -11    1    3    3    0    0  0.18697163285E+02  0.83084124633E+01  0.51070906829E+01  0.21087816579E+02  0.51100000000E-03 0.  1.
         12    1    3    3    0    0 -0.31692987488E+01  0.53266691244E+01 -0.23495906420E+02  0.24299701171E+02  0.00000000000E+00 0. -1.
</event>
<event>
 7    1  0.2941727E-013  0.7246154E+02  0.7816164E-02  0.1226708E+00
        -11   -1    0    0    0    0  0.00000000000E+00  0.00000000000E+00  0.45593999997E+02  0.45594000000E+02  0.51100000000E-03 0. -1.
         11   -1    0    0    0    0 -0.00000000000E+00 -0.00000000000E+00 -0.45593999997E+02  0.45594000000E+02  0.51100000000E-03 0.  1.
    9900012    2    1    2    0    0 -0.53423445918E+01  0.20155592170E+01 -0.17834720278E+02  0.72461538185E+02  0.69999958172E+02 0.  0.
         12    1    1    2    0    0  0.53423445918E+01 -0.20155592170E+01  0.17834720278E+02  0.18726461815E+02  0.00000000000E+00 0. -1.
         11    1    3    3    0    0  0.15959366462E+02 -0.61001441485E+01 -0.13535640942E+02  0.21797401508E+02  0.51100000000E-03 0. -1.
        -11    1    3    3    0    0  0.10315373057E+02 -0.10862663537E+01 -0.12975046117E+02  0.16611403249E+02  0.51100000000E-03 0.  1.
        -12    1    3    3    0    0 -0.31617084111E+02  0.92019697192E+01  0.86759667807E+01  0.34052733429E+02  0.00000000000E+00 0.  1.
</event>
<event>
 7    1  0.2941727E-013  0.7246184E+02  0.7816164E-02  0.1226707E+00
        -11   -1    0    0    0    0  0.00000000000E+00  0.00000000000E+00  0.45593999997E+02  0.45594000000E+02  0.51100000000E-03 0.  1.
         11   -1    0    0    0    0 -0.00000000000E+00 -0.00000000000E+00 -0.45593999997E+02  0.45594000000E+02  0.51100000000E-03 0. -1.
    9900012    2    1    2    0    0  0.30031810272E+01  0.84233386204E+01  0.16452879087E+02  0.72461842892E+02  0.70000355108E+02 0.  0.
         12    1    1    2    0    0 -0.30031810272E+01 -0.84233386204E+01 -0.16452879087E+02  0.18726157108E+02  0.00000000000E+00 0. -1.
         11    1    3    3    0    0  0.15139726824E+01 -0.11210061032E+02  0.27060729154E+02  0.29329859261E+02  0.51100000000E-03 0. -1.
        -11    1    3    3    0    0 -0.52717914793E+01 -0.62584410767E+01 -0.13941054514E+02  0.16165174646E+02  0.51100000000E-03 0.  1.
        -12    1    3    3    0    0  0.67609998241E+01  0.25891840729E+02  0.33332044463E+01  0.26966808985E+02  0.00000000000E+00 0.  1.
</event>
<event>
 7    1  0.2941727E-013  0.7246159E+02  0.7816164E-02  0.1226708E+00
        -11   -1    0    0    0    0  0.00000000000E+00  0.00000000000E+00  0.45593999997E+02  0.45594000000E+02  0.51100000000E-03 0.  1.
         11   -1    0    0    0    0 -0.00000000000E+00 -0.00000000000E+00 -0.45593999997E+02  0.45594000000E+02  0.51100000000E-03 0. -1.
    9900012    2    1    2    0    0  0.12475443024E+01  0.15560130051E+02  0.10344295977E+02  0.72461588885E+02  0.70000024218E+02 0.  0.
         12    1    1    2    0    0 -0.12475443024E+01 -0.15560130051E+02 -0.10344295977E+02  0.18726411115E+02  0.00000000000E+00 0. -1.
         11    1    3    3    0    0  0.14100630661E+02  0.30838472950E+02  0.60920102931E+01  0.34452166675E+02  0.51100000000E-03 0. -1.
        -11    1    3    3    0    0  0.36417522222E+01  0.79647071608E+01 -0.16282796400E+01  0.89078737223E+01  0.51100000000E-03 0.  1.
        -12    1    3    3    0    0 -0.16494838581E+02 -0.23243050059E+02  0.58805653234E+01  0.29101548488E+02  0.00000000000E+00 0.  1.
</event>
<event>
 7    1  0.2941727E-013  0.7246159E+02  0.7816164E-02  0.1226708E+00
        -11   -1    0    0    0    0  0.00000000000E+00  0.00000000000E+00  0.45593999997E+02  0.45594000000E+02  0.51100000000E-03 0. -1.
         11   -1    0    0    0    0 -0.00000000000E+00 -0.00000000000E+00 -0.45593999997E+02  0.45594000000E+02  0.51100000000E-03 0.  1.
    9900012    2    1    2    0    0 -0.80346231102E+01  0.10593002618E+02 -0.13187549629E+02  0.72461592491E+02  0.70000028915E+02 0.  0.
         12    1    1    2    0    0  0.80346231102E+01 -0.10593002618E+02  0.13187549629E+02  0.18726407509E+02  0.00000000000E+00 0. -1.
         11    1    3    3    0    0 -0.29409754710E+02 -0.58495005939E+01 -0.89419351100E+01  0.31290710012E+02  0.51100000000E-03 0. -1.
        -11    1    3    3    0    0  0.11513116497E+02 -0.34725233782E+01 -0.12610931785E+02  0.17425437464E+02  0.51100000000E-03 0.  1.
        -12    1    3    3    0    0  0.98620151034E+01  0.19915026590E+02  0.83653172657E+01  0.23745445014E+02  0.00000000000E+00 0.  1.
</event>
<event>
 7    1  0.2941727E-013  0.7246157E+02  0.7816164E-02  0.1226708E+00
        -11   -1    0    0    0    0  0.00000000000E+00  0.00000000000E+00  0.45593999997E+02  0.45594000000E+02  0.51100000000E-03 0. -1.
         11   -1    0    0    0    0 -0.00000000000E+00 -0.00000000000E+00 -0.45593999997E+02  0.45594000000E+02  0.51100000000E-03 0.  1.
    9900012    2    1    2    0    0 -0.15177394344E+02  0.10708573777E+02 -0.23774412541E+01  0.72461572730E+02  0.70000003172E+02 0.  0.
         12    1    1    2    0    0  0.15177394344E+02 -0.10708573777E+02  0.23774412541E+01  0.18726427270E+02  0.00000000000E+00 0. -1.
         11    1    3    3    0    0 -0.34478868494E+02  0.17617247769E+02 -0.55114810481E+01  0.39109285537E+02  0.51100000000E-03 0. -1.
        -11    1    3    3    0    0  0.80520483672E+01  0.98763316865E+01 -0.79591156140E+00  0.12767571655E+02  0.51100000000E-03 0.  1.
        -12    1    3    3    0    0  0.11249425784E+02 -0.16785005679E+02  0.39299513555E+01  0.20584715537E+02  0.00000000000E+00 0.  1.
</event>
<event>
 7    1  0.2941727E-013  0.7246099E+02  0.7816164E-02  0.1226710E+00
        -11   -1    0    0    0    0  0.00000000000E+00  0.00000000000E+00  0.45593999997E+02  0.45594000000E+02  0.51100000000E-03 0. -1.
         11   -1    0    0    0    0 -0.00000000000E+00 -0.00000000000E+00 -0.45593999997E+02  0.45594000000E+02  0.51100000000E-03 0.  1.
    9900012    2    1    2    0    0 -0.31820046087E+01  0.11370265367E+02 -0.14535910864E+02  0.72460992965E+02  0.69999247917E+02 0.  0.
         12    1    1    2    0    0  0.31820046087E+01 -0.11370265367E+02  0.14535910864E+02  0.18727007035E+02  0.00000000000E+00 0. -1.
         11    1    3    3    0    0  0.50432621840E+01 -0.33841293103E+01  0.12665420830E+02  0.14046341506E+02  0.51100000000E-03 0. -1.
        -11    1    3    3    0    0 -0.17803066624E+02 -0.11706348771E+02 -0.34379835904E+01  0.21582574318E+02  0.51100000000E-03 0.  1.
        -12    1    3    3    0    0  0.95777998308E+01  0.26460743449E+02 -0.23763348103E+02  0.36832077141E+02  0.00000000000E+00 0.  1.
</event>
<event>
 7    1  0.2941727E-013  0.7246156E+02  0.7816164E-02  0.1226708E+00
        -11   -1    0    0    0    0  0.00000000000E+00  0.00000000000E+00  0.45593999997E+02  0.45594000000E+02  0.51100000000E-03 0.  1.
         11   -1    0    0    0    0 -0.00000000000E+00 -0.00000000000E+00 -0.45593999997E+02  0.45594000000E+02  0.51100000000E-03 0. -1.
    9900012    2    1    2    0    0  0.13601636800E+00 -0.43034335575E+01  0.18224745493E+02  0.72461564431E+02  0.69999992362E+02 0.  0.
         12    1    1    2    0    0 -0.13601636800E+00  0.43034335575E+01 -0.18224745493E+02  0.18726435569E+02  0.00000000000E+00 0. -1.
         11    1    3    3    0    0  0.25305734479E+01 -0.11410510373E+02 -0.15340843069E+02  0.19285876056E+02  0.51100000000E-03 0. -1.
        -11    1    3    3    0    0 -0.10380113621E+02 -0.14193516409E+02  0.92147668096E+01  0.19852319623E+02  0.51100000000E-03 0.  1.
         12    1    3    3    0    0  0.79855565406E+01  0.21300593224E+02  0.24350821752E+02  0.33323368751E+02  0.00000000000E+00 0. -1.
</event>
<event>
 7    1  0.2941727E-013  0.7246157E+02  0.7816164E-02  0.1226708E+00
        -11   -1    0    0    0    0  0.00000000000E+00  0.00000000000E+00  0.45593999997E+02  0.45594000000E+02  0.51100000000E-03 0. -1.
         11   -1    0    0    0    0 -0.00000000000E+00 -0.00000000000E+00 -0.45593999997E+02  0.45594000000E+02  0.51100000000E-03 0.  1.
    9900012    2    1    2    0    0  0.41758712067E+01  0.66522510458E+00 -0.18242770916E+02  0.72461571737E+02  0.70000001880E+02 0.  0.
         12    1    1    2    0    0 -0.41758712067E+01 -0.66522510458E+00  0.18242770916E+02  0.18726428263E+02  0.00000000000E+00 0. -1.
         11    1    3    3    0    0 -0.20345134608E+02  0.10935053475E+02 -0.22382592660E+02  0.32163338619E+02  0.51100000000E-03 0. -1.
        -11    1    3    3    0    0 -0.39910593061E+01  0.56247699684E+01 -0.17794947943E+01  0.71227237463E+01  0.51100000000E-03 0.  1.
        -12    1    3    3    0    0  0.28512065121E+02 -0.15894598339E+02  0.59193165376E+01  0.33175509372E+02  0.00000000000E+00 0.  1.
</event>
<event>
 7    1  0.2941727E-013  0.7246158E+02  0.7816164E-02  0.1226708E+00
        -11   -1    0    0    0    0  0.00000000000E+00  0.00000000000E+00  0.45593999997E+02  0.45594000000E+02  0.51100000000E-03 0. -1.
         11   -1    0    0    0    0 -0.00000000000E+00 -0.00000000000E+00 -0.45593999997E+02  0.45594000000E+02  0.51100000000E-03 0.  1.
    9900012    2    1    2    0    0 -0.18398785978E+02 -0.16288953096E+01 -0.30838482293E+01  0.72461581621E+02  0.70000014755E+02 0.  0.
         12    1    1    2    0    0  0.18398785978E+02  0.16288953096E+01  0.30838482293E+01  0.18726418379E+02  0.00000000000E+00 0. -1.
         11    1    3    3    0    0  0.60115331088E+01  0.67427100176E+01 -0.10179443970E+02  0.13609693181E+02  0.51100000000E-03 0. -1.
        -11    1    3    3    0    0 -0.37272953358E+02 -0.11157821113E+01  0.17090499125E+02  0.41019546345E+02  0.51100000000E-03 0.  1.
         12    1    3    3    0    0  0.12862634271E+02 -0.72558232159E+01 -0.99949033847E+01  0.17832342095E+02  0.00000000000E+00 0. -1.
</event>
<event>
 7    1  0.2941727E-013  0.7246153E+02  0.7816164E-02  0.1226708E+00
        -11   -1    0    0    0    0  0.00000000000E+00  0.00000000000E+00  0.45593999997E+02  0.45594000000E+02  0.51100000000E-03 0. -1.
         11   -1    0    0    0    0 -0.00000000000E+00 -0.00000000000E+00 -0.45593999997E+02  0.45594000000E+02  0.51100000000E-03 0.  1.
    9900012    2    1    2    0    0  0.94968606084E+00  0.16098968750E+02 -0.95185083368E+01  0.72461529447E+02  0.69999946788E+02 0.  0.
         12    1    1    2    0    0 -0.94968606084E+00 -0.16098968750E+02  0.95185083368E+01  0.18726470553E+02  0.00000000000E+00 0. -1.
         11    1    3    3    0    0 -0.51128321764E+01  0.31872853542E+01  0.36202191463E+01  0.70289279212E+01  0.51100000000E-03 0. -1.
        -11    1    3    3    0    0 -0.11318358947E+02  0.10026698931E+02 -0.34544260267E+02  0.37708697384E+02  0.51100000000E-03 0.  1.
         12    1    3    3    0    0  0.17380877184E+02  0.28849844650E+01  0.21405532784E+02  0.27723904141E+02  0.00000000000E+00 0. -1.
</event>
<event>
 7    1  0.2941727E-013  0.7246157E+02  0.7816164E-02  0.1226708E+00
        -11   -1    0    0    0    0  0.00000000000E+00  0.00000000000E+00  0.45593999997E+02  0.45594000000E+02  0.51100000000E-03 0.  1.
         11   -1    0    0    0    0 -0.00000000000E+00 -0.00000000000E+00 -0.45593999997E+02  0.45594000000E+02  0.51100000000E-03 0. -1.
    9900012    2    1    2    0    0  0.42262129421E+01  0.17705864014E+02 -0.43955322806E+01  0.72461569472E+02  0.69999998928E+02 0.  0.
         12    1    1    2    0    0 -0.42262129421E+01 -0.17705864014E+02  0.43955322806E+01  0.18726430528E+02  0.00000000000E+00 0. -1.
         11    1    3    3    0    0 -0.17053888796E+01 -0.11391379094E+02 -0.20520385667E+02  0.23532065295E+02  0.51100000000E-03 0. -1.
        -11    1    3    3    0    0 -0.61871680869E+01 -0.60410766545E+01  0.55870215392E+01  0.10295167120E+02  0.51100000000E-03 0.  1.
        -12    1    3    3    0    0  0.12118769909E+02  0.35138319762E+02  0.10537831847E+02  0.38634337057E+02  0.00000000000E+00 0.  1.
</event>
<event>
 7    1  0.2941727E-013  0.7246160E+02  0.7816164E-02  0.1226708E+00
        -11   -1    0    0    0    0  0.00000000000E+00  0.00000000000E+00  0.45593999997E+02  0.45594000000E+02  0.51100000000E-03 0.  1.
         11   -1    0    0    0    0 -0.00000000000E+00 -0.00000000000E+00 -0.45593999997E+02  0.45594000000E+02  0.51100000000E-03 0. -1.
    9900012    2    1    2    0    0  0.59877132706E+01  0.24242081826E+01  0.17576936150E+02  0.72461596716E+02  0.70000034419E+02 0.  0.
         12    1    1    2    0    0 -0.59877132706E+01 -0.24242081826E+01 -0.17576936150E+02  0.18726403284E+02  0.00000000000E+00 0. -1.
         11    1    3    3    0    0  0.46876668400E+01  0.70168313814E+00  0.42765637772E+01  0.63840095262E+01  0.51100000000E-03 0. -1.
        -11    1    3    3    0    0 -0.96166819782E+01  0.22775276017E+02  0.28639714176E+02  0.37834204078E+02  0.51100000000E-03 0.  1.
         12    1    3    3    0    0  0.10916728409E+02 -0.21052750972E+02 -0.15339341803E+02  0.28243383111E+02  0.00000000000E+00 0. -1.
</event>
<event>
 7    1  0.2941727E-013  0.7246160E+02  0.7816164E-02  0.1226708E+00
        -11   -1    0    0    0    0  0.00000000000E+00  0.00000000000E+00  0.45593999997E+02  0.45594000000E+02  0.51100000000E-03 0.  1.
         11   -1    0    0    0    0 -0.00000000000E+00 -0.00000000000E+00 -0.45593999997E+02  0.45594000000E+02  0.51100000000E-03 0. -1.
    9900012    2    1    2    0    0 -0.38227522215E+01 -0.32194156669E+01  0.18047156974E+02  0.72461602946E+02  0.70000042535E+02 0.  0.
         12    1    1    2    0    0  0.38227522215E+01  0.32194156669E+01 -0.18047156974E+02  0.18726397054E+02  0.00000000000E+00 0. -1.
         11    1    3    3    0    0  0.26693749217E+02 -0.12430245800E+02 -0.38841792422E-01  0.29446031428E+02  0.51100000000E-03 0. -1.
        -11    1    3    3    0    0  0.26892362957E+01  0.35647879705E+01  0.54388874891E+01  0.70371302751E+01  0.51100000000E-03 0.  1.
        -12    1    3    3    0    0 -0.33205737734E+02  0.56460421628E+01  0.12647111277E+02  0.35978441243E+02  0.00000000000E+00 0.  1.
</event>
<event>
 7    1  0.2941727E-013  0.7246160E+02  0.7816164E-02  0.1226708E+00
        -11   -1    0    0    0    0  0.00000000000E+00  0.00000000000E+00  0.45593999997E+02  0.45594000000E+02  0.51100000000E-03 0.  1.
         11   -1    0    0    0    0 -0.00000000000E+00 -0.00000000000E+00 -0.45593999997E+02  0.45594000000E+02  0.51100000000E-03 0. -1.
    9900012    2    1    2    0    0 -0.62807683272E+01 -0.13232510637E+02  0.11667501678E+02  0.72461601950E+02  0.70000041237E+02 0.  0.
         12    1    1    2    0    0  0.62807683272E+01  0.13232510637E+02 -0.11667501678E+02  0.18726398050E+02  0.00000000000E+00 0. -1.
         11    1    3    3    0    0 -0.12798641778E+01 -0.75903520326E+01 -0.12957944624E+02  0.15071822233E+02  0.51100000000E-03 0. -1.
        -11    1    3    3    0    0  0.46327139434E+01  0.20785120095E+02  0.21854584355E+01  0.21406996162E+02  0.51100000000E-03 0.  1.
        -12    1    3    3    0    0 -0.96336180928E+01 -0.26427278699E+02  0.22439987866E+02  0.35982783555E+02  0.00000000000E+00 0.  1.
</event>
<event>
 7    1  0.2941727E-013  0.7246158E+02  0.7816164E-02  0.1226708E+00
        -11   -1    0    0    0    0  0.00000000000E+00  0.00000000000E+00  0.45593999997E+02  0.45594000000E+02  0.51100000000E-03 0.  1.
         11   -1    0    0    0    0 -0.00000000000E+00 -0.00000000000E+00 -0.45593999997E+02  0.45594000000E+02  0.51100000000E-03 0. -1.
    9900012    2    1    2    0    0 -0.15439309693E+02 -0.41079123014E+01  0.97689051875E+01  0.72461581874E+02  0.70000015084E+02 0.  0.
         12    1    1    2    0    0  0.15439309693E+02  0.41079123014E+01 -0.97689051875E+01  0.18726418126E+02  0.00000000000E+00 0. -1.
         11    1    3    3    0    0  0.12574182078E+02  0.59832185407E+01  0.14407770581E+02  0.20037285555E+02  0.51100000000E-03 0. -1.
        -11    1    3    3    0    0  0.70868632431E+01 -0.14785852294E+02  0.15689097619E+01  0.16471385394E+02  0.51100000000E-03 0.  1.
        -12    1    3    3    0    0 -0.35100355014E+02  0.46947214518E+01 -0.62077751549E+01  0.35952910925E+02  0.00000000000E+00 0.  1.
</event>
<event>
 7    1  0.2941727E-013  0.7246156E+02  0.7816164E-02  0.1226708E+00
        -11   -1    0    0    0    0  0.00000000000E+00  0.00000000000E+00  0.45593999997E+02  0.45594000000E+02  0.51100000000E-03 0.  1.
         11   -1    0    0    0    0 -0.00000000000E+00 -0.00000000000E+00 -0.45593999997E+02  0.45594000000E+02  0.51100000000E-03 0. -1.
    9900012    2    1    2    0    0 -0.93557165681E+01 -0.11591170548E+02  0.11348775960E+02  0.72461564595E+02  0.69999992576E+02 0.  0.
         12    1    1    2    0    0  0.93557165681E+01  0.11591170548E+02 -0.11348775960E+02  0.18726435405E+02  0.00000000000E+00 0. -1.
         11    1    3    3    0    0 -0.94661407205E+01 -0.19762124235E+01 -0.43728450581E+01  0.10612964235E+02  0.51100000000E-03 0. -1.
        -11    1    3    3    0    0 -0.17609324235E+02 -0.22806995615E+02  0.24749432570E+02  0.37983967167E+02  0.51100000000E-03 0.  1.
         12    1    3    3    0    0  0.17719748387E+02  0.13192037490E+02 -0.90278115520E+01  0.23864633194E+02  0.00000000000E+00 0. -1.
</event>
<event>
 7    1  0.2941727E-013  0.7246156E+02  0.7816164E-02  0.1226708E+00
        -11   -1    0    0    0    0  0.00000000000E+00  0.00000000000E+00  0.45593999997E+02  0.45594000000E+02  0.51100000000E-03 0.  1.
         11   -1    0    0    0    0 -0.00000000000E+00 -0.00000000000E+00 -0.45593999997E+02  0.45594000000E+02  0.51100000000E-03 0. -1.
    9900012    2    1    2    0    0  0.12336589238E+02  0.12587338074E+02  0.63282862524E+01  0.72461555578E+02  0.69999980829E+02 0.  0.
         12    1    1    2    0    0 -0.12336589238E+02 -0.12587338074E+02 -0.63282862524E+01  0.18726444422E+02  0.00000000000E+00 0. -1.
         11    1    3    3    0    0  0.19190163151E+02  0.85061747358E+01 -0.14976548662E+02  0.25785933772E+02  0.51100000000E-03 0. -1.
        -11    1    3    3    0    0 -0.52611108511E+01 -0.18039573626E+02  0.59863609171E+01  0.19721613049E+02  0.51100000000E-03 0.  1.
        -12    1    3    3    0    0 -0.15924630619E+01  0.22120736964E+02  0.15318473998E+02  0.26954008756E+02  0.00000000000E+00 0.  1.
</event>
<event>
 7    1  0.2941727E-013  0.7246154E+02  0.7816164E-02  0.1226708E+00
        -11   -1    0    0    0    0  0.00000000000E+00  0.00000000000E+00  0.45593999997E+02  0.45594000000E+02  0.51100000000E-03 0. -1.
         11   -1    0    0    0    0 -0.00000000000E+00 -0.00000000000E+00 -0.45593999997E+02  0.45594000000E+02  0.51100000000E-03 0.  1.
    9900012    2    1    2    0    0  0.14429499017E-01  0.13405855940E+02 -0.13075281878E+02  0.72461543371E+02  0.69999964927E+02 0.  0.
         12    1    1    2    0    0 -0.14429499017E-01 -0.13405855940E+02  0.13075281878E+02  0.18726456629E+02  0.00000000000E+00 0. -1.
         11    1    3    3    0    0  0.10348616582E+01 -0.12966299259E+02  0.35303592029E+01  0.13478104151E+02  0.51100000000E-03 0. -1.
        -11    1    3    3    0    0  0.41791824450E+01  0.39756646478E+02 -0.45485039562E+01  0.40233635103E+02  0.51100000000E-03 0.  1.
         12    1    3    3    0    0 -0.51996146041E+01 -0.13384491278E+02 -0.12057137125E+02  0.18749804118E+02  0.00000000000E+00 0. -1.
</event>
<event>
 7    1  0.2941727E-013  0.7246156E+02  0.7816164E-02  0.1226708E+00
        -11   -1    0    0    0    0  0.00000000000E+00  0.00000000000E+00  0.45593999997E+02  0.45594000000E+02  0.51100000000E-03 0. -1.
         11   -1    0    0    0    0 -0.00000000000E+00 -0.00000000000E+00 -0.45593999997E+02  0.45594000000E+02  0.51100000000E-03 0.  1.
    9900012    2    1    2    0    0  0.11156179116E+01  0.96616964087E+00 -0.18668198721E+02  0.72461555314E+02  0.69999980485E+02 0.  0.
         12    1    1    2    0    0 -0.11156179116E+01 -0.96616964087E+00  0.18668198721E+02  0.18726444686E+02  0.00000000000E+00 0. -1.
         11    1    3    3    0    0  0.16009836339E+02 -0.55796592499E+01  0.62764544662E+01  0.18078753770E+02  0.51100000000E-03 0. -1.
        -11    1    3    3    0    0  0.61323208139E+01 -0.17219733906E+01 -0.30465673776E+02  0.31124392842E+02  0.51100000000E-03 0.  1.
        -12    1    3    3    0    0 -0.21026539241E+02  0.82678022813E+01  0.55210205887E+01  0.23258408702E+02  0.00000000000E+00 0.  1.
</event>
<event>
 7    1  0.2941727E-013  0.7246162E+02  0.7816164E-02  0.1226708E+00
        -11   -1    0    0    0    0  0.00000000000E+00  0.00000000000E+00  0.45593999997E+02  0.45594000000E+02  0.51100000000E-03 0. -1.
         11   -1    0    0    0    0 -0.00000000000E+00 -0.00000000000E+00 -0.45593999997E+02  0.45594000000E+02  0.51100000000E-03 0.  1.
    9900012    2    1    2    0    0 -0.13171394652E+01  0.57759647143E+01 -0.17764590747E+02  0.72461619967E+02  0.70000064708E+02 0.  0.
         12    1    1    2    0    0  0.13171394652E+01 -0.57759647143E+01  0.17764590747E+02  0.18726380033E+02  0.00000000000E+00 0. -1.
         11    1    3    3    0    0 -0.62847446609E+00 -0.21435453734E+01  0.28215597489E+01  0.35987451424E+01  0.51100000000E-03 0. -1.
        -11    1    3    3    0    0 -0.29658661409E+02 -0.40638610693E+01 -0.22507911658E+02  0.37453401058E+02  0.51100000000E-03 0.  1.
         12    1    3    3    0    0  0.28969996410E+02  0.11983371157E+02  0.19217611623E+01  0.31409473766E+02  0.00000000000E+00 0. -1.
</event>
<event>
 7    1  0.2941727E-013  0.7246161E+02  0.7816164E-02  0.1226708E+00
        -11   -1    0    0    0    0  0.00000000000E+00  0.00000000000E+00  0.45593999997E+02  0.45594000000E+02  0.51100000000E-03 0.  1.
         11   -1    0    0    0    0 -0.00000000000E+00 -0.00000000000E+00 -0.45593999997E+02  0.45594000000E+02  0.51100000000E-03 0. -1.
    9900012    2    1    2    0    0  0.64672774470E+01  0.16838345334E+02  0.50321183811E+01  0.72461607753E+02  0.70000048797E+02 0.  0.
         12    1    1    2    0    0 -0.64672774470E+01 -0.16838345334E+02 -0.50321183811E+01  0.18726392247E+02  0.00000000000E+00 0. -1.
         11    1    3    3    0    0 -0.47132338671E+01 -0.14891189062E+01 -0.32677562096E+01  0.59253927725E+01  0.51100000000E-03 0. -1.
        -11    1    3    3    0    0 -0.16683514044E+02 -0.60782471147E+01  0.20887411940E+02  0.27414753448E+02  0.51100000000E-03 0.  1.
         12    1    3    3    0    0  0.27864025358E+02  0.24405711355E+02 -0.12587537349E+02  0.39121461532E+02  0.00000000000E+00 0. -1.
</event>
<event>
 7    1  0.2941727E-013  0.7246177E+02  0.7816164E-02  0.1226707E+00
        -11   -1    0    0    0    0  0.00000000000E+00  0.00000000000E+00  0.45593999997E+02  0.45594000000E+02  0.51100000000E-03 0.  1.
         11   -1    0    0    0    0 -0.00000000000E+00 -0.00000000000E+00 -0.45593999997E+02  0.45594000000E+02  0.51100000000E-03 0. -1.
    9900012    2    1    2    0    0  0.11134598293E+02  0.13512669979E+02 -0.66407814302E+01  0.72461774884E+02  0.70000266515E+02 0.  0.
         12    1    1    2    0    0 -0.11134598293E+02 -0.13512669979E+02  0.66407814302E+01  0.18726225116E+02  0.00000000000E+00 0. -1.
         11    1    3    3    0    0 -0.72391801289E+01  0.20067642615E+02 -0.98376966862E+01  0.23492472952E+02  0.51100000000E-03 0. -1.
        -11    1    3    3    0    0  0.74361099945E+01 -0.59223812025E+01 -0.20646133686E+02  0.22729565931E+02  0.51100000000E-03 0.  1.
        -12    1    3    3    0    0  0.10937668427E+02 -0.63259143339E+00  0.23843048942E+02  0.26239736001E+02  0.00000000000E+00 0.  1.
</event>
<event>
 7    1  0.2941727E-013  0.7246153E+02  0.7816164E-02  0.1226708E+00
        -11   -1    0    0    0    0  0.00000000000E+00  0.00000000000E+00  0.45593999997E+02  0.45594000000E+02  0.51100000000E-03 0. -1.
         11   -1    0    0    0    0 -0.00000000000E+00 -0.00000000000E+00 -0.45593999997E+02  0.45594000000E+02  0.51100000000E-03 0.  1.
    9900012    2    1    2    0    0 -0.23420956891E+01  0.14837025171E+02 -0.11182924533E+02  0.72461533989E+02  0.69999952706E+02 0.  0.
         12    1    1    2    0    0  0.23420956891E+01 -0.14837025171E+02  0.11182924533E+02  0.18726466011E+02  0.00000000000E+00 0. -1.
         11    1    3    3    0    0 -0.15949580859E+00 -0.28246608462E+01 -0.56079599874E+01  0.62811912318E+01  0.51100000000E-03 0. -1.
        -11    1    3    3    0    0 -0.31630282026E+02  0.75933293710E+01  0.58064694678E+01  0.33043130601E+02  0.51100000000E-03 0.  1.
         12    1    3    3    0    0  0.29447682145E+02  0.10068356647E+02 -0.11381434013E+02  0.33137212156E+02  0.00000000000E+00 0. -1.
</event>
<event>
 7    1  0.2941727E-013  0.7246158E+02  0.7816164E-02  0.1226708E+00
        -11   -1    0    0    0    0  0.00000000000E+00  0.00000000000E+00  0.45593999997E+02  0.45594000000E+02  0.51100000000E-03 0. -1.
         11   -1    0    0    0    0 -0.00000000000E+00 -0.00000000000E+00 -0.45593999997E+02  0.45594000000E+02  0.51100000000E-03 0.  1.
    9900012    2    1    2    0    0 -0.39482827313E+01  0.11265857509E+02 -0.14428107495E+02  0.72461581019E+02  0.70000013971E+02 0.  0.
         12    1    1    2    0    0  0.39482827313E+01 -0.11265857509E+02  0.14428107495E+02  0.18726418981E+02  0.00000000000E+00 0. -1.
         11    1    3    3    0    0 -0.32958811168E+02  0.18275570940E+01 -0.69331287595E+01  0.33729682377E+02  0.51100000000E-03 0. -1.
        -11    1    3    3    0    0  0.87346406636E+01 -0.26254066667E+01  0.65915856721E+01  0.11253253291E+02  0.51100000000E-03 0.  1.
        -12    1    3    3    0    0  0.20275887773E+02  0.12063707082E+02 -0.14086564408E+02  0.27478645352E+02  0.00000000000E+00 0.  1.
</event>
<event>
 7    1  0.3270230E-013  0.7246157E+02  0.7816164E-02  0.1226708E+00
        -11   -1    0    0    0    0  0.00000000000E+00  0.00000000000E+00  0.45593999997E+02  0.45594000000E+02  0.51100000000E-03 0. -1.
         11   -1    0    0    0    0 -0.00000000000E+00 -0.00000000000E+00 -0.45593999997E+02  0.45594000000E+02  0.51100000000E-03 0.  1.
    9900012    2    1    2    0    0  0.88382104796E+01 -0.59277907691E+01 -0.15408654883E+02  0.72461566458E+02  0.69999995002E+02 0.  0.
         12    1    1    2    0    0 -0.88382104796E+01  0.59277907691E+01  0.15408654883E+02  0.18726433542E+02  0.00000000000E+00 0. -1.
         11    1    3    3    0    0  0.13375590299E+02 -0.10847806664E+02  0.16702785840E+02  0.23990922874E+02  0.51100000000E-03 0. -1.
        -11    1    3    3    0    0 -0.12099885929E+00  0.89778606403E+01  0.54035488115E+01  0.10479263448E+02  0.51100000000E-03 0.  1.
        -12    1    3    3    0    0 -0.44163809606E+01 -0.40578447451E+01 -0.37514989535E+02  0.37991380135E+02  0.00000000000E+00 0.  1.
</event>
<event>
 7    1  0.2941727E-013  0.7246155E+02  0.7816164E-02  0.1226708E+00
        -11   -1    0    0    0    0  0.00000000000E+00  0.00000000000E+00  0.45593999997E+02  0.45594000000E+02  0.51100000000E-03 0.  1.
         11   -1    0    0    0    0 -0.00000000000E+00 -0.00000000000E+00 -0.45593999997E+02  0.45594000000E+02  0.51100000000E-03 0. -1.
    9900012    2    1    2    0    0  0.14202289240E+02 -0.62090118484E+01  0.10508247133E+02  0.72461545301E+02  0.69999967441E+02 0.  0.
         12    1    1    2    0    0 -0.14202289240E+02  0.62090118484E+01 -0.10508247133E+02  0.18726454699E+02  0.00000000000E+00 0. -1.
         11    1    3    3    0    0  0.19970892350E+02 -0.55644136458E+01  0.98366049168E+01  0.22946852443E+02  0.51100000000E-03 0. -1.
        -11    1    3    3    0    0  0.25350013955E+01 -0.63027533938E+01  0.23558925074E+02  0.24518847512E+02  0.51100000000E-03 0.  1.
        -12    1    3    3    0    0 -0.83036045056E+01  0.56581551913E+01 -0.22887282858E+02  0.24995845346E+02  0.00000000000E+00 0.  1.
</event>
<event>
 7    1  0.2941727E-013  0.7246159E+02  0.7816164E-02  0.1226708E+00
        -11   -1    0    0    0    0  0.00000000000E+00  0.00000000000E+00  0.45593999997E+02  0.45594000000E+02  0.51100000000E-03 0.  1.
         11   -1    0    0    0    0 -0.00000000000E+00 -0.00000000000E+00 -0.45593999997E+02  0.45594000000E+02  0.51100000000E-03 0. -1.
    9900012    2    1    2    0    0  0.18576637937E+02 -0.98157280986E+00 -0.21501982807E+01  0.72461593114E+02  0.70000029727E+02 0.  0.
         12    1    1    2    0    0 -0.18576637937E+02  0.98157280986E+00  0.21501982807E+01  0.18726406886E+02  0.00000000000E+00 0. -1.
         11    1    3    3    0    0 -0.17125665781E+02 -0.57905369615E+01  0.92792249847E+01  0.20320501059E+02  0.51100000000E-03 0. -1.
        -11    1    3    3    0    0 -0.72060538603E+01 -0.18773067683E+01 -0.16167186681E+01  0.76200572473E+01  0.51100000000E-03 0.  1.
        -12    1    3    3    0    0  0.42908357577E+02  0.66862709199E+01 -0.98127045973E+01  0.44521034807E+02  0.00000000000E+00 0.  1.
</event>
<event>
 7    1  0.2941727E-013  0.7246158E+02  0.7816164E-02  0.1226708E+00
        -11   -1    0    0    0    0  0.00000000000E+00  0.00000000000E+00  0.45593999997E+02  0.45594000000E+02  0.51100000000E-03 0.  1.
         11   -1    0    0    0    0 -0.00000000000E+00 -0.00000000000E+00 -0.45593999997E+02  0.45594000000E+02  0.51100000000E-03 0. -1.
    9900012    2    1    2    0    0 -0.20447915034E+01 -0.14756927409E+02  0.11345960069E+02  0.72461577791E+02  0.70000009766E+02 0.  0.
         12    1    1    2    0    0  0.20447915034E+01  0.14756927409E+02 -0.11345960069E+02  0.18726422209E+02  0.00000000000E+00 0. -1.
         11    1    3    3    0    0 -0.50400231879E+01  0.33565696875E+01  0.37495724090E+01  0.71223372086E+01  0.51100000000E-03 0. -1.
        -11    1    3    3    0    0 -0.18473482183E+02 -0.27971863358E+02  0.19609876097E+02  0.38836090489E+02  0.51100000000E-03 0.  1.
         12    1    3    3    0    0  0.21468713868E+02  0.98583662612E+01 -0.12013488437E+02  0.26503150094E+02  0.00000000000E+00 0. -1.
</event>
<event>
 7    1  0.2941727E-013  0.7246157E+02  0.7816164E-02  0.1226708E+00
        -11   -1    0    0    0    0  0.00000000000E+00  0.00000000000E+00  0.45593999997E+02  0.45594000000E+02  0.51100000000E-03 0.  1.
         11   -1    0    0    0    0 -0.00000000000E+00 -0.00000000000E+00 -0.45593999997E+02  0.45594000000E+02  0.51100000000E-03 0. -1.
    9900012    2    1    2    0    0 -0.62618916991E+00  0.84242493768E+01  0.16712847532E+02  0.72461565127E+02  0.69999993268E+02 0.  0.
         12    1    1    2    0    0  0.62618916991E+00 -0.84242493768E+01 -0.16712847532E+02  0.18726434873E+02  0.00000000000E+00 0. -1.
         11    1    3    3    0    0  0.22786107235E+02 -0.35620456157E+01  0.14991666113E+02  0.27507179154E+02  0.51100000000E-03 0. -1.
        -11    1    3    3    0    0  0.11786041995E+01  0.43372503723E+01  0.15225763619E+02  0.15875286665E+02  0.51100000000E-03 0.  1.
        -12    1    3    3    0    0 -0.24590900604E+02  0.76490446202E+01 -0.13504582200E+02  0.29079099308E+02  0.00000000000E+00 0.  1.
</event>
<event>
 7    1  0.2941727E-013  0.7246158E+02  0.7816164E-02  0.1226708E+00
        -11   -1    0    0    0    0  0.00000000000E+00  0.00000000000E+00  0.45593999997E+02  0.45594000000E+02  0.51100000000E-03 0.  1.
         11   -1    0    0    0    0 -0.00000000000E+00 -0.00000000000E+00 -0.45593999997E+02  0.45594000000E+02  0.51100000000E-03 0. -1.
    9900012    2    1    2    0    0  0.41349868234E+01  0.17216606251E+02 -0.60966433988E+01  0.72461582629E+02  0.70000016068E+02 0.  0.
         12    1    1    2    0    0 -0.41349868234E+01 -0.17216606251E+02  0.60966433988E+01  0.18726417371E+02  0.00000000000E+00 0. -1.
         11    1    3    3    0    0  0.41514455233E+01 -0.19785078175E+01  0.45475785231E+01  0.64675701621E+01  0.51100000000E-03 0. -1.
        -11    1    3    3    0    0 -0.16845818182E+02 -0.17763205052E+02 -0.28928941618E+01  0.24651204450E+02  0.51100000000E-03 0.  1.
         12    1    3    3    0    0  0.16829359482E+02  0.36958319120E+02 -0.77513277601E+01  0.41342808017E+02  0.00000000000E+00 0. -1.
</event>
<event>
 7    1  0.2941727E-013  0.7246159E+02  0.7816164E-02  0.1226708E+00
        -11   -1    0    0    0    0  0.00000000000E+00  0.00000000000E+00  0.45593999997E+02  0.45594000000E+02  0.51100000000E-03 0. -1.
         11   -1    0    0    0    0 -0.00000000000E+00 -0.00000000000E+00 -0.45593999997E+02  0.45594000000E+02  0.51100000000E-03 0.  1.
    9900012    2    1    2    0    0 -0.16877827986E+02  0.41780905544E+00  0.81020133933E+01  0.72461594500E+02  0.70000031532E+02 0.  0.
         12    1    1    2    0    0  0.16877827986E+02 -0.41780905544E+00 -0.81020133933E+01  0.18726405500E+02  0.00000000000E+00 0. -1.
         11    1    3    3    0    0 -0.12704418920E+02  0.10054893002E+02  0.58620555874E+01  0.17229823834E+02  0.51100000000E-03 0. -1.
        -11    1    3    3    0    0 -0.25708190969E+02  0.37407202230E+00 -0.11087375769E+02  0.27999659185E+02  0.51100000000E-03 0.  1.
         12    1    3    3    0    0  0.21534781903E+02 -0.10011155969E+02  0.13327333575E+02  0.27232111480E+02  0.00000000000E+00 0. -1.
</event>
<event>
 7    1  0.2941727E-013  0.7246152E+02  0.7816164E-02  0.1226708E+00
        -11   -1    0    0    0    0  0.00000000000E+00  0.00000000000E+00  0.45593999997E+02  0.45594000000E+02  0.51100000000E-03 0.  1.
         11   -1    0    0    0    0 -0.00000000000E+00 -0.00000000000E+00 -0.45593999997E+02  0.45594000000E+02  0.51100000000E-03 0. -1.
    9900012    2    1    2    0    0  0.21063010671E+01 -0.69521251312E+01  0.17260140057E+02  0.72461521879E+02  0.69999936930E+02 0.  0.
         12    1    1    2    0    0 -0.21063010671E+01  0.69521251312E+01 -0.17260140057E+02  0.18726478121E+02  0.00000000000E+00 0. -1.
         11    1    3    3    0    0  0.25132944627E+01  0.26304922838E+02 -0.38608173855E+00  0.26427536282E+02  0.51100000000E-03 0. -1.
        -11    1    3    3    0    0 -0.59938445886E+01  0.23327134265E+01  0.35692109267E+01  0.73557454947E+01  0.51100000000E-03 0.  1.
         12    1    3    3    0    0  0.55868511929E+01 -0.35589761395E+02  0.14077010869E+02  0.38678240103E+02  0.00000000000E+00 0. -1.
</event>
<event>
 7    1  0.2941727E-013  0.7246174E+02  0.7816164E-02  0.1226708E+00
        -11   -1    0    0    0    0  0.00000000000E+00  0.00000000000E+00  0.45593999997E+02  0.45594000000E+02  0.51100000000E-03 0.  1.
         11   -1    0    0    0    0 -0.00000000000E+00 -0.00000000000E+00 -0.45593999997E+02  0.45594000000E+02  0.51100000000E-03 0. -1.
    9900012    2    1    2    0    0 -0.99186442135E+01 -0.15499925074E+02 -0.34706602147E+01  0.72461744030E+02  0.70000226322E+02 0.  0.
         12    1    1    2    0    0  0.99186442135E+01  0.15499925074E+02  0.34706602147E+01  0.18726255970E+02  0.00000000000E+00 0. -1.
         11    1    3    3    0    0  0.11944075838E+02  0.82244092072E+01 -0.73025328693E+01  0.16236651163E+02  0.51100000000E-03 0. -1.
        -11    1    3    3    0    0 -0.11388788595E+02  0.13218380499E+02  0.36512575973E+01  0.17825873639E+02  0.51100000000E-03 0.  1.
        -12    1    3    3    0    0 -0.10473931457E+02 -0.36942714780E+02  0.18061505735E+00  0.38399219228E+02  0.00000000000E+00 0.  1.
</event>
<event>
 7    1  0.2941727E-013  0.7246171E+02  0.7816164E-02  0.1226708E+00
        -11   -1    0    0    0    0  0.00000000000E+00  0.00000000000E+00  0.45593999997E+02  0.45594000000E+02  0.51100000000E-03 0.  1.
         11   -1    0    0    0    0 -0.00000000000E+00 -0.00000000000E+00 -0.45593999997E+02  0.45594000000E+02  0.51100000000E-03 0. -1.
    9900012    2    1    2    0    0  0.58264701815E+01 -0.12160131110E+02 -0.12994518348E+02  0.72461706974E+02  0.70000178051E+02 0.  0.
         12    1    1    2    0    0 -0.58264701815E+01  0.12160131110E+02  0.12994518348E+02  0.18726293026E+02  0.00000000000E+00 0. -1.
         11    1    3    3    0    0  0.10523442716E+02  0.93890305626E+01 -0.21869792223E+02  0.26022769908E+02  0.51100000000E-03 0. -1.
        -11    1    3    3    0    0 -0.14987286040E+02 -0.10925067477E+02 -0.11076763151E+02  0.21602558284E+02  0.51100000000E-03 0.  1.
        -12    1    3    3    0    0  0.10290313506E+02 -0.10624094196E+02  0.19952037027E+02  0.24836378783E+02  0.00000000000E+00 0.  1.
</event>
<event>
 7    1  0.2941727E-013  0.7246157E+02  0.7816164E-02  0.1226708E+00
        -11   -1    0    0    0    0  0.00000000000E+00  0.00000000000E+00  0.45593999997E+02  0.45594000000E+02  0.51100000000E-03 0.  1.
         11   -1    0    0    0    0 -0.00000000000E+00 -0.00000000000E+00 -0.45593999997E+02  0.45594000000E+02  0.51100000000E-03 0. -1.
    9900012    2    1    2    0    0  0.24000057670E+01 -0.79195388972E+01  0.16798810221E+02  0.72461570846E+02  0.70000000719E+02 0.  0.
         12    1    1    2    0    0 -0.24000057670E+01  0.79195388972E+01 -0.16798810221E+02  0.18726429154E+02  0.00000000000E+00 0. -1.
         11    1    3    3    0    0 -0.80396902106E+00  0.10016381489E+01  0.82733021660E+01  0.83724055181E+01  0.51100000000E-03 0. -1.
        -11    1    3    3    0    0 -0.80741642470E+01 -0.33075741753E+01  0.34304392843E+02  0.35396660066E+02  0.51100000000E-03 0.  1.
         12    1    3    3    0    0  0.11278139035E+02 -0.56136028708E+01 -0.25778884788E+02  0.28692505262E+02  0.00000000000E+00 0. -1.
</event>
<event>
 7    1  0.2941727E-013  0.7246140E+02  0.7816164E-02  0.1226708E+00
        -11   -1    0    0    0    0  0.00000000000E+00  0.00000000000E+00  0.45593999997E+02  0.45594000000E+02  0.51100000000E-03 0.  1.
         11   -1    0    0    0    0 -0.00000000000E+00 -0.00000000000E+00 -0.45593999997E+02  0.45594000000E+02  0.51100000000E-03 0. -1.
    9900012    2    1    2    0    0 -0.10921639340E+02 -0.11853731254E+02  0.95337531906E+01  0.72461398589E+02  0.69999776321E+02 0.  0.
         12    1    1    2    0    0  0.10921639340E+02  0.11853731254E+02 -0.95337531906E+01  0.18726601411E+02  0.00000000000E+00 0. -1.
         11    1    3    3    0    0  0.15447882541E+02 -0.97508524811E+01 -0.20913171171E+02  0.27768271963E+02  0.51100000000E-03 0. -1.
        -11    1    3    3    0    0 -0.72782526638E+01 -0.47394611556E+01  0.21997034535E+02  0.23649629647E+02  0.51100000000E-03 0.  1.
        -12    1    3    3    0    0 -0.19091269217E+02  0.26365823828E+01  0.84498898273E+01  0.21043496978E+02  0.00000000000E+00 0.  1.
</event>
<event>
 7    1  0.2941727E-013  0.7246156E+02  0.7816164E-02  0.1226708E+00
        -11   -1    0    0    0    0  0.00000000000E+00  0.00000000000E+00  0.45593999997E+02  0.45594000000E+02  0.51100000000E-03 0. -1.
         11   -1    0    0    0    0 -0.00000000000E+00 -0.00000000000E+00 -0.45593999997E+02  0.45594000000E+02  0.51100000000E-03 0.  1.
    9900012    2    1    2    0    0 -0.12314336699E+02  0.12892479115E+02 -0.57289255851E+01  0.72461561619E+02  0.69999988699E+02 0.  0.
         12    1    1    2    0    0  0.12314336699E+02 -0.12892479115E+02  0.57289255851E+01  0.18726438381E+02  0.00000000000E+00 0. -1.
         11    1    3    3    0    0  0.69128561291E+01  0.16747370989E+02  0.13741805292E+02  0.22739815915E+02  0.51100000000E-03 0. -1.
        -11    1    3    3    0    0 -0.15532134671E+02  0.17861014198E+02 -0.88891145321E+01  0.25283975024E+02  0.51100000000E-03 0.  1.
        -12    1    3    3    0    0 -0.36950581578E+01 -0.21715906072E+02 -0.10581616345E+02  0.24437770680E+02  0.00000000000E+00 0.  1.
</event>
<event>
 7    1  0.2941727E-013  0.7246179E+02  0.7816164E-02  0.1226707E+00
        -11   -1    0    0    0    0  0.00000000000E+00  0.00000000000E+00  0.45593999997E+02  0.45594000000E+02  0.51100000000E-03 0.  1.
         11   -1    0    0    0    0 -0.00000000000E+00 -0.00000000000E+00 -0.45593999997E+02  0.45594000000E+02  0.51100000000E-03 0. -1.
    9900012    2    1    2    0    0  0.18300772172E+02  0.31127682524E+01  0.24624002713E+01  0.72461788334E+02  0.70000284036E+02 0.  0.
         12    1    1    2    0    0 -0.18300772172E+02 -0.31127682524E+01 -0.24624002713E+01  0.18726211666E+02  0.00000000000E+00 0. -1.
         11    1    3    3    0    0  0.13487809555E+02 -0.15881025010E+02 -0.31598313420E+01  0.21073976757E+02  0.51100000000E-03 0. -1.
        -11    1    3    3    0    0  0.15583433382E+02 -0.77770324222E+01 -0.83643045718E+01  0.19320642341E+02  0.51100000000E-03 0.  1.
         12    1    3    3    0    0 -0.10770470765E+02  0.26770825685E+02  0.13986536185E+02  0.32067169236E+02  0.00000000000E+00 0. -1.
</event>
<event>
 7    1  0.2941727E-013  0.7246152E+02  0.7816164E-02  0.1226708E+00
        -11   -1    0    0    0    0  0.00000000000E+00  0.00000000000E+00  0.45593999997E+02  0.45594000000E+02  0.51100000000E-03 0.  1.
         11   -1    0    0    0    0 -0.00000000000E+00 -0.00000000000E+00 -0.45593999997E+02  0.45594000000E+02  0.51100000000E-03 0. -1.
    9900012    2    1    2    0    0  0.11457751540E+02 -0.15371916639E+01 -0.14732215596E+02  0.72461515948E+02  0.69999929204E+02 0.  0.
         12    1    1    2    0    0 -0.11457751540E+02  0.15371916639E+01  0.14732215596E+02  0.18726484052E+02  0.00000000000E+00 0. -1.
         11    1    3    3    0    0  0.18911452134E+01  0.25442217390E+02 -0.83941514319E+01  0.26857859826E+02  0.51100000000E-03 0. -1.
        -11    1    3    3    0    0  0.85095263384E+01 -0.20207668680E+01 -0.16468345535E+02  0.18646767606E+02  0.51100000000E-03 0.  1.
        -12    1    3    3    0    0  0.10570799884E+01 -0.24958642186E+02  0.10130281370E+02  0.26956888516E+02  0.00000000000E+00 0.  1.
</event>
<event>
 7    1  0.2941727E-013  0.7246156E+02  0.7816164E-02  0.1226708E+00
        -11   -1    0    0    0    0  0.00000000000E+00  0.00000000000E+00  0.45593999997E+02  0.45594000000E+02  0.51100000000E-03 0. -1.
         11   -1    0    0    0    0 -0.00000000000E+00 -0.00000000000E+00 -0.45593999997E+02  0.45594000000E+02  0.51100000000E-03 0.  1.
    9900012    2    1    2    0    0 -0.11634012320E+02  0.51290480484E+01 -0.13748528174E+02  0.72461564047E+02  0.69999991861E+02 0.  0.
         12    1    1    2    0    0  0.11634012320E+02 -0.51290480484E+01  0.13748528174E+02  0.18726435953E+02  0.00000000000E+00 0. -1.
         11    1    3    3    0    0  0.10444021438E+02  0.23403792020E+02 -0.11746773137E+02  0.28192228435E+02  0.51100000000E-03 0. -1.
        -11    1    3    3    0    0 -0.22195327002E+02  0.26888972192E+01 -0.54784335286E+01  0.23019034367E+02  0.51100000000E-03 0.  1.
        -12    1    3    3    0    0  0.11729324402E+00 -0.20963641191E+02  0.34766784909E+01  0.21250301245E+02  0.00000000000E+00 0.  1.
</event>
<event>
 7    1  0.2941727E-013  0.7246172E+02  0.7816164E-02  0.1226708E+00
        -11   -1    0    0    0    0  0.00000000000E+00  0.00000000000E+00  0.45593999997E+02  0.45594000000E+02  0.51100000000E-03 0.  1.
         11   -1    0    0    0    0 -0.00000000000E+00 -0.00000000000E+00 -0.45593999997E+02  0.45594000000E+02  0.51100000000E-03 0. -1.
    9900012    2    1    2    0    0  0.21862004700E+00 -0.18164099712E+02 -0.45487628902E+01  0.72461720153E+02  0.70000195218E+02 0.  0.
         12    1    1    2    0    0 -0.21862004700E+00  0.18164099712E+02  0.45487628902E+01  0.18726279847E+02  0.00000000000E+00 0. -1.
         11    1    3    3    0    0 -0.50308495163E+01 -0.28620749627E+02 -0.49558907540E+01  0.29479104625E+02  0.51100000000E-03 0. -1.
        -11    1    3    3    0    0  0.28603008163E+01 -0.15688588445E+02  0.41107522900E+01  0.16468497588E+02  0.51100000000E-03 0.  1.
        -12    1    3    3    0    0  0.23891687469E+01  0.26145238360E+02 -0.37036244262E+01  0.26514117940E+02  0.00000000000E+00 0.  1.
</event>
<event>
 7    1  0.2941727E-013  0.7246158E+02  0.7816164E-02  0.1226708E+00
        -11   -1    0    0    0    0  0.00000000000E+00  0.00000000000E+00  0.45593999997E+02  0.45594000000E+02  0.51100000000E-03 0. -1.
         11   -1    0    0    0    0 -0.00000000000E+00 -0.00000000000E+00 -0.45593999997E+02  0.45594000000E+02  0.51100000000E-03 0.  1.
    9900012    2    1    2    0    0 -0.13643781916E+02  0.96907028731E-01 -0.12826398286E+02  0.72461583660E+02  0.70000017411E+02 0.  0.
         12    1    1    2    0    0  0.13643781916E+02 -0.96907028731E-01  0.12826398286E+02  0.18726416340E+02  0.00000000000E+00 0. -1.
         11    1    3    3    0    0 -0.55792063651E+01  0.86655861573E+00 -0.66051560343E+01  0.86894507305E+01  0.51100000000E-03 0. -1.
        -11    1    3    3    0    0 -0.26920172522E+02  0.14000357287E+01 -0.25221622530E+02  0.36915931953E+02  0.51100000000E-03 0.  1.
         12    1    3    3    0    0  0.18855596971E+02 -0.21696873157E+01  0.19000380279E+02  0.26856200977E+02  0.00000000000E+00 0. -1.
</event>
<event>
 7    1  0.2941727E-013  0.7246155E+02  0.7816164E-02  0.1226708E+00
        -11   -1    0    0    0    0  0.00000000000E+00  0.00000000000E+00  0.45593999997E+02  0.45594000000E+02  0.51100000000E-03 0. -1.
         11   -1    0    0    0    0 -0.00000000000E+00 -0.00000000000E+00 -0.45593999997E+02  0.45594000000E+02  0.51100000000E-03 0.  1.
    9900012    2    1    2    0    0 -0.17307620858E+02  0.70408570842E+01  0.12459603122E+01  0.72461552783E+02  0.69999977189E+02 0.  0.
         12    1    1    2    0    0  0.17307620858E+02 -0.70408570842E+01 -0.12459603122E+01  0.18726447217E+02  0.00000000000E+00 0. -1.
         11    1    3    3    0    0  0.38098213530E+01  0.10225920108E+02  0.23125978479E+02  0.25571371916E+02  0.51100000000E-03 0.  1.
        -11    1    3    3    0    0 -0.76288940821E+01 -0.16586777414E+02 -0.48035860807E+00  0.18263404791E+02  0.51100000000E-03 0. -1.
        -12    1    3    3    0    0 -0.13488548129E+02  0.13401714391E+02 -0.21399659559E+02  0.28626776076E+02  0.00000000000E+00 0.  1.
</event>
<event>
 7    1  0.2941727E-013  0.7246155E+02  0.7816164E-02  0.1226708E+00
        -11   -1    0    0    0    0  0.00000000000E+00  0.00000000000E+00  0.45593999997E+02  0.45594000000E+02  0.51100000000E-03 0.  1.
         11   -1    0    0    0    0 -0.00000000000E+00 -0.00000000000E+00 -0.45593999997E+02  0.45594000000E+02  0.51100000000E-03 0. -1.
    9900012    2    1    2    0    0 -0.38475628764E+01  0.88180370878E+01  0.16066058270E+02  0.72461554889E+02  0.69999979932E+02 0.  0.
         12    1    1    2    0    0  0.38475628764E+01 -0.88180370878E+01 -0.16066058270E+02  0.18726445111E+02  0.00000000000E+00 0. -1.
         11    1    3    3    0    0 -0.85126255986E+01  0.12290429014E+02 -0.16889877711E+02  0.22556316394E+02  0.51100000000E-03 0. -1.
        -11    1    3    3    0    0  0.17566103944E+02  0.85518301030E+01  0.14145078796E+02  0.24120220983E+02  0.51100000000E-03 0.  1.
         12    1    3    3    0    0 -0.12901041222E+02 -0.12024222029E+02  0.18810857185E+02  0.25785017511E+02  0.00000000000E+00 0. -1.
</event>
<event>
 7    1  0.2941727E-013  0.7246167E+02  0.7816164E-02  0.1226708E+00
        -11   -1    0    0    0    0  0.00000000000E+00  0.00000000000E+00  0.45593999997E+02  0.45594000000E+02  0.51100000000E-03 0.  1.
         11   -1    0    0    0    0 -0.00000000000E+00 -0.00000000000E+00 -0.45593999997E+02  0.45594000000E+02  0.51100000000E-03 0. -1.
    9900012    2    1    2    0    0  0.80670085899E+01  0.16537308873E+02 -0.34808575164E+01  0.72461666098E+02  0.70000124802E+02 0.  0.
         12    1    1    2    0    0 -0.80670085899E+01 -0.16537308873E+02  0.34808575164E+01  0.18726333902E+02  0.00000000000E+00 0. -1.
         11    1    3    3    0    0  0.22243071458E+02  0.10043514302E+02 -0.19984810955E+02  0.31543922974E+02  0.51100000000E-03 0. -1.
        -11    1    3    3    0    0  0.10459865733E+02 -0.18777700512E+01  0.11083915446E+01  0.10684724779E+02  0.51100000000E-03 0.  1.
        -12    1    3    3    0    0 -0.24635928601E+02  0.83715646221E+01  0.15395561894E+02  0.30233018346E+02  0.00000000000E+00 0.  1.
</event>
<event>
 7    1  0.2941727E-013  0.7246160E+02  0.7816164E-02  0.1226708E+00
        -11   -1    0    0    0    0  0.00000000000E+00  0.00000000000E+00  0.45593999997E+02  0.45594000000E+02  0.51100000000E-03 0.  1.
         11   -1    0    0    0    0 -0.00000000000E+00 -0.00000000000E+00 -0.45593999997E+02  0.45594000000E+02  0.51100000000E-03 0. -1.
    9900012    2    1    2    0    0  0.51089160131E+01  0.81247037923E+01  0.16079997389E+02  0.72461597500E+02  0.70000035441E+02 0.  0.
         12    1    1    2    0    0 -0.51089160131E+01 -0.81247037923E+01 -0.16079997389E+02  0.18726402500E+02  0.00000000000E+00 0. -1.
         11    1    3    3    0    0  0.30367752853E+01 -0.19297550338E+01 -0.76755697544E+01  0.84770472418E+01  0.51100000000E-03 0. -1.
        -11    1    3    3    0    0  0.19317807796E+02 -0.62558694821E+01 -0.10066806482E+02  0.22663940391E+02  0.51100000000E-03 0.  1.
        -12    1    3    3    0    0 -0.17245667069E+02  0.16310328308E+02  0.33822373626E+02  0.41320609868E+02  0.00000000000E+00 0.  1.
</event>
<event>
 7    1  0.2941727E-013  0.7246157E+02  0.7816164E-02  0.1226708E+00
        -11   -1    0    0    0    0  0.00000000000E+00  0.00000000000E+00  0.45593999997E+02  0.45594000000E+02  0.51100000000E-03 0. -1.
         11   -1    0    0    0    0 -0.00000000000E+00 -0.00000000000E+00 -0.45593999997E+02  0.45594000000E+02  0.51100000000E-03 0.  1.
    9900012    2    1    2    0    0 -0.48353999631E+01  0.15502102878E+01 -0.18024840258E+02  0.72461571856E+02  0.70000002034E+02 0.  0.
         12    1    1    2    0    0  0.48353999631E+01 -0.15502102878E+01  0.18024840258E+02  0.18726428144E+02  0.00000000000E+00 0. -1.
         11    1    3    3    0    0 -0.55120453364E+01 -0.16802651198E+02 -0.35319550405E+02  0.39499143942E+02  0.51100000000E-03 0. -1.
        -11    1    3    3    0    0 -0.98521267248E+00 -0.36901394046E+01 -0.13427818991E+01  0.40485597841E+01  0.51100000000E-03 0.  1.
        -12    1    3    3    0    0  0.16618580458E+01  0.22043000890E+02  0.18637492047E+02  0.28913868129E+02  0.00000000000E+00 0.  1.
</event>
<event>
 7    1  0.2941727E-013  0.7246156E+02  0.7816164E-02  0.1226708E+00
        -11   -1    0    0    0    0  0.00000000000E+00  0.00000000000E+00  0.45593999997E+02  0.45594000000E+02  0.51100000000E-03 0.  1.
         11   -1    0    0    0    0 -0.00000000000E+00 -0.00000000000E+00 -0.45593999997E+02  0.45594000000E+02  0.51100000000E-03 0. -1.
    9900012    2    1    2    0    0 -0.68265312377E+01 -0.15656788182E+02  0.76774262819E+01  0.72461563627E+02  0.69999991315E+02 0.  0.
         12    1    1    2    0    0  0.68265312377E+01  0.15656788182E+02 -0.76774262819E+01  0.18726436373E+02  0.00000000000E+00 0. -1.
         11    1    3    3    0    0  0.24485110929E+02 -0.99032454354E+01 -0.11914846963E+02  0.28975135992E+02  0.51100000000E-03 0. -1.
        -11    1    3    3    0    0  0.92001672133E+00 -0.56234003320E+01 -0.12941811288E+00  0.56996325645E+01  0.51100000000E-03 0.  1.
        -12    1    3    3    0    0 -0.32231658888E+02 -0.13014241449E+00  0.19721691358E+02  0.37786795071E+02  0.00000000000E+00 0.  1.
</event>
<event>
 7    1  0.2941727E-013  0.7246157E+02  0.7816164E-02  0.1226708E+00
        -11   -1    0    0    0    0  0.00000000000E+00  0.00000000000E+00  0.45593999997E+02  0.45594000000E+02  0.51100000000E-03 0. -1.
         11   -1    0    0    0    0 -0.00000000000E+00 -0.00000000000E+00 -0.45593999997E+02  0.45594000000E+02  0.51100000000E-03 0.  1.
    9900012    2    1    2    0    0  0.31584628085E+00 -0.43742707980E+01 -0.18205634366E+02  0.72461571442E+02  0.70000001494E+02 0.  0.
         12    1    1    2    0    0 -0.31584628085E+00  0.43742707980E+01  0.18205634366E+02  0.18726428558E+02  0.00000000000E+00 0. -1.
         11    1    3    3    0    0  0.18020858465E+01 -0.13240248667E+02 -0.16274171829E+02  0.21057074040E+02  0.51100000000E-03 0. -1.
        -11    1    3    3    0    0 -0.19504225720E+02  0.25259963207E+01 -0.17834982801E+02  0.26549615630E+02  0.51100000000E-03 0.  1.
         12    1    3    3    0    0  0.18017986154E+02  0.63399815482E+01  0.15903520264E+02  0.24854881771E+02  0.00000000000E+00 0. -1.
</event>
<event>
 7    1  0.2941727E-013  0.7246154E+02  0.7816164E-02  0.1226708E+00
        -11   -1    0    0    0    0  0.00000000000E+00  0.00000000000E+00  0.45593999997E+02  0.45594000000E+02  0.51100000000E-03 0.  1.
         11   -1    0    0    0    0 -0.00000000000E+00 -0.00000000000E+00 -0.45593999997E+02  0.45594000000E+02  0.51100000000E-03 0. -1.
    9900012    2    1    2    0    0  0.88762551152E+00  0.51414525059E+01  0.17984935496E+02  0.72461539637E+02  0.69999960063E+02 0.  0.
         12    1    1    2    0    0 -0.88762551152E+00 -0.51414525059E+01 -0.17984935496E+02  0.18726460363E+02  0.00000000000E+00 0. -1.
         11    1    3    3    0    0  0.71184447681E+01  0.57803867947E+01  0.42821118464E+00  0.91797871703E+01  0.51100000000E-03 0. -1.
        -11    1    3    3    0    0  0.21544619187E+00  0.18929419659E+02 -0.15407829580E+02  0.24408411631E+02  0.51100000000E-03 0.  1.
         12    1    3    3    0    0 -0.64462654485E+01 -0.19568353948E+02  0.32964553892E+02  0.38873340836E+02  0.00000000000E+00 0. -1.
</event>
<event>
 7    1  0.2941727E-013  0.7246156E+02  0.7816164E-02  0.1226708E+00
        -11   -1    0    0    0    0  0.00000000000E+00  0.00000000000E+00  0.45593999997E+02  0.45594000000E+02  0.51100000000E-03 0.  1.
         11   -1    0    0    0    0 -0.00000000000E+00 -0.00000000000E+00 -0.45593999997E+02  0.45594000000E+02  0.51100000000E-03 0. -1.
    9900012    2    1    2    0    0  0.93989644939E+01 -0.11841096385E+02  0.11051132483E+02  0.72461558098E+02  0.69999984112E+02 0.  0.
         12    1    1    2    0    0 -0.93989644939E+01  0.11841096385E+02 -0.11051132483E+02  0.18726441902E+02  0.00000000000E+00 0. -1.
         11    1    3    3    0    0 -0.45476500185E+01  0.12771746795E+01 -0.42477986878E+01  0.63526443160E+01  0.51100000000E-03 0. -1.
        -11    1    3    3    0    0 -0.47627421747E+01 -0.33875211209E+02  0.16826528960E+02  0.38122771733E+02  0.51100000000E-03 0.  1.
         12    1    3    3    0    0  0.18709356687E+02  0.20756940144E+02 -0.15275977894E+01  0.27986142049E+02  0.00000000000E+00 0. -1.
</event>
<event>
 7    1  0.2941727E-013  0.7246155E+02  0.7816164E-02  0.1226708E+00
        -11   -1    0    0    0    0  0.00000000000E+00  0.00000000000E+00  0.45593999997E+02  0.45594000000E+02  0.51100000000E-03 0. -1.
         11   -1    0    0    0    0 -0.00000000000E+00 -0.00000000000E+00 -0.45593999997E+02  0.45594000000E+02  0.51100000000E-03 0.  1.
    9900012    2    1    2    0    0  0.24325626985E+01  0.75908182892E+01 -0.16945263339E+02  0.72461552573E+02  0.69999976915E+02 0.  0.
         12    1    1    2    0    0 -0.24325626985E+01 -0.75908182892E+01  0.16945263339E+02  0.18726447427E+02  0.00000000000E+00 0. -1.
         11    1    3    3    0    0 -0.55255847075E+00  0.97728649456E+00 -0.60048333049E+01  0.61088814882E+01  0.51100000000E-03 0. -1.
        -11    1    3    3    0    0  0.18297137277E+02 -0.11174524604E+02  0.18766492751E+02  0.28492744394E+02  0.51100000000E-03 0.  1.
         12    1    3    3    0    0 -0.15312016108E+02  0.17788056398E+02 -0.29706922785E+02  0.37859926691E+02  0.00000000000E+00 0. -1.
</event>
<event>
 7    1  0.2941727E-013  0.7246159E+02  0.7816164E-02  0.1226708E+00
        -11   -1    0    0    0    0  0.00000000000E+00  0.00000000000E+00  0.45593999997E+02  0.45594000000E+02  0.51100000000E-03 0.  1.
         11   -1    0    0    0    0 -0.00000000000E+00 -0.00000000000E+00 -0.45593999997E+02  0.45594000000E+02  0.51100000000E-03 0. -1.
    9900012    2    1    2    0    0 -0.27049117632E+01 -0.63042259142E+01  0.17424659756E+02  0.72461586044E+02  0.70000020517E+02 0.  0.
         12    1    1    2    0    0  0.27049117632E+01  0.63042259142E+01 -0.17424659756E+02  0.18726413956E+02  0.00000000000E+00 0. -1.
         11    1    3    3    0    0  0.14717461621E+02  0.92729535977E+01 -0.77963813576E+00  0.17412615566E+02  0.51100000000E-03 0. -1.
        -11    1    3    3    0    0 -0.23034804636E+00  0.10730060267E+02 -0.85928109990E+01  0.13748587370E+02  0.51100000000E-03 0.  1.
        -12    1    3    3    0    0 -0.17192025337E+02 -0.26307239778E+02  0.26797108891E+02  0.41300383108E+02  0.00000000000E+00 0.  1.
</event>
<event>
 7    1  0.2941727E-013  0.7246153E+02  0.7816164E-02  0.1226708E+00
        -11   -1    0    0    0    0  0.00000000000E+00  0.00000000000E+00  0.45593999997E+02  0.45594000000E+02  0.51100000000E-03 0.  1.
         11   -1    0    0    0    0 -0.00000000000E+00 -0.00000000000E+00 -0.45593999997E+02  0.45594000000E+02  0.51100000000E-03 0. -1.
    9900012    2    1    2    0    0 -0.41471041504E+01 -0.14930688624E+02  0.10514590502E+02  0.72461533460E+02  0.69999952017E+02 0.  0.
         12    1    1    2    0    0  0.41471041504E+01  0.14930688624E+02 -0.10514590502E+02  0.18726466540E+02  0.00000000000E+00 0. -1.
         11    1    3    3    0    0  0.12564535766E+02 -0.75842426462E+01 -0.15648421590E+02  0.21453703504E+02  0.51100000000E-03 0. -1.
        -11    1    3    3    0    0  0.61638392788E+01  0.79166151705E+01 -0.34361937362E+01  0.10605335358E+02  0.51100000000E-03 0.  1.
        -12    1    3    3    0    0 -0.22875479196E+02 -0.15263061149E+02  0.29599205828E+02  0.40402494598E+02  0.00000000000E+00 0.  1.
</event>
<event>
 7    1  0.2941727E-013  0.7246149E+02  0.7816164E-02  0.1226708E+00
        -11   -1    0    0    0    0  0.00000000000E+00  0.00000000000E+00  0.45593999997E+02  0.45594000000E+02  0.51100000000E-03 0.  1.
         11   -1    0    0    0    0 -0.00000000000E+00 -0.00000000000E+00 -0.45593999997E+02  0.45594000000E+02  0.51100000000E-03 0. -1.
    9900012    2    1    2    0    0  0.11905282834E+02  0.10490283099E+01  0.14416865811E+02  0.72461488324E+02  0.69999893218E+02 0.  0.
         12    1    1    2    0    0 -0.11905282834E+02 -0.10490283099E+01 -0.14416865811E+02  0.18726511676E+02  0.00000000000E+00 0. -1.
         11    1    3    3    0    0 -0.18838405007E+01 -0.11013253810E+02 -0.21143690099E+01  0.11371506984E+02  0.51100000000E-03 0. -1.
        -11    1    3    3    0    0 -0.11674105089E+02 -0.48463668192E+01 -0.13321912969E+02  0.18364241514E+02  0.51100000000E-03 0.  1.
         12    1    3    3    0    0  0.25463228424E+02  0.16908648939E+02  0.29853147790E+02  0.42725739826E+02  0.00000000000E+00 0. -1.
</event>
<event>
 7    1  0.2941727E-013  0.7246152E+02  0.7816164E-02  0.1226708E+00
        -11   -1    0    0    0    0  0.00000000000E+00  0.00000000000E+00  0.45593999997E+02  0.45594000000E+02  0.51100000000E-03 0.  1.
         11   -1    0    0    0    0 -0.00000000000E+00 -0.00000000000E+00 -0.45593999997E+02  0.45594000000E+02  0.51100000000E-03 0. -1.
    9900012    2    1    2    0    0  0.15011417116E+02  0.21791562364E+01  0.10981337650E+02  0.72461517620E+02  0.69999931382E+02 0.  0.
         12    1    1    2    0    0 -0.15011417116E+02 -0.21791562364E+01 -0.10981337650E+02  0.18726482380E+02  0.00000000000E+00 0. -1.
         11    1    3    3    0    0  0.23828999244E+02  0.27392461367E+02  0.38214305578E+01  0.36507142814E+02  0.51100000000E-03 0. -1.
        -11    1    3    3    0    0  0.17729263451E+01  0.32793708429E+01 -0.19689414345E+01  0.42159544096E+01  0.51100000000E-03 0.  1.
        -12    1    3    3    0    0 -0.10590508473E+02 -0.28492675973E+02  0.91288485271E+01  0.31738420396E+02  0.00000000000E+00 0.  1.
</event>
<event>
 7    1  0.2941727E-013  0.7246156E+02  0.7816164E-02  0.1226708E+00
        -11   -1    0    0    0    0  0.00000000000E+00  0.00000000000E+00  0.45593999997E+02  0.45594000000E+02  0.51100000000E-03 0.  1.
         11   -1    0    0    0    0 -0.00000000000E+00 -0.00000000000E+00 -0.45593999997E+02  0.45594000000E+02  0.51100000000E-03 0. -1.
    9900012    2    1    2    0    0 -0.69925625669E+01  0.67831014460E+00  0.17358674718E+02  0.72461558163E+02  0.69999984197E+02 0.  0.
         12    1    1    2    0    0  0.69925625669E+01 -0.67831014460E+00 -0.17358674718E+02  0.18726441837E+02  0.00000000000E+00 0. -1.
         11    1    3    3    0    0 -0.79282510200E+01 -0.61242992470E+01 -0.20411655552E+02  0.22737631542E+02  0.51100000000E-03 0. -1.
        -11    1    3    3    0    0  0.13195517741E+02 -0.14711450478E+01  0.57817745259E+01  0.14481535593E+02  0.51100000000E-03 0.  1.
        -12    1    3    3    0    0 -0.12259829288E+02  0.82737544394E+01  0.31988555745E+02  0.35242391027E+02  0.00000000000E+00 0.  1.
</event>
<event>
 7    1  0.2941727E-013  0.7246160E+02  0.7816164E-02  0.1226708E+00
        -11   -1    0    0    0    0  0.00000000000E+00  0.00000000000E+00  0.45593999997E+02  0.45594000000E+02  0.51100000000E-03 0. -1.
         11   -1    0    0    0    0 -0.00000000000E+00 -0.00000000000E+00 -0.45593999997E+02  0.45594000000E+02  0.51100000000E-03 0.  1.
    9900012    2    1    2    0    0 -0.13642565497E+01  0.36282413192E+01 -0.18320826450E+02  0.72461601179E+02  0.70000040233E+02 0.  0.
         12    1    1    2    0    0  0.13642565497E+01 -0.36282413192E+01  0.18320826450E+02  0.18726398821E+02  0.00000000000E+00 0. -1.
         11    1    3    3    0    0  0.10551563496E+01  0.43509280094E+01  0.55271809959E+01  0.71129220077E+01  0.51100000000E-03 0. -1.
        -11    1    3    3    0    0  0.16612246034E+01  0.26362721784E+02 -0.27005383717E+02  0.37776229524E+02  0.51100000000E-03 0.  1.
         12    1    3    3    0    0 -0.40806375027E+01 -0.27085408474E+02  0.31573762713E+01  0.27572449648E+02  0.00000000000E+00 0. -1.
</event>
<event>
 7    1  0.2941727E-013  0.7246155E+02  0.7816164E-02  0.1226708E+00
        -11   -1    0    0    0    0  0.00000000000E+00  0.00000000000E+00  0.45593999997E+02  0.45594000000E+02  0.51100000000E-03 0.  1.
         11   -1    0    0    0    0 -0.00000000000E+00 -0.00000000000E+00 -0.45593999997E+02  0.45594000000E+02  0.51100000000E-03 0. -1.
    9900012    2    1    2    0    0  0.84974556397E+01 -0.16123774186E+02 -0.43008452904E+01  0.72461545008E+02  0.69999967060E+02 0.  0.
         12    1    1    2    0    0 -0.84974556397E+01  0.16123774186E+02  0.43008452904E+01  0.18726454992E+02  0.00000000000E+00 0. -1.
         11    1    3    3    0    0 -0.15705283049E+01  0.20743562141E+02 -0.12903802475E+02  0.24479992811E+02  0.51100000000E-03 0. -1.
        -11    1    3    3    0    0  0.14924614689E+02 -0.62458598996E+01  0.36295985000E+01  0.16580979314E+02  0.51100000000E-03 0.  1.
        -12    1    3    3    0    0 -0.48566307441E+01 -0.30621476427E+02  0.49733586851E+01  0.31400572883E+02  0.00000000000E+00 0.  1.
</event>
<event>
 7    1  0.2941727E-013  0.7246161E+02  0.7816164E-02  0.1226708E+00
        -11   -1    0    0    0    0  0.00000000000E+00  0.00000000000E+00  0.45593999997E+02  0.45594000000E+02  0.51100000000E-03 0.  1.
         11   -1    0    0    0    0 -0.00000000000E+00 -0.00000000000E+00 -0.45593999997E+02  0.45594000000E+02  0.51100000000E-03 0. -1.
    9900012    2    1    2    0    0  0.70822678370E+00  0.67610468350E+01  0.17448904979E+02  0.72461611548E+02  0.70000053741E+02 0.  0.
         12    1    1    2    0    0 -0.70822678370E+00 -0.67610468350E+01 -0.17448904979E+02  0.18726388452E+02  0.00000000000E+00 0. -1.
         11    1    3    3    0    0 -0.15775129724E+01 -0.14120309065E+02  0.27577395252E+02  0.31022321067E+02  0.51100000000E-03 0. -1.
        -11    1    3    3    0    0 -0.12093301418E+02 -0.95370296925E+00  0.25296977881E+01  0.12391806151E+02  0.51100000000E-03 0.  1.
         12    1    3    3    0    0  0.14379041174E+02  0.21835058869E+02 -0.12658188061E+02  0.29047484330E+02  0.00000000000E+00 0. -1.
</event>
<event>
 7    1  0.2941727E-013  0.7246156E+02  0.7816164E-02  0.1226708E+00
        -11   -1    0    0    0    0  0.00000000000E+00  0.00000000000E+00  0.45593999997E+02  0.45594000000E+02  0.51100000000E-03 0. -1.
         11   -1    0    0    0    0 -0.00000000000E+00 -0.00000000000E+00 -0.45593999997E+02  0.45594000000E+02  0.51100000000E-03 0.  1.
    9900012    2    1    2    0    0 -0.91634177176E+01  0.21316610483E+00 -0.16329910104E+02  0.72461558052E+02  0.69999984052E+02 0.  0.
         12    1    1    2    0    0  0.91634177176E+01 -0.21316610483E+00  0.16329910104E+02  0.18726441948E+02  0.00000000000E+00 0. -1.
         11    1    3    3    0    0  0.33174654097E+01  0.12066507832E+02  0.10624003128E+02  0.16415712922E+02  0.51100000000E-03 0. -1.
        -11    1    3    3    0    0 -0.18273964117E+02  0.11744607542E+02 -0.30062819083E+01  0.21929689967E+02  0.51100000000E-03 0.  1.
        -12    1    3    3    0    0  0.57930809899E+01 -0.23597949269E+02 -0.23947631324E+02  0.34116155163E+02  0.00000000000E+00 0.  1.
</event>
<event>
 7    1  0.2941727E-013  0.7246158E+02  0.7816164E-02  0.1226708E+00
        -11   -1    0    0    0    0  0.00000000000E+00  0.00000000000E+00  0.45593999997E+02  0.45594000000E+02  0.51100000000E-03 0. -1.
         11   -1    0    0    0    0 -0.00000000000E+00 -0.00000000000E+00 -0.45593999997E+02  0.45594000000E+02  0.51100000000E-03 0.  1.
    9900012    2    1    2    0    0 -0.15373467259E+02  0.38496257695E+01 -0.99757529235E+01  0.72461581215E+02  0.70000014226E+02 0.  0.
         12    1    1    2    0    0  0.15373467259E+02 -0.38496257695E+01  0.99757529235E+01  0.18726418785E+02  0.00000000000E+00 0. -1.
         11    1    3    3    0    0  0.26909452893E+01 -0.68669111563E+01 -0.10872973856E+02  0.13138387120E+02  0.51100000000E-03 0. -1.
        -11    1    3    3    0    0  0.27545410862E+01 -0.70377457654E+01 -0.22240983778E+02  0.23489970663E+02  0.51100000000E-03 0.  1.
         12    1    3    3    0    0 -0.20818953634E+02  0.17754282691E+02  0.23138204711E+02  0.35833223432E+02  0.00000000000E+00 0. -1.
</event>
<event>
 7    1  0.2941727E-013  0.7246156E+02  0.7816164E-02  0.1226708E+00
        -11   -1    0    0    0    0  0.00000000000E+00  0.00000000000E+00  0.45593999997E+02  0.45594000000E+02  0.51100000000E-03 0.  1.
         11   -1    0    0    0    0 -0.00000000000E+00 -0.00000000000E+00 -0.45593999997E+02  0.45594000000E+02  0.51100000000E-03 0. -1.
    9900012    2    1    2    0    0  0.10989234148E+02  0.13420333343E+02  0.70576970678E+01  0.72461556075E+02  0.69999981476E+02 0.  0.
         12    1    1    2    0    0 -0.10989234148E+02 -0.13420333343E+02 -0.70576970678E+01  0.18726443925E+02  0.00000000000E+00 0. -1.
         11    1    3    3    0    0 -0.70626173193E+01 -0.40100255525E+01  0.89641119748E+01  0.12096122192E+02  0.51100000000E-03 0. -1.
        -11    1    3    3    0    0  0.14510215020E+02  0.72398168715E+01  0.25889783402E+02  0.30549012637E+02  0.51100000000E-03 0.  1.
         12    1    3    3    0    0  0.35416364472E+01  0.10190542024E+02 -0.27796198309E+02  0.29816421245E+02  0.00000000000E+00 0. -1.
</event>
<event>
 7    1  0.2941727E-013  0.7246162E+02  0.7816164E-02  0.1226708E+00
        -11   -1    0    0    0    0  0.00000000000E+00  0.00000000000E+00  0.45593999997E+02  0.45594000000E+02  0.51100000000E-03 0.  1.
         11   -1    0    0    0    0 -0.00000000000E+00 -0.00000000000E+00 -0.45593999997E+02  0.45594000000E+02  0.51100000000E-03 0. -1.
    9900012    2    1    2    0    0 -0.93406788206E+01 -0.10522440464E+01  0.16196354520E+02  0.72461617592E+02  0.70000061614E+02 0.  0.
         12    1    1    2    0    0  0.93406788206E+01  0.10522440464E+01 -0.16196354520E+02  0.18726382408E+02  0.00000000000E+00 0. -1.
         11    1    3    3    0    0 -0.40681097525E+00 -0.51443615273E+01  0.75697565545E+01  0.91613953767E+01  0.51100000000E-03 0. -1.
        -11    1    3    3    0    0  0.26437984046E+02 -0.21387302347E+01  0.65646286702E+01  0.27324632062E+02  0.51100000000E-03 0.  1.
         12    1    3    3    0    0 -0.35371851892E+02  0.62308477156E+01  0.20619692953E+01  0.35975590153E+02  0.00000000000E+00 0. -1.
</event>
<event>
 7    1  0.2941727E-013  0.7246152E+02  0.7816164E-02  0.1226708E+00
        -11   -1    0    0    0    0  0.00000000000E+00  0.00000000000E+00  0.45593999997E+02  0.45594000000E+02  0.51100000000E-03 0. -1.
         11   -1    0    0    0    0 -0.00000000000E+00 -0.00000000000E+00 -0.45593999997E+02  0.45594000000E+02  0.51100000000E-03 0.  1.
    9900012    2    1    2    0    0 -0.18303106354E+02 -0.39592992820E+01 -0.34241554673E-01  0.72461523409E+02  0.69999938923E+02 0.  0.
         12    1    1    2    0    0  0.18303106354E+02  0.39592992820E+01  0.34241554673E-01  0.18726476591E+02  0.00000000000E+00 0. -1.
         11    1    3    3    0    0  0.87612878851E+01 -0.18959024419E+02  0.67301743294E+01  0.21943108692E+02  0.51100000000E-03 0. -1.
        -11    1    3    3    0    0  0.81945872468E+00 -0.98902147834E+01 -0.85497554550E+01  0.13099090795E+02  0.51100000000E-03 0.  1.
        -12    1    3    3    0    0 -0.27883852964E+02  0.24889939920E+02  0.17853395709E+01  0.37419323921E+02  0.00000000000E+00 0.  1.
</event>
<event>
 7    1  0.2941727E-013  0.7246156E+02  0.7816164E-02  0.1226708E+00
        -11   -1    0    0    0    0  0.00000000000E+00  0.00000000000E+00  0.45593999997E+02  0.45594000000E+02  0.51100000000E-03 0. -1.
         11   -1    0    0    0    0 -0.00000000000E+00 -0.00000000000E+00 -0.45593999997E+02  0.45594000000E+02  0.51100000000E-03 0.  1.
    9900012    2    1    2    0    0 -0.13769051175E+02  0.22274619058E+01  0.12495253701E+02  0.72461555547E+02  0.69999980789E+02 0.  0.
         12    1    1    2    0    0  0.13769051175E+02 -0.22274619058E+01 -0.12495253701E+02  0.18726444453E+02  0.00000000000E+00 0. -1.
         11    1    3    3    0    0  0.35724911213E+01  0.20473274314E+02  0.13533528222E+02  0.24800686288E+02  0.51100000000E-03 0. -1.
        -11    1    3    3    0    0  0.91617934492E+01 -0.18225068036E+02 -0.46245889256E+01  0.20915984011E+02  0.51100000000E-03 0.  1.
         12    1    3    3    0    0 -0.26503335745E+02 -0.20744372311E-01  0.35863144042E+01  0.26744885248E+02  0.00000000000E+00 0. -1.
</event>
<event>
 7    1  0.2941727E-013  0.7246156E+02  0.7816164E-02  0.1226708E+00
        -11   -1    0    0    0    0  0.00000000000E+00  0.00000000000E+00  0.45593999997E+02  0.45594000000E+02  0.51100000000E-03 0. -1.
         11   -1    0    0    0    0 -0.00000000000E+00 -0.00000000000E+00 -0.45593999997E+02  0.45594000000E+02  0.51100000000E-03 0.  1.
    9900012    2    1    2    0    0  0.37029162746E+01  0.16477507404E+02 -0.80907171554E+01  0.72461560315E+02  0.69999987000E+02 0.  0.
         12    1    1    2    0    0 -0.37029162746E+01 -0.16477507404E+02  0.80907171554E+01  0.18726439685E+02  0.00000000000E+00 0. -1.
         11    1    3    3    0    0 -0.15287998909E+02  0.64886118098E+01  0.64599629507E+01  0.17820104249E+02  0.51100000000E-03 0. -1.
        -11    1    3    3    0    0  0.27717277738E+02  0.18951699909E+02 -0.21943006940E+02  0.40111219983E+02  0.51100000000E-03 0.  1.
         12    1    3    3    0    0 -0.87263625544E+01 -0.89628043147E+01  0.73923268337E+01  0.14530236083E+02  0.00000000000E+00 0. -1.
</event>
<event>
 7    1  0.2941727E-013  0.7246167E+02  0.7816164E-02  0.1226708E+00
        -11   -1    0    0    0    0  0.00000000000E+00  0.00000000000E+00  0.45593999997E+02  0.45594000000E+02  0.51100000000E-03 0.  1.
         11   -1    0    0    0    0 -0.00000000000E+00 -0.00000000000E+00 -0.45593999997E+02  0.45594000000E+02  0.51100000000E-03 0. -1.
    9900012    2    1    2    0    0 -0.45284015937E+01  0.18006860857E+02 -0.24335205911E+01  0.72461668768E+02  0.70000128281E+02 0.  0.
         12    1    1    2    0    0  0.45284015937E+01 -0.18006860857E+02  0.24335205911E+01  0.18726331232E+02  0.00000000000E+00 0. -1.
         11    1    3    3    0    0  0.45730476530E+01 -0.93343764618E+01 -0.33030271681E+01  0.10906573133E+02  0.51100000000E-03 0. -1.
        -11    1    3    3    0    0 -0.26457695390E+02 -0.17706363101E+01 -0.54675327139E+01  0.27074687672E+02  0.51100000000E-03 0.  1.
         12    1    3    3    0    0  0.17356246143E+02  0.29111873629E+02  0.63370392908E+01  0.34480407964E+02  0.00000000000E+00 0. -1.
</event>
<event>
 7    1  0.2941727E-013  0.7246165E+02  0.7816164E-02  0.1226708E+00
        -11   -1    0    0    0    0  0.00000000000E+00  0.00000000000E+00  0.45593999997E+02  0.45594000000E+02  0.51100000000E-03 0.  1.
         11   -1    0    0    0    0 -0.00000000000E+00 -0.00000000000E+00 -0.45593999997E+02  0.45594000000E+02  0.51100000000E-03 0. -1.
    9900012    2    1    2    0    0  0.14279406780E+02  0.10900348554E+02 -0.52874509550E+01  0.72461649737E+02  0.70000103488E+02 0.  0.
         12    1    1    2    0    0 -0.14279406780E+02 -0.10900348554E+02  0.52874509550E+01  0.18726350263E+02  0.00000000000E+00 0. -1.
         11    1    3    3    0    0  0.14849661660E+02  0.19964004375E+02 -0.17633466306E+02  0.30496115430E+02  0.51100000000E-03 0. -1.
        -11    1    3    3    0    0  0.57978922662E+01  0.80443314237E+01  0.19881091756E+02  0.22216764671E+02  0.51100000000E-03 0.  1.
         12    1    3    3    0    0 -0.63681471459E+01 -0.17107987246E+02 -0.75350764053E+01  0.19748769635E+02  0.00000000000E+00 0. -1.
</event>
<event>
 7    1  0.2941727E-013  0.7246156E+02  0.7816164E-02  0.1226708E+00
        -11   -1    0    0    0    0  0.00000000000E+00  0.00000000000E+00  0.45593999997E+02  0.45594000000E+02  0.51100000000E-03 0. -1.
         11   -1    0    0    0    0 -0.00000000000E+00 -0.00000000000E+00 -0.45593999997E+02  0.45594000000E+02  0.51100000000E-03 0.  1.
    9900012    2    1    2    0    0 -0.13115015364E+01 -0.16930793801E+02 -0.78935285465E+01  0.72461558589E+02  0.69999984752E+02 0.  0.
         12    1    1    2    0    0  0.13115015364E+01  0.16930793801E+02  0.78935285465E+01  0.18726441411E+02  0.00000000000E+00 0. -1.
         11    1    3    3    0    0  0.10294547967E+02 -0.20111943884E+02  0.68060839556E+01  0.23596414636E+02  0.51100000000E-03 0. -1.
        -11    1    3    3    0    0  0.17175703851E+00 -0.18590671600E+02 -0.15340642400E+02  0.24103482747E+02  0.51100000000E-03 0.  1.
         12    1    3    3    0    0 -0.11777806541E+02  0.21771821683E+02  0.64102989803E+00  0.24761661206E+02  0.00000000000E+00 0. -1.
</event>
<event>
 7    1  0.2941727E-013  0.7246149E+02  0.7816164E-02  0.1226708E+00
        -11   -1    0    0    0    0  0.00000000000E+00  0.00000000000E+00  0.45593999997E+02  0.45594000000E+02  0.51100000000E-03 0.  1.
         11   -1    0    0    0    0 -0.00000000000E+00 -0.00000000000E+00 -0.45593999997E+02  0.45594000000E+02  0.51100000000E-03 0. -1.
    9900012    2    1    2    0    0 -0.53878932366E+01 -0.16948808386E+02  0.58643681971E+01  0.72461486347E+02  0.69999890643E+02 0.  0.
         12    1    1    2    0    0  0.53878932366E+01  0.16948808386E+02 -0.58643681971E+01  0.18726513653E+02  0.00000000000E+00 0. -1.
         11    1    3    3    0    0 -0.62256601959E+01 -0.16217336487E+02 -0.42789036586E-01  0.17371317704E+02  0.51100000000E-03 0. -1.
        -11    1    3    3    0    0 -0.49575176583E+01 -0.23948426372E+02 -0.99294506933E+01  0.26395039276E+02  0.51100000000E-03 0.  1.
        -12    1    3    3    0    0  0.57952846177E+01  0.23216954473E+02  0.15836607927E+02  0.28695129368E+02  0.00000000000E+00 0.  1.
</event>
<event>
 7    1  0.2941727E-013  0.7246185E+02  0.7816164E-02  0.1226707E+00
        -11   -1    0    0    0    0  0.00000000000E+00  0.00000000000E+00  0.45593999997E+02  0.45594000000E+02  0.51100000000E-03 0.  1.
         11   -1    0    0    0    0 -0.00000000000E+00 -0.00000000000E+00 -0.45593999997E+02  0.45594000000E+02  0.51100000000E-03 0. -1.
    9900012    2    1    2    0    0  0.50845389224E+01  0.16911774966E+02  0.62296204708E+01  0.72461846103E+02  0.70000359292E+02 0.  0.
         12    1    1    2    0    0 -0.50845389224E+01 -0.16911774966E+02 -0.62296204708E+01  0.18726153897E+02  0.00000000000E+00 0. -1.
         11    1    3    3    0    0  0.25446057353E+02  0.16080801396E+02 -0.17336974944E+02  0.34737079739E+02  0.51100000000E-03 0. -1.
        -11    1    3    3    0    0  0.37011432667E+01  0.53328745184E+00  0.86204810644E+01  0.93965712379E+01  0.51100000000E-03 0.  1.
        -12    1    3    3    0    0 -0.24062661697E+02  0.29768611824E+00  0.14946114350E+02  0.28328195127E+02  0.00000000000E+00 0.  1.
</event>
<event>
 7    1  0.2941727E-013  0.7246157E+02  0.7816164E-02  0.1226708E+00
        -11   -1    0    0    0    0  0.00000000000E+00  0.00000000000E+00  0.45593999997E+02  0.45594000000E+02  0.51100000000E-03 0.  1.
         11   -1    0    0    0    0 -0.00000000000E+00 -0.00000000000E+00 -0.45593999997E+02  0.45594000000E+02  0.51100000000E-03 0. -1.
    9900012    2    1    2    0    0 -0.80217548524E+00 -0.93147339618E+01  0.16225637894E+02  0.72461572701E+02  0.70000003136E+02 0.  0.
         12    1    1    2    0    0  0.80217548524E+00  0.93147339618E+01 -0.16225637894E+02  0.18726427299E+02  0.00000000000E+00 0. -1.
         11    1    3    3    0    0  0.26259337884E+01 -0.29487132602E+02 -0.14422798738E+01  0.29638938727E+02  0.51100000000E-03 0. -1.
        -11    1    3    3    0    0  0.37153650312E+01 -0.66982235578E+01  0.12323110667E+02  0.14509624148E+02  0.51100000000E-03 0.  1.
        -12    1    3    3    0    0 -0.71434743049E+01  0.26870622198E+02  0.53448071008E+01  0.28313009826E+02  0.00000000000E+00 0.  1.
</event>
<event>
 7    1  0.2941727E-013  0.7246157E+02  0.7816164E-02  0.1226708E+00
        -11   -1    0    0    0    0  0.00000000000E+00  0.00000000000E+00  0.45593999997E+02  0.45594000000E+02  0.51100000000E-03 0. -1.
         11   -1    0    0    0    0 -0.00000000000E+00 -0.00000000000E+00 -0.45593999997E+02  0.45594000000E+02  0.51100000000E-03 0.  1.
    9900012    2    1    2    0    0 -0.10640298363E+02 -0.12659071113E+02 -0.87869873075E+01  0.72461570105E+02  0.69999999753E+02 0.  0.
         12    1    1    2    0    0  0.10640298363E+02  0.12659071113E+02  0.87869873075E+01  0.18726429895E+02  0.00000000000E+00 0. -1.
         11    1    3    3    0    0  0.27560205837E+01 -0.59785735176E+01  0.19506321168E+01  0.68661456932E+01  0.51100000000E-03 0. -1.
        -11    1    3    3    0    0 -0.36785631396E+02 -0.13281412067E+02 -0.12935016033E+02  0.41193363831E+02  0.51100000000E-03 0.  1.
         12    1    3    3    0    0  0.23389312449E+02  0.66009144722E+01  0.21973966086E+01  0.24402060580E+02  0.00000000000E+00 0. -1.
</event>
<event>
 7    1  0.2941727E-013  0.7246153E+02  0.7816164E-02  0.1226708E+00
        -11   -1    0    0    0    0  0.00000000000E+00  0.00000000000E+00  0.45593999997E+02  0.45594000000E+02  0.51100000000E-03 0. -1.
         11   -1    0    0    0    0 -0.00000000000E+00 -0.00000000000E+00 -0.45593999997E+02  0.45594000000E+02  0.51100000000E-03 0.  1.
    9900012    2    1    2    0    0  0.79283453901E+01  0.16783515708E+02 -0.24770029662E+01  0.72461531998E+02  0.69999950112E+02 0.  0.
         12    1    1    2    0    0 -0.79283453901E+01 -0.16783515708E+02  0.24770029662E+01  0.18726468002E+02  0.00000000000E+00 0. -1.
         11    1    3    3    0    0 -0.16343917678E+02  0.27966876653E+02 -0.29643470729E+01  0.32527791020E+02  0.51100000000E-03 0. -1.
        -11    1    3    3    0    0 -0.35772529002E+01  0.18628958014E+01 -0.71829050479E+01  0.82377936529E+01  0.51100000000E-03 0.  1.
         12    1    3    3    0    0  0.27849515968E+02 -0.13046256746E+02  0.76702491546E+01  0.31695947325E+02  0.00000000000E+00 0. -1.
</event>
<event>
 7    1  0.2941727E-013  0.7246157E+02  0.7816164E-02  0.1226708E+00
        -11   -1    0    0    0    0  0.00000000000E+00  0.00000000000E+00  0.45593999997E+02  0.45594000000E+02  0.51100000000E-03 0. -1.
         11   -1    0    0    0    0 -0.00000000000E+00 -0.00000000000E+00 -0.45593999997E+02  0.45594000000E+02  0.51100000000E-03 0.  1.
    9900012    2    1    2    0    0  0.13982240928E+01  0.37854055422E+01 -0.18286465736E+02  0.72461570686E+02  0.70000000510E+02 0.  0.
         12    1    1    2    0    0 -0.13982240928E+01 -0.37854055422E+01  0.18286465736E+02  0.18726429314E+02  0.00000000000E+00 0. -1.
         11    1    3    3    0    0 -0.99604852341E+01 -0.91421774674E+01 -0.16134643404E+02  0.21050353749E+02  0.51100000000E-03 0. -1.
        -11    1    3    3    0    0 -0.18628364380E+02  0.26862726231E+01 -0.53389794265E+01  0.19563658187E+02  0.51100000000E-03 0.  1.
        -12    1    3    3    0    0  0.29987073707E+02  0.10241310386E+02  0.31871570939E+01  0.31847558749E+02  0.00000000000E+00 0.  1.
</event>
<event>
 7    1  0.2941727E-013  0.7246158E+02  0.7816164E-02  0.1226708E+00
        -11   -1    0    0    0    0  0.00000000000E+00  0.00000000000E+00  0.45593999997E+02  0.45594000000E+02  0.51100000000E-03 0. -1.
         11   -1    0    0    0    0 -0.00000000000E+00 -0.00000000000E+00 -0.45593999997E+02  0.45594000000E+02  0.51100000000E-03 0.  1.
    9900012    2    1    2    0    0  0.68697865763E+01  0.59498904552E+01 -0.16373258417E+02  0.72461581356E+02  0.70000014410E+02 0.  0.
         12    1    1    2    0    0 -0.68697865763E+01 -0.59498904552E+01  0.16373258417E+02  0.18726418644E+02  0.00000000000E+00 0. -1.
         11    1    3    3    0    0 -0.23115767608E+00  0.11863635388E+01  0.22903361448E+02  0.22935231810E+02  0.51100000000E-03 0.  1.
        -11    1    3    3    0    0  0.87239544048E+01  0.72370515000E+01 -0.12713197258E+01  0.11406075091E+02  0.51100000000E-03 0. -1.
        -12    1    3    3    0    0 -0.16230101524E+01 -0.24735245836E+01 -0.38005300139E+02  0.38120274455E+02  0.00000000000E+00 0.  1.
</event>
<event>
 7    1  0.2941727E-013  0.7246158E+02  0.7816164E-02  0.1226708E+00
        -11   -1    0    0    0    0  0.00000000000E+00  0.00000000000E+00  0.45593999997E+02  0.45594000000E+02  0.51100000000E-03 0.  1.
         11   -1    0    0    0    0 -0.00000000000E+00 -0.00000000000E+00 -0.45593999997E+02  0.45594000000E+02  0.51100000000E-03 0. -1.
    9900012    2    1    2    0    0  0.15638740632E+02  0.97247043037E+01  0.33968882065E+01  0.72461576641E+02  0.70000008267E+02 0.  0.
         12    1    1    2    0    0 -0.15638740632E+02 -0.97247043037E+01 -0.33968882065E+01  0.18726423359E+02  0.00000000000E+00 0. -1.
         11    1    3    3    0    0  0.81991659921E+01  0.83773465306E+01  0.11900785304E+02  0.16704339226E+02  0.51100000000E-03 0. -1.
        -11    1    3    3    0    0 -0.10820806546E+02 -0.21339297079E+02  0.36451592284E+01  0.24202120572E+02  0.51100000000E-03 0.  1.
         12    1    3    3    0    0  0.18260381185E+02  0.22686654852E+02 -0.12149056326E+02  0.31555116843E+02  0.00000000000E+00 0. -1.
</event>
<event>
 7    1  0.2941727E-013  0.7246157E+02  0.7816164E-02  0.1226708E+00
        -11   -1    0    0    0    0  0.00000000000E+00  0.00000000000E+00  0.45593999997E+02  0.45594000000E+02  0.51100000000E-03 0.  1.
         11   -1    0    0    0    0 -0.00000000000E+00 -0.00000000000E+00 -0.45593999997E+02  0.45594000000E+02  0.51100000000E-03 0. -1.
    9900012    2    1    2    0    0  0.17011301116E+02  0.52578987617E+01  0.58007915701E+01  0.72461573542E+02  0.70000004231E+02 0.  0.
         12    1    1    2    0    0 -0.17011301116E+02 -0.52578987617E+01 -0.58007915701E+01  0.18726426458E+02  0.00000000000E+00 0. -1.
         11    1    3    3    0    0 -0.85786807532E+01  0.17829451632E+02 -0.66765441602E+01  0.20882034172E+02  0.51100000000E-03 0. -1.
        -11    1    3    3    0    0  0.12221206834E+02 -0.61017752028E+00  0.26251048275E+02  0.28962868451E+02  0.51100000000E-03 0.  1.
         12    1    3    3    0    0  0.13368775035E+02 -0.11961375350E+02 -0.13773712545E+02  0.22616670919E+02  0.00000000000E+00 0. -1.
</event>
<event>
 7    1  0.2941727E-013  0.7246157E+02  0.7816164E-02  0.1226708E+00
        -11   -1    0    0    0    0  0.00000000000E+00  0.00000000000E+00  0.45593999997E+02  0.45594000000E+02  0.51100000000E-03 0.  1.
         11   -1    0    0    0    0 -0.00000000000E+00 -0.00000000000E+00 -0.45593999997E+02  0.45594000000E+02  0.51100000000E-03 0. -1.
    9900012    2    1    2    0    0  0.61054806775E+01 -0.14488433891E+02  0.10172880693E+02  0.72461571817E+02  0.70000001983E+02 0.  0.
         12    1    1    2    0    0 -0.61054806775E+01  0.14488433891E+02 -0.10172880693E+02  0.18726428183E+02  0.00000000000E+00 0. -1.
         11    1    3    3    0    0 -0.11728119208E+02  0.32569606237E+01 -0.88925436434E+01  0.15074279597E+02  0.51100000000E-03 0. -1.
        -11    1    3    3    0    0 -0.13693847708E+02 -0.13062883734E+02  0.17012941610E+02  0.25447997544E+02  0.51100000000E-03 0.  1.
         12    1    3    3    0    0  0.31527447594E+02 -0.46825107799E+01  0.20524827265E+01  0.31939294675E+02  0.00000000000E+00 0. -1.
</event>
<event>
 7    1  0.2941727E-013  0.7246163E+02  0.7816164E-02  0.1226708E+00
        -11   -1    0    0    0    0  0.00000000000E+00  0.00000000000E+00  0.45593999997E+02  0.45594000000E+02  0.51100000000E-03 0.  1.
         11   -1    0    0    0    0 -0.00000000000E+00 -0.00000000000E+00 -0.45593999997E+02  0.45594000000E+02  0.51100000000E-03 0. -1.
    9900012    2    1    2    0    0 -0.17390720895E+02  0.21117615513E+01 -0.66166705707E+01  0.72461627166E+02  0.70000074085E+02 0.  0.
         12    1    1    2    0    0  0.17390720895E+02 -0.21117615513E+01  0.66166705707E+01  0.18726372834E+02  0.00000000000E+00 0. -1.
         11    1    3    3    0    0  0.11270077257E+02 -0.86999581080E+01 -0.35824765374E+01  0.14681214216E+02  0.51100000000E-03 0. -1.
        -11    1    3    3    0    0 -0.50541212936E+01  0.38586979789E+01  0.21865678947E+02  0.22771508694E+02  0.51100000000E-03 0.  1.
        -12    1    3    3    0    0 -0.23606676858E+02  0.69530216804E+01 -0.24899872980E+02  0.35008904256E+02  0.00000000000E+00 0.  1.
</event>
<event>
 7    1  0.2941727E-013  0.7246156E+02  0.7816164E-02  0.1226708E+00
        -11   -1    0    0    0    0  0.00000000000E+00  0.00000000000E+00  0.45593999997E+02  0.45594000000E+02  0.51100000000E-03 0.  1.
         11   -1    0    0    0    0 -0.00000000000E+00 -0.00000000000E+00 -0.45593999997E+02  0.45594000000E+02  0.51100000000E-03 0. -1.
    9900012    2    1    2    0    0 -0.88208498841E+01 -0.14554159228E+02  0.78133656425E+01  0.72461558102E+02  0.69999984117E+02 0.  0.
         12    1    1    2    0    0  0.88208498841E+01  0.14554159228E+02 -0.78133656425E+01  0.18726441898E+02  0.00000000000E+00 0. -1.
         11    1    3    3    0    0  0.14505897896E+02 -0.14745711031E+02  0.29061988584E+00  0.20686747636E+02  0.51100000000E-03 0. -1.
        -11    1    3    3    0    0  0.10673900105E+01  0.45613262131E+01  0.22390065535E+02  0.22874878211E+02  0.51100000000E-03 0.  1.
         12    1    3    3    0    0 -0.24394137791E+02 -0.43697744105E+01 -0.14867319778E+02  0.28899932255E+02  0.00000000000E+00 0. -1.
</event>
<event>
 7    1  0.2941727E-013  0.7246159E+02  0.7816164E-02  0.1226708E+00
        -11   -1    0    0    0    0  0.00000000000E+00  0.00000000000E+00  0.45593999997E+02  0.45594000000E+02  0.51100000000E-03 0. -1.
         11   -1    0    0    0    0 -0.00000000000E+00 -0.00000000000E+00 -0.45593999997E+02  0.45594000000E+02  0.51100000000E-03 0.  1.
    9900012    2    1    2    0    0 -0.17898639542E+02 -0.33562937084E+01 -0.43648885070E+01  0.72461594670E+02  0.70000031754E+02 0.  0.
         12    1    1    2    0    0  0.17898639542E+02  0.33562937084E+01  0.43648885070E+01  0.18726405330E+02  0.00000000000E+00 0. -1.
         11    1    3    3    0    0  0.16881801859E+02  0.15663426123E+01  0.42562640492E+01  0.17480401801E+02  0.51100000000E-03 0. -1.
        -11    1    3    3    0    0 -0.16848913288E+02 -0.12037108542E+02  0.14192947238E+02  0.25104135369E+02  0.51100000000E-03 0.  1.
         12    1    3    3    0    0 -0.17931528113E+02  0.71144722213E+01 -0.22814099795E+02  0.29877057501E+02  0.00000000000E+00 0. -1.
</event>
<event>
 7    1  0.2941727E-013  0.7246120E+02  0.7816164E-02  0.1226709E+00
        -11   -1    0    0    0    0  0.00000000000E+00  0.00000000000E+00  0.45593999997E+02  0.45594000000E+02  0.51100000000E-03 0.  1.
         11   -1    0    0    0    0 -0.00000000000E+00 -0.00000000000E+00 -0.45593999997E+02  0.45594000000E+02  0.51100000000E-03 0. -1.
    9900012    2    1    2    0    0 -0.14184512388E+01 -0.18374751927E+02 -0.33240804905E+01  0.72461200396E+02  0.69999518137E+02 0.  0.
         12    1    1    2    0    0  0.14184512388E+01  0.18374751927E+02  0.33240804905E+01  0.18726799604E+02  0.00000000000E+00 0. -1.
         11    1    3    3    0    0  0.60890678359E+01  0.43153337985E+01 -0.22629426434E+02  0.23828340141E+02  0.51100000000E-03 0. -1.
        -11    1    3    3    0    0  0.13010475422E+02  0.12017715398E+01  0.43651745250E+01  0.13775756764E+02  0.51100000000E-03 0.  1.
        -12    1    3    3    0    0 -0.20517994497E+02 -0.23891857265E+02  0.14940171418E+02  0.34857103491E+02  0.00000000000E+00 0.  1.
</event>
<event>
 7    1  0.2941727E-013  0.7246140E+02  0.7816164E-02  0.1226708E+00
        -11   -1    0    0    0    0  0.00000000000E+00  0.00000000000E+00  0.45593999997E+02  0.45594000000E+02  0.51100000000E-03 0.  1.
         11   -1    0    0    0    0 -0.00000000000E+00 -0.00000000000E+00 -0.45593999997E+02  0.45594000000E+02  0.51100000000E-03 0. -1.
    9900012    2    1    2    0    0  0.22022791136E+01 -0.18588803429E+02 -0.54031258166E+00  0.72461399030E+02  0.69999776896E+02 0.  0.
         12    1    1    2    0    0 -0.22022791136E+01  0.18588803429E+02  0.54031258166E+00  0.18726600970E+02  0.00000000000E+00 0. -1.
         11    1    3    3    0    0 -0.10385750605E+02 -0.62953554164E+01  0.78496242124E+00  0.12170106068E+02  0.51100000000E-03 0. -1.
        -11    1    3    3    0    0 -0.20502718111E+02  0.22700450912E+01 -0.10276300913E+02  0.23045973952E+02  0.51100000000E-03 0.  1.
        -12    1    3    3    0    0  0.33090747830E+02 -0.14563493104E+02  0.89510259103E+01  0.37245319010E+02  0.00000000000E+00 0.  1.
</event>
<event>
 7    1  0.2941727E-013  0.7246156E+02  0.7816164E-02  0.1226708E+00
        -11   -1    0    0    0    0  0.00000000000E+00  0.00000000000E+00  0.45593999997E+02  0.45594000000E+02  0.51100000000E-03 0.  1.
         11   -1    0    0    0    0 -0.00000000000E+00 -0.00000000000E+00 -0.45593999997E+02  0.45594000000E+02  0.51100000000E-03 0. -1.
    9900012    2    1    2    0    0  0.78365377928E+01  0.12653941160E+02 -0.11364236986E+02  0.72461563240E+02  0.69999990810E+02 0.  0.
         12    1    1    2    0    0 -0.78365377928E+01 -0.12653941160E+02  0.11364236986E+02  0.18726436760E+02  0.00000000000E+00 0. -1.
         11    1    3    3    0    0 -0.96100559254E+01 -0.57472386885E+00  0.22262480734E+01  0.98812784173E+01  0.51100000000E-03 0.  1.
        -11    1    3    3    0    0  0.21811227705E+02 -0.11024132794E+02  0.11851302285E+02  0.27160900647E+02  0.51100000000E-03 0. -1.
         12    1    3    3    0    0 -0.43646339871E+01  0.24252797823E+02 -0.25441787345E+02  0.35419384175E+02  0.00000000000E+00 0. -1.
</event>
<event>
 7    1  0.2941727E-013  0.7246158E+02  0.7816164E-02  0.1226708E+00
        -11   -1    0    0    0    0  0.00000000000E+00  0.00000000000E+00  0.45593999997E+02  0.45594000000E+02  0.51100000000E-03 0.  1.
         11   -1    0    0    0    0 -0.00000000000E+00 -0.00000000000E+00 -0.45593999997E+02  0.45594000000E+02  0.51100000000E-03 0. -1.
    9900012    2    1    2    0    0  0.12241600063E+02  0.12285480148E+02  0.70632267775E+01  0.72461575700E+02  0.70000007042E+02 0.  0.
         12    1    1    2    0    0 -0.12241600063E+02 -0.12285480148E+02 -0.70632267775E+01  0.18726424300E+02  0.00000000000E+00 0. -1.
         11    1    3    3    0    0  0.22822683619E+02  0.13613401532E+02 -0.99686860974E+01  0.28382640673E+02  0.51100000000E-03 0.  1.
        -11    1    3    3    0    0 -0.16610097036E+01  0.18420017533E+02  0.44524075623E+01  0.19023142026E+02  0.51100000000E-03 0. -1.
        -12    1    3    3    0    0 -0.89200738526E+01 -0.19747938917E+02  0.12579505313E+02  0.25055793001E+02  0.00000000000E+00 0.  1.
</event>
<event>
 7    1  0.2941727E-013  0.7246160E+02  0.7816164E-02  0.1226708E+00
        -11   -1    0    0    0    0  0.00000000000E+00  0.00000000000E+00  0.45593999997E+02  0.45594000000E+02  0.51100000000E-03 0.  1.
         11   -1    0    0    0    0 -0.00000000000E+00 -0.00000000000E+00 -0.45593999997E+02  0.45594000000E+02  0.51100000000E-03 0. -1.
    9900012    2    1    2    0    0  0.17750512700E+02  0.59465399408E+01 -0.48579430292E+00  0.72461600600E+02  0.70000039479E+02 0.  0.
         12    1    1    2    0    0 -0.17750512700E+02 -0.59465399408E+01  0.48579430292E+00  0.18726399400E+02  0.00000000000E+00 0. -1.
         11    1    3    3    0    0  0.20492261910E+02 -0.14808107869E+02 -0.32419412393E+01  0.25489665359E+02  0.51100000000E-03 0. -1.
        -11    1    3    3    0    0 -0.21721331496E+01  0.29024719842E+02  0.14562756221E+02  0.32545758454E+02  0.51100000000E-03 0.  1.
         12    1    3    3    0    0 -0.56961605983E+00 -0.82700720326E+01 -0.11806609285E+02  0.14426176787E+02  0.00000000000E+00 0. -1.
</event>
<event>
 7    1  0.2941727E-013  0.7246159E+02  0.7816164E-02  0.1226708E+00
        -11   -1    0    0    0    0  0.00000000000E+00  0.00000000000E+00  0.45593999997E+02  0.45594000000E+02  0.51100000000E-03 0.  1.
         11   -1    0    0    0    0 -0.00000000000E+00 -0.00000000000E+00 -0.45593999997E+02  0.45594000000E+02  0.51100000000E-03 0. -1.
    9900012    2    1    2    0    0  0.81729360601E+01 -0.34738917763E+01  0.16486775924E+02  0.72461585813E+02  0.70000020216E+02 0.  0.
         12    1    1    2    0    0 -0.81729360601E+01  0.34738917763E+01 -0.16486775924E+02  0.18726414187E+02  0.00000000000E+00 0. -1.
         11    1    3    3    0    0  0.60324214481E+00 -0.71405255793E+00 -0.11089423990E+02  0.11128750911E+02  0.51100000000E-03 0. -1.
        -11    1    3    3    0    0 -0.42733951097E+01  0.36004563855E+01 -0.15358166703E+02  0.16343147698E+02  0.51100000000E-03 0.  1.
        -12    1    3    3    0    0  0.11843089025E+02 -0.63602956038E+01  0.42934366618E+02  0.44989687204E+02  0.00000000000E+00 0.  1.
</event>
<event>
 7    1  0.2941727E-013  0.7246122E+02  0.7816164E-02  0.1226709E+00
        -11   -1    0    0    0    0  0.00000000000E+00  0.00000000000E+00  0.45593999997E+02  0.45594000000E+02  0.51100000000E-03 0.  1.
         11   -1    0    0    0    0 -0.00000000000E+00 -0.00000000000E+00 -0.45593999997E+02  0.45594000000E+02  0.51100000000E-03 0. -1.
    9900012    2    1    2    0    0  0.15508023948E+02  0.51429483228E+01  0.91511611043E+01  0.72461215071E+02  0.69999537254E+02 0.  0.
         12    1    1    2    0    0 -0.15508023948E+02 -0.51429483228E+01 -0.91511611043E+01  0.18726784929E+02  0.00000000000E+00 0. -1.
         11    1    3    3    0    0 -0.60363506025E+01  0.18634935421E+01  0.97511808352E+01  0.11618763476E+02  0.51100000000E-03 0. -1.
        -11    1    3    3    0    0 -0.16106910575E+02  0.68317241906E+01  0.11730680491E+02  0.21064517291E+02  0.51100000000E-03 0.  1.
         12    1    3    3    0    0  0.37651285125E+02 -0.35522694098E+01 -0.12330700222E+02  0.39777934304E+02  0.00000000000E+00 0. -1.
</event>
<event>
 7    1  0.2941727E-013  0.7246162E+02  0.7816164E-02  0.1226708E+00
        -11   -1    0    0    0    0  0.00000000000E+00  0.00000000000E+00  0.45593999997E+02  0.45594000000E+02  0.51100000000E-03 0.  1.
         11   -1    0    0    0    0 -0.00000000000E+00 -0.00000000000E+00 -0.45593999997E+02  0.45594000000E+02  0.51100000000E-03 0. -1.
    9900012    2    1    2    0    0  0.11223994982E+02  0.74018389336E+01  0.13035032034E+02  0.72461619061E+02  0.70000063527E+02 0.  0.
         12    1    1    2    0    0 -0.11223994982E+02 -0.74018389336E+01 -0.13035032034E+02  0.18726380939E+02  0.00000000000E+00 0. -1.
         11    1    3    3    0    0  0.64141180255E+01 -0.18727408899E+02 -0.18440481712E+02  0.27053800475E+02  0.51100000000E-03 0. -1.
        -11    1    3    3    0    0  0.30867070894E+01 -0.15397039289E+01  0.92619338393E+01  0.98834137599E+01  0.51100000000E-03 0.  1.
        -12    1    3    3    0    0  0.17231698674E+01  0.27668951761E+02  0.22213579907E+02  0.35524404826E+02  0.00000000000E+00 0.  1.
</event>
<event>
 7    1  0.2941727E-013  0.7246156E+02  0.7816164E-02  0.1226708E+00
        -11   -1    0    0    0    0  0.00000000000E+00  0.00000000000E+00  0.45593999997E+02  0.45594000000E+02  0.51100000000E-03 0.  1.
         11   -1    0    0    0    0 -0.00000000000E+00 -0.00000000000E+00 -0.45593999997E+02  0.45594000000E+02  0.51100000000E-03 0. -1.
    9900012    2    1    2    0    0  0.51337849724E+01  0.79586102803E+01  0.16155008049E+02  0.72461561182E+02  0.69999988130E+02 0.  0.
         12    1    1    2    0    0 -0.51337849724E+01 -0.79586102803E+01 -0.16155008049E+02  0.18726438818E+02  0.00000000000E+00 0. -1.
         11    1    3    3    0    0  0.62353706658E+00 -0.11473603024E+02  0.21473751056E+01  0.11689464698E+02  0.51100000000E-03 0. -1.
        -11    1    3    3    0    0 -0.21120738111E+02 -0.30249303449E+01  0.15950496605E+02  0.26639334154E+02  0.51100000000E-03 0.  1.
         12    1    3    3    0    0  0.25630986017E+02  0.22457143649E+02 -0.19428636618E+01  0.34132762330E+02  0.00000000000E+00 0. -1.
</event>
<event>
 7    1  0.2941727E-013  0.7246147E+02  0.7816164E-02  0.1226708E+00
        -11   -1    0    0    0    0  0.00000000000E+00  0.00000000000E+00  0.45593999997E+02  0.45594000000E+02  0.51100000000E-03 0.  1.
         11   -1    0    0    0    0 -0.00000000000E+00 -0.00000000000E+00 -0.45593999997E+02  0.45594000000E+02  0.51100000000E-03 0. -1.
    9900012    2    1    2    0    0  0.93541351472E+00  0.23170638219E+01  0.18559073118E+02  0.72461468602E+02  0.69999867527E+02 0.  0.
         12    1    1    2    0    0 -0.93541351472E+00 -0.23170638219E+01 -0.18559073118E+02  0.18726531398E+02  0.00000000000E+00 0. -1.
         11    1    3    3    0    0 -0.72657491081E+00 -0.19668935203E+02  0.17945376770E+02  0.26635154792E+02  0.51100000000E-03 0. -1.
        -11    1    3    3    0    0  0.14810594758E+01  0.39369373697E+01  0.19354747015E+02  0.19806545517E+02  0.51100000000E-03 0.  1.
         12    1    3    3    0    0  0.18092894978E+00  0.18049061655E+02 -0.18741050667E+02  0.26019768293E+02  0.00000000000E+00 0. -1.
</event>
<event>
 7    1  0.2941727E-013  0.7246154E+02  0.7816164E-02  0.1226708E+00
        -11   -1    0    0    0    0  0.00000000000E+00  0.00000000000E+00  0.45593999997E+02  0.45594000000E+02  0.51100000000E-03 0. -1.
         11   -1    0    0    0    0 -0.00000000000E+00 -0.00000000000E+00 -0.45593999997E+02  0.45594000000E+02  0.51100000000E-03 0.  1.
    9900012    2    1    2    0    0 -0.11214839824E+02  0.14456621247E+01 -0.14927079017E+02  0.72461541199E+02  0.69999962097E+02 0.  0.
         12    1    1    2    0    0  0.11214839824E+02 -0.14456621247E+01  0.14927079017E+02  0.18726458801E+02  0.00000000000E+00 0. -1.
         11    1    3    3    0    0 -0.18285232628E+02 -0.48784044399E+01 -0.57249242827E+01  0.19771780912E+02  0.51100000000E-03 0. -1.
        -11    1    3    3    0    0 -0.18997761619E+01  0.28041851326E+02 -0.77130847939E+01  0.29145261237E+02  0.51100000000E-03 0.  1.
         12    1    3    3    0    0  0.89701689654E+01 -0.21717784761E+02 -0.14890699403E+01  0.23544499050E+02  0.00000000000E+00 0. -1.
</event>
<event>
 7    1  0.2941727E-013  0.7246154E+02  0.7816164E-02  0.1226708E+00
        -11   -1    0    0    0    0  0.00000000000E+00  0.00000000000E+00  0.45593999997E+02  0.45594000000E+02  0.51100000000E-03 0.  1.
         11   -1    0    0    0    0 -0.00000000000E+00 -0.00000000000E+00 -0.45593999997E+02  0.45594000000E+02  0.51100000000E-03 0. -1.
    9900012    2    1    2    0    0 -0.74961213563E+01 -0.76870292770E+01  0.15342690217E+02  0.72461537504E+02  0.69999957285E+02 0.  0.
         12    1    1    2    0    0  0.74961213563E+01  0.76870292770E+01 -0.15342690217E+02  0.18726462496E+02  0.00000000000E+00 0. -1.
         11    1    3    3    0    0 -0.26486569098E+02  0.11488839529E+02  0.76261619392E+01  0.29861180862E+02  0.51100000000E-03 0. -1.
        -11    1    3    3    0    0  0.16568740232E+01  0.58193483910E+01 -0.66244728604E+01  0.89718274707E+01  0.51100000000E-03 0.  1.
        -12    1    3    3    0    0  0.17333573718E+02 -0.24995217197E+02  0.14341001138E+02  0.33628529172E+02  0.00000000000E+00 0.  1.
</event>
<event>
 7    1  0.2941727E-013  0.7246152E+02  0.7816164E-02  0.1226708E+00
        -11   -1    0    0    0    0  0.00000000000E+00  0.00000000000E+00  0.45593999997E+02  0.45594000000E+02  0.51100000000E-03 0. -1.
         11   -1    0    0    0    0 -0.00000000000E+00 -0.00000000000E+00 -0.45593999997E+02  0.45594000000E+02  0.51100000000E-03 0.  1.
    9900012    2    1    2    0    0  0.96843103328E+01  0.10428822019E+02 -0.12171065995E+02  0.72461520278E+02  0.69999934844E+02 0.  0.
         12    1    1    2    0    0 -0.96843103328E+01 -0.10428822019E+02  0.12171065995E+02  0.18726479722E+02  0.00000000000E+00 0. -1.
         11    1    3    3    0    0 -0.41106370906E+01  0.68273942562E+01  0.11739855334E+01  0.80553641702E+01  0.51100000000E-03 0. -1.
        -11    1    3    3    0    0  0.13840265804E+02  0.31336925508E+02 -0.13079973710E+02  0.36669354649E+02  0.51100000000E-03 0.  1.
         12    1    3    3    0    0 -0.45318380936E-01 -0.27735497745E+02 -0.26507781796E+00  0.27736801459E+02  0.00000000000E+00 0. -1.
</event>
<event>
 7    1  0.2941727E-013  0.7246157E+02  0.7816164E-02  0.1226708E+00
        -11   -1    0    0    0    0  0.00000000000E+00  0.00000000000E+00  0.45593999997E+02  0.45594000000E+02  0.51100000000E-03 0. -1.
         11   -1    0    0    0    0 -0.00000000000E+00 -0.00000000000E+00 -0.45593999997E+02  0.45594000000E+02  0.51100000000E-03 0.  1.
    9900012    2    1    2    0    0 -0.14970568004E+01  0.13916874539E+02  0.12440206114E+02  0.72461566700E+02  0.69999995317E+02 0.  0.
         12    1    1    2    0    0  0.14970568004E+01 -0.13916874539E+02 -0.12440206114E+02  0.18726433300E+02  0.00000000000E+00 0. -1.
         11    1    3    3    0    0  0.22256754810E+02  0.82281854181E+01  0.18577380208E+02  0.30136111654E+02  0.51100000000E-03 0. -1.
        -11    1    3    3    0    0  0.85055468059E+01  0.36184079745E+01  0.75206595579E+00  0.92737697945E+01  0.51100000000E-03 0.  1.
         12    1    3    3    0    0 -0.32259358417E+02  0.20702811460E+01 -0.68892400502E+01  0.33051685251E+02  0.00000000000E+00 0. -1.
</event>
<event>
 7    1  0.2941727E-013  0.7246160E+02  0.7816164E-02  0.1226708E+00
        -11   -1    0    0    0    0  0.00000000000E+00  0.00000000000E+00  0.45593999997E+02  0.45594000000E+02  0.51100000000E-03 0.  1.
         11   -1    0    0    0    0 -0.00000000000E+00 -0.00000000000E+00 -0.45593999997E+02  0.45594000000E+02  0.51100000000E-03 0. -1.
    9900012    2    1    2    0    0 -0.11725963124E+02  0.12211316954E+02  0.80039682713E+01  0.72461602028E+02  0.70000041339E+02 0.  0.
         12    1    1    2    0    0  0.11725963124E+02 -0.12211316954E+02 -0.80039682713E+01  0.18726397972E+02  0.00000000000E+00 0. -1.
         11    1    3    3    0    0  0.60437568620E+01 -0.95677309924E+01 -0.31368840540E+01  0.11743445626E+02  0.51100000000E-03 0. -1.
        -11    1    3    3    0    0 -0.75994133330E+01  0.10636816483E+02  0.32234856828E+02  0.34784751586E+02  0.51100000000E-03 0.  1.
         12    1    3    3    0    0 -0.10170306653E+02  0.11142231463E+02 -0.21094004503E+02  0.25933404816E+02  0.00000000000E+00 0. -1.
</event>
<event>
 7    1  0.2941727E-013  0.7246160E+02  0.7816164E-02  0.1226708E+00
        -11   -1    0    0    0    0  0.00000000000E+00  0.00000000000E+00  0.45593999997E+02  0.45594000000E+02  0.51100000000E-03 0. -1.
         11   -1    0    0    0    0 -0.00000000000E+00 -0.00000000000E+00 -0.45593999997E+02  0.45594000000E+02  0.51100000000E-03 0.  1.
    9900012    2    1    2    0    0  0.91817446447E+01 -0.13440093872E+02 -0.92594492808E+01  0.72461602616E+02  0.70000042105E+02 0.  0.
         12    1    1    2    0    0 -0.91817446447E+01  0.13440093872E+02  0.92594492808E+01  0.18726397384E+02  0.00000000000E+00 0. -1.
         11    1    3    3    0    0 -0.72836756483E+01 -0.77677176459E+00 -0.51800936392E+01  0.89715481215E+01  0.51100000000E-03 0. -1.
        -11    1    3    3    0    0  0.12652662076E+02 -0.12779106623E+02 -0.31248936694E+02  0.36054007661E+02  0.51100000000E-03 0.  1.
        -12    1    3    3    0    0  0.38127582172E+01  0.11578451522E+00  0.27169581052E+02  0.27436046833E+02  0.00000000000E+00 0.  1.
</event>
<event>
 7    1  0.2941727E-013  0.7246156E+02  0.7816164E-02  0.1226708E+00
        -11   -1    0    0    0    0  0.00000000000E+00  0.00000000000E+00  0.45593999997E+02  0.45594000000E+02  0.51100000000E-03 0.  1.
         11   -1    0    0    0    0 -0.00000000000E+00 -0.00000000000E+00 -0.45593999997E+02  0.45594000000E+02  0.51100000000E-03 0. -1.
    9900012    2    1    2    0    0 -0.70467161668E+01  0.17137057755E+02  0.27100715874E+01  0.72461562933E+02  0.69999990410E+02 0.  0.
         12    1    1    2    0    0  0.70467161668E+01 -0.17137057755E+02 -0.27100715874E+01  0.18726437067E+02  0.00000000000E+00 0. -1.
         11    1    3    3    0    0  0.50965540942E+01  0.14603779166E+02  0.14532598732E+02  0.21223610808E+02  0.51100000000E-03 0. -1.
        -11    1    3    3    0    0  0.17472826210E+02  0.85982462095E+01 -0.26954814492E+01  0.19659478989E+02  0.51100000000E-03 0.  1.
         12    1    3    3    0    0 -0.29616096471E+02 -0.60649676206E+01 -0.91270456957E+01  0.31578473135E+02  0.00000000000E+00 0. -1.
</event>
<event>
 7    1  0.2941727E-013  0.7246147E+02  0.7816164E-02  0.1226708E+00
        -11   -1    0    0    0    0  0.00000000000E+00  0.00000000000E+00  0.45593999997E+02  0.45594000000E+02  0.51100000000E-03 0.  1.
         11   -1    0    0    0    0 -0.00000000000E+00 -0.00000000000E+00 -0.45593999997E+02  0.45594000000E+02  0.51100000000E-03 0. -1.
    9900012    2    1    2    0    0 -0.62618312132E+01 -0.15839802120E+02 -0.77828657721E+01  0.72461471732E+02  0.69999871604E+02 0.  0.
         12    1    1    2    0    0  0.62618312132E+01  0.15839802120E+02  0.77828657721E+01  0.18726528268E+02  0.00000000000E+00 0. -1.
         11    1    3    3    0    0 -0.19101778623E+02  0.11014771587E+02  0.66532470434E+01  0.23031909086E+02  0.51100000000E-03 0. -1.
        -11    1    3    3    0    0 -0.12803269669E+02 -0.99726819956E+01 -0.78586415178E+01  0.18031537571E+02  0.51100000000E-03 0.  1.
         12    1    3    3    0    0  0.25643217079E+02 -0.16881891712E+02 -0.65774712977E+01  0.31398025075E+02  0.00000000000E+00 0. -1.
</event>
<event>
 7    1  0.2941727E-013  0.7246178E+02  0.7816164E-02  0.1226707E+00
        -11   -1    0    0    0    0  0.00000000000E+00  0.00000000000E+00  0.45593999997E+02  0.45594000000E+02  0.51100000000E-03 0.  1.
         11   -1    0    0    0    0 -0.00000000000E+00 -0.00000000000E+00 -0.45593999997E+02  0.45594000000E+02  0.51100000000E-03 0. -1.
    9900012    2    1    2    0    0  0.17348199997E+02 -0.21343045549E+01 -0.67198217492E+01  0.72461780322E+02  0.70000273600E+02 0.  0.
         12    1    1    2    0    0 -0.17348199997E+02  0.21343045549E+01  0.67198217492E+01  0.18726219678E+02  0.00000000000E+00 0. -1.
         11    1    3    3    0    0  0.14558411308E+01 -0.13152961505E+02 -0.13261685988E+02  0.18734785434E+02  0.51100000000E-03 0. -1.
        -11    1    3    3    0    0 -0.61445929946E+01 -0.16666497149E+02  0.42703264395E+01  0.18269204648E+02  0.51100000000E-03 0.  1.
        -12    1    3    3    0    0  0.22036951861E+02  0.27685154099E+02  0.22715377994E+01  0.35457790241E+02  0.00000000000E+00 0.  1.
</event>
<event>
 7    1  0.2941727E-013  0.7246157E+02  0.7816164E-02  0.1226708E+00
        -11   -1    0    0    0    0  0.00000000000E+00  0.00000000000E+00  0.45593999997E+02  0.45594000000E+02  0.51100000000E-03 0. -1.
         11   -1    0    0    0    0 -0.00000000000E+00 -0.00000000000E+00 -0.45593999997E+02  0.45594000000E+02  0.51100000000E-03 0.  1.
    9900012    2    1    2    0    0 -0.75352577105E+01 -0.15681739606E+02  0.69269073710E+01  0.72461571842E+02  0.70000002016E+02 0.  0.
         12    1    1    2    0    0  0.75352577105E+01  0.15681739606E+02 -0.69269073710E+01  0.18726428158E+02  0.00000000000E+00 0. -1.
         11    1    3    3    0    0 -0.20987025512E+02  0.28922596135E+01  0.13515923650E+01  0.21228452786E+02  0.51100000000E-03 0. -1.
        -11    1    3    3    0    0  0.13498596012E+02 -0.27202473142E+02 -0.11201377348E+02  0.32367537659E+02  0.51100000000E-03 0.  1.
         12    1    3    3    0    0 -0.46828210274E-01  0.86284739224E+01  0.16776692354E+02  0.18865581397E+02  0.00000000000E+00 0. -1.
</event>
<event>
 7    1  0.2941727E-013  0.7246163E+02  0.7816164E-02  0.1226708E+00
        -11   -1    0    0    0    0  0.00000000000E+00  0.00000000000E+00  0.45593999997E+02  0.45594000000E+02  0.51100000000E-03 0. -1.
         11   -1    0    0    0    0 -0.00000000000E+00 -0.00000000000E+00 -0.45593999997E+02  0.45594000000E+02  0.51100000000E-03 0.  1.
    9900012    2    1    2    0    0 -0.78006697478E+01 -0.10679954894E+02 -0.13257635548E+02  0.72461633952E+02  0.70000082926E+02 0.  0.
         12    1    1    2    0    0  0.78006697478E+01  0.10679954894E+02  0.13257635548E+02  0.18726366048E+02  0.00000000000E+00 0. -1.
         11    1    3    3    0    0 -0.13009945433E+01 -0.16795637036E+02 -0.43452887402E+01  0.17397343037E+02  0.51100000000E-03 0. -1.
        -11    1    3    3    0    0  0.10385905542E+02 -0.18134961738E+02 -0.13896118800E+02  0.25096732639E+02  0.51100000000E-03 0.  1.
         12    1    3    3    0    0 -0.16885580747E+02  0.24250643880E+02  0.49837719930E+01  0.29967558276E+02  0.00000000000E+00 0. -1.
</event>
<event>
 7    1  0.2941727E-013  0.7246157E+02  0.7816164E-02  0.1226708E+00
        -11   -1    0    0    0    0  0.00000000000E+00  0.00000000000E+00  0.45593999997E+02  0.45594000000E+02  0.51100000000E-03 0. -1.
         11   -1    0    0    0    0 -0.00000000000E+00 -0.00000000000E+00 -0.45593999997E+02  0.45594000000E+02  0.51100000000E-03 0.  1.
    9900012    2    1    2    0    0  0.10245670015E+02  0.15517129148E+02 -0.22190077660E+01  0.72461573578E+02  0.70000004278E+02 0.  0.
         12    1    1    2    0    0 -0.10245670015E+02 -0.15517129148E+02  0.22190077660E+01  0.18726426422E+02  0.00000000000E+00 0. -1.
         11    1    3    3    0    0  0.78383205150E+01 -0.20087927791E+01 -0.88703468792E-01  0.80921187270E+01  0.51100000000E-03 0. -1.
        -11    1    3    3    0    0  0.25919021421E+02 -0.46055954713E+01 -0.14184668402E+02  0.29903377719E+02  0.51100000000E-03 0.  1.
        -12    1    3    3    0    0 -0.23511671922E+02  0.22131517399E+02  0.12054364105E+02  0.34466077132E+02  0.00000000000E+00 0.  1.
</event>
<event>
 7    1  0.2941727E-013  0.7246153E+02  0.7816164E-02  0.1226708E+00
        -11   -1    0    0    0    0  0.00000000000E+00  0.00000000000E+00  0.45593999997E+02  0.45594000000E+02  0.51100000000E-03 0.  1.
         11   -1    0    0    0    0 -0.00000000000E+00 -0.00000000000E+00 -0.45593999997E+02  0.45594000000E+02  0.51100000000E-03 0. -1.
    9900012    2    1    2    0    0 -0.17732274832E+02  0.40163900208E+01 -0.44850580764E+01  0.72461529285E+02  0.69999946577E+02 0.  0.
         12    1    1    2    0    0  0.17732274832E+02 -0.40163900208E+01  0.44850580764E+01  0.18726470715E+02  0.00000000000E+00 0. -1.
         11    1    3    3    0    0 -0.52507584538E+01 -0.13453548043E+02  0.61942124231E+01  0.15714219264E+02  0.51100000000E-03 0. -1.
        -11    1    3    3    0    0 -0.23998749669E+02  0.71905385097E+01  0.13196212955E+02  0.28315788288E+02  0.51100000000E-03 0.  1.
         12    1    3    3    0    0  0.11517233291E+02  0.10279399554E+02 -0.23875483455E+02  0.28431521733E+02  0.00000000000E+00 0. -1.
</event>
<event>
 7    1  0.2941727E-013  0.7246164E+02  0.7816164E-02  0.1226708E+00
        -11   -1    0    0    0    0  0.00000000000E+00  0.00000000000E+00  0.45593999997E+02  0.45594000000E+02  0.51100000000E-03 0.  1.
         11   -1    0    0    0    0 -0.00000000000E+00 -0.00000000000E+00 -0.45593999997E+02  0.45594000000E+02  0.51100000000E-03 0. -1.
    9900012    2    1    2    0    0  0.58128172515E+01  0.16712681418E+02 -0.61297701247E+01  0.72461637664E+02  0.70000087761E+02 0.  0.
         12    1    1    2    0    0 -0.58128172515E+01 -0.16712681418E+02  0.61297701247E+01  0.18726362336E+02  0.00000000000E+00 0. -1.
         11    1    3    3    0    0 -0.18736200968E+02  0.29303007117E+00  0.80426227324E+01  0.20391539275E+02  0.51100000000E-03 0. -1.
        -11    1    3    3    0    0  0.52562548579E+01  0.17768111835E+01  0.13915961953E+02  0.14981297356E+02  0.51100000000E-03 0.  1.
         12    1    3    3    0    0  0.19292763361E+02  0.14642840163E+02 -0.28088354810E+02  0.37088801033E+02  0.00000000000E+00 0. -1.
</event>
<event>
 7    1  0.2941727E-013  0.7246154E+02  0.7816164E-02  0.1226708E+00
        -11   -1    0    0    0    0  0.00000000000E+00  0.00000000000E+00  0.45593999997E+02  0.45594000000E+02  0.51100000000E-03 0.  1.
         11   -1    0    0    0    0 -0.00000000000E+00 -0.00000000000E+00 -0.45593999997E+02  0.45594000000E+02  0.51100000000E-03 0. -1.
    9900012    2    1    2    0    0  0.12793684992E+02 -0.48644063870E+01  0.12780431260E+02  0.72461541490E+02  0.69999962476E+02 0.  0.
         12    1    1    2    0    0 -0.12793684992E+02  0.48644063870E+01 -0.12780431260E+02  0.18726458510E+02  0.00000000000E+00 0. -1.
         11    1    3    3    0    0 -0.10675923649E+02 -0.69810477709E+01  0.10664020474E+02  0.16626235493E+02  0.51100000000E-03 0. -1.
        -11    1    3    3    0    0  0.55593874529E+01 -0.47403528175E+01  0.24960838804E+02  0.26008098888E+02  0.51100000000E-03 0.  1.
         12    1    3    3    0    0  0.17910221188E+02  0.68569942014E+01 -0.22844428018E+02  0.29827207109E+02  0.00000000000E+00 0. -1.
</event>
<event>
 7    1  0.2941727E-013  0.7246154E+02  0.7816164E-02  0.1226708E+00
        -11   -1    0    0    0    0  0.00000000000E+00  0.00000000000E+00  0.45593999997E+02  0.45594000000E+02  0.51100000000E-03 0.  1.
         11   -1    0    0    0    0 -0.00000000000E+00 -0.00000000000E+00 -0.45593999997E+02  0.45594000000E+02  0.51100000000E-03 0. -1.
    9900012    2    1    2    0    0  0.87697996242E+01  0.12081137202E+02  0.11305625366E+02  0.72461536734E+02  0.69999956281E+02 0.  0.
         12    1    1    2    0    0 -0.87697996242E+01 -0.12081137202E+02 -0.11305625366E+02  0.18726463266E+02  0.00000000000E+00 0. -1.
         11    1    3    3    0    0  0.14996547638E+02 -0.16398350719E+02 -0.89758574526E+00  0.22239784347E+02  0.51100000000E-03 0. -1.
        -11    1    3    3    0    0  0.13835163481E+02  0.62610589581E+01 -0.46324246723E+01  0.15876774434E+02  0.51100000000E-03 0.  1.
        -12    1    3    3    0    0 -0.20061911495E+02  0.22218428963E+02  0.16835635783E+02  0.34344977953E+02  0.00000000000E+00 0.  1.
</event>
<event>
 7    1  0.2941727E-013  0.7246160E+02  0.7816164E-02  0.1226708E+00
        -11   -1    0    0    0    0  0.00000000000E+00  0.00000000000E+00  0.45593999997E+02  0.45594000000E+02  0.51100000000E-03 0.  1.
         11   -1    0    0    0    0 -0.00000000000E+00 -0.00000000000E+00 -0.45593999997E+02  0.45594000000E+02  0.51100000000E-03 0. -1.
    9900012    2    1    2    0    0 -0.68124715559E+01  0.98471508206E+01  0.14397979680E+02  0.72461602406E+02  0.70000041831E+02 0.  0.
         12    1    1    2    0    0  0.68124715559E+01 -0.98471508206E+01 -0.14397979680E+02  0.18726397594E+02  0.00000000000E+00 0. -1.
         11    1    3    3    0    0 -0.25779194535E+02  0.13189968253E+02  0.23117531979E+01  0.29049721797E+02  0.51100000000E-03 0. -1.
        -11    1    3    3    0    0  0.19893068068E-01 -0.16122361563E+02 -0.24781126159E+01  0.16311712985E+02  0.51100000000E-03 0.  1.
         12    1    3    3    0    0  0.18946829911E+02  0.12779544131E+02  0.14564339098E+02  0.27100167624E+02  0.00000000000E+00 0. -1.
</event>
<event>
 7    1  0.2941727E-013  0.7246150E+02  0.7816164E-02  0.1226708E+00
        -11   -1    0    0    0    0  0.00000000000E+00  0.00000000000E+00  0.45593999997E+02  0.45594000000E+02  0.51100000000E-03 0.  1.
         11   -1    0    0    0    0 -0.00000000000E+00 -0.00000000000E+00 -0.45593999997E+02  0.45594000000E+02  0.51100000000E-03 0. -1.
    9900012    2    1    2    0    0 -0.16796652784E+02  0.78744085222E+01  0.25589158964E+01  0.72461497260E+02  0.69999904859E+02 0.  0.
         12    1    1    2    0    0  0.16796652784E+02 -0.78744085222E+01 -0.25589158964E+01  0.18726502740E+02  0.00000000000E+00 0. -1.
         11    1    3    3    0    0 -0.25001097161E+02  0.26878095997E+02  0.22394135097E+02  0.42999816170E+02  0.51100000000E-03 0.  1.
        -11    1    3    3    0    0  0.42064173959E+01 -0.73992092917E+01 -0.39394963182E+01  0.93787993343E+01  0.51100000000E-03 0. -1.
        -12    1    3    3    0    0  0.39980269816E+01 -0.11604478183E+02 -0.15895722882E+02  0.20082881755E+02  0.00000000000E+00 0.  1.
</event>
<event>
 7    1  0.2941727E-013  0.7246149E+02  0.7816164E-02  0.1226708E+00
        -11   -1    0    0    0    0  0.00000000000E+00  0.00000000000E+00  0.45593999997E+02  0.45594000000E+02  0.51100000000E-03 0. -1.
         11   -1    0    0    0    0 -0.00000000000E+00 -0.00000000000E+00 -0.45593999997E+02  0.45594000000E+02  0.51100000000E-03 0.  1.
    9900012    2    1    2    0    0 -0.13026848389E+01 -0.10903545901E+02 -0.15168972563E+02  0.72461493929E+02  0.69999900520E+02 0.  0.
         12    1    1    2    0    0  0.13026848389E+01  0.10903545901E+02  0.15168972563E+02  0.18726506071E+02  0.00000000000E+00 0. -1.
         11    1    3    3    0    0  0.58041105129E+01 -0.94227279548E+00  0.27759419828E+01  0.65024173213E+01  0.51100000000E-03 0. -1.
        -11    1    3    3    0    0  0.24523528089E+02 -0.17624077940E+02 -0.13616055258E+02  0.33127156748E+02  0.51100000000E-03 0.  1.
         12    1    3    3    0    0 -0.31630323441E+02  0.76628048348E+01 -0.43288592878E+01  0.32831919859E+02  0.00000000000E+00 0. -1.
</event>
<event>
 7    1  0.2941727E-013  0.7246174E+02  0.7816164E-02  0.1226708E+00
        -11   -1    0    0    0    0  0.00000000000E+00  0.00000000000E+00  0.45593999997E+02  0.45594000000E+02  0.51100000000E-03 0. -1.
         11   -1    0    0    0    0 -0.00000000000E+00 -0.00000000000E+00 -0.45593999997E+02  0.45594000000E+02  0.51100000000E-03 0.  1.
    9900012    2    1    2    0    0 -0.57138748456E+00 -0.11744406053E+02 -0.14574473316E+02  0.72461739572E+02  0.70000220515E+02 0.  0.
         12    1    1    2    0    0  0.57138748456E+00  0.11744406053E+02  0.14574473316E+02  0.18726260428E+02  0.00000000000E+00 0. -1.
         11    1    3    3    0    0 -0.94372792175E+01  0.16373545700E+02  0.10073044707E+02  0.21415449278E+02  0.51100000000E-03 0. -1.
        -11    1    3    3    0    0  0.13921236774E+02 -0.26937311883E+01 -0.20300747422E+02  0.24762418444E+02  0.51100000000E-03 0.  1.
         12    1    3    3    0    0 -0.50553450408E+01 -0.25424220564E+02 -0.43467706015E+01  0.26283871851E+02  0.00000000000E+00 0. -1.
</event>
<event>
 7    1  0.2941727E-013  0.7246154E+02  0.7816164E-02  0.1226708E+00
        -11   -1    0    0    0    0  0.00000000000E+00  0.00000000000E+00  0.45593999997E+02  0.45594000000E+02  0.51100000000E-03 0. -1.
         11   -1    0    0    0    0 -0.00000000000E+00 -0.00000000000E+00 -0.45593999997E+02  0.45594000000E+02  0.51100000000E-03 0.  1.
    9900012    2    1    2    0    0 -0.11935946399E+00 -0.10156772905E+02 -0.15732322781E+02  0.72461541109E+02  0.69999961980E+02 0.  0.
         12    1    1    2    0    0  0.11935946399E+00  0.10156772905E+02  0.15732322781E+02  0.18726458891E+02  0.00000000000E+00 0. -1.
         11    1    3    3    0    0 -0.22805676206E+02  0.66876397267E+01 -0.12260921412E+02  0.26742355664E+02  0.51100000000E-03 0. -1.
        -11    1    3    3    0    0 -0.23603843281E+01  0.91667835743E+01 -0.30343632504E+00  0.94706604384E+01  0.51100000000E-03 0.  1.
        -12    1    3    3    0    0  0.25046701070E+02 -0.26011196206E+02 -0.31679650433E+01  0.36248525006E+02  0.00000000000E+00 0.  1.
</event>
<event>
 7    1  0.2941727E-013  0.7246159E+02  0.7816164E-02  0.1226708E+00
        -11   -1    0    0    0    0  0.00000000000E+00  0.00000000000E+00  0.45593999997E+02  0.45594000000E+02  0.51100000000E-03 0. -1.
         11   -1    0    0    0    0 -0.00000000000E+00 -0.00000000000E+00 -0.45593999997E+02  0.45594000000E+02  0.51100000000E-03 0.  1.
    9900012    2    1    2    0    0  0.12414956019E+02  0.13764648105E+02 -0.26611602245E+01  0.72461589662E+02  0.70000025230E+02 0.  0.
         12    1    1    2    0    0 -0.12414956019E+02 -0.13764648105E+02  0.26611602245E+01  0.18726410338E+02  0.00000000000E+00 0. -1.
         11    1    3    3    0    0 -0.46038505934E+01  0.80438626177E+01 -0.10692811916E+02  0.14150455577E+02  0.51100000000E-03 0. -1.
        -11    1    3    3    0    0  0.34466581562E+01  0.15507601016E+02 -0.20075331991E+02  0.25600470631E+02  0.51100000000E-03 0.  1.
         12    1    3    3    0    0  0.13572148456E+02 -0.97868155295E+01  0.28106983682E+02  0.32710663454E+02  0.00000000000E+00 0. -1.
</event>
<event>
 7    1  0.2941727E-013  0.7246155E+02  0.7816164E-02  0.1226708E+00
        -11   -1    0    0    0    0  0.00000000000E+00  0.00000000000E+00  0.45593999997E+02  0.45594000000E+02  0.51100000000E-03 0.  1.
         11   -1    0    0    0    0 -0.00000000000E+00 -0.00000000000E+00 -0.45593999997E+02  0.45594000000E+02  0.51100000000E-03 0. -1.
    9900012    2    1    2    0    0  0.51684570242E+01 -0.89324201604E+01  0.15626225231E+02  0.72461548310E+02  0.69999971361E+02 0.  0.
         12    1    1    2    0    0 -0.51684570242E+01  0.89324201604E+01 -0.15626225231E+02  0.18726451690E+02  0.00000000000E+00 0. -1.
         11    1    3    3    0    0 -0.37534287943E+01  0.37585967107E+01  0.89079427073E+01  0.10371437725E+02  0.51100000000E-03 0. -1.
        -11    1    3    3    0    0  0.34423243523E+02 -0.35203500666E+01  0.29334909591E+01  0.34726904968E+02  0.51100000000E-03 0.  1.
         12    1    3    3    0    0 -0.25501357704E+02 -0.91706668044E+01  0.37847915647E+01  0.27363205616E+02  0.00000000000E+00 0. -1.
</event>
<event>
 7    1  0.2941727E-013  0.7246154E+02  0.7816164E-02  0.1226708E+00
        -11   -1    0    0    0    0  0.00000000000E+00  0.00000000000E+00  0.45593999997E+02  0.45594000000E+02  0.51100000000E-03 0.  1.
         11   -1    0    0    0    0 -0.00000000000E+00 -0.00000000000E+00 -0.45593999997E+02  0.45594000000E+02  0.51100000000E-03 0. -1.
    9900012    2    1    2    0    0 -0.82974030175E+01  0.13857344292E+02  0.94766689908E+01  0.72461544307E+02  0.69999966147E+02 0.  0.
         12    1    1    2    0    0  0.82974030175E+01 -0.13857344292E+02 -0.94766689908E+01  0.18726455693E+02  0.00000000000E+00 0. -1.
         11    1    3    3    0    0  0.95446154550E+01  0.25116324998E+02 -0.11839357809E+02  0.29361537071E+02  0.51100000000E-03 0. -1.
        -11    1    3    3    0    0  0.32428940844E+01  0.47125544792E+01 -0.36021965890E+01  0.67602035686E+01  0.51100000000E-03 0.  1.
        -12    1    3    3    0    0 -0.21084912557E+02 -0.15971535186E+02  0.24918223388E+02  0.36339803667E+02  0.00000000000E+00 0.  1.
</event>
<event>
 7    1  0.2941727E-013  0.7246156E+02  0.7816164E-02  0.1226708E+00
        -11   -1    0    0    0    0  0.00000000000E+00  0.00000000000E+00  0.45593999997E+02  0.45594000000E+02  0.51100000000E-03 0.  1.
         11   -1    0    0    0    0 -0.00000000000E+00 -0.00000000000E+00 -0.45593999997E+02  0.45594000000E+02  0.51100000000E-03 0. -1.
    9900012    2    1    2    0    0  0.16828387201E+02  0.63246385682E+01  0.52425228720E+01  0.72461555734E+02  0.69999981032E+02 0.  0.
         12    1    1    2    0    0 -0.16828387201E+02 -0.63246385682E+01 -0.52425228720E+01  0.18726444266E+02  0.00000000000E+00 0. -1.
         11    1    3    3    0    0  0.28344576203E+01  0.50747340276E+01  0.21732173592E+01  0.62056385170E+01  0.51100000000E-03 0. -1.
        -11    1    3    3    0    0 -0.96579387552E+01 -0.56653257472E+00  0.29320062268E+02  0.30874954118E+02  0.51100000000E-03 0.  1.
         12    1    3    3    0    0  0.23651868336E+02  0.18164371153E+01 -0.26250756755E+02  0.35380963098E+02  0.00000000000E+00 0. -1.
</event>
<event>
 7    1  0.2941727E-013  0.7246147E+02  0.7816164E-02  0.1226708E+00
        -11   -1    0    0    0    0  0.00000000000E+00  0.00000000000E+00  0.45593999997E+02  0.45594000000E+02  0.51100000000E-03 0. -1.
         11   -1    0    0    0    0 -0.00000000000E+00 -0.00000000000E+00 -0.45593999997E+02  0.45594000000E+02  0.51100000000E-03 0.  1.
    9900012    2    1    2    0    0  0.17454939445E+02 -0.53529066611E+01 -0.41658624841E+01  0.72461469863E+02  0.69999869169E+02 0.  0.
         12    1    1    2    0    0 -0.17454939445E+02  0.53529066611E+01  0.41658624841E+01  0.18726530137E+02  0.00000000000E+00 0. -1.
         11    1    3    3    0    0 -0.60931127838E+01  0.17208625901E+01 -0.11021504740E+01  0.64266731190E+01  0.51100000000E-03 0. -1.
        -11    1    3    3    0    0  0.10025350508E+02  0.23391681605E+02  0.13506395466E+02  0.28811475836E+02  0.51100000000E-03 0.  1.
        -12    1    3    3    0    0  0.13522701721E+02 -0.30465450856E+02 -0.16570107476E+02  0.37223320908E+02  0.00000000000E+00 0.  1.
</event>
<event>
 7    1  0.2941727E-013  0.7246166E+02  0.7816164E-02  0.1226708E+00
        -11   -1    0    0    0    0  0.00000000000E+00  0.00000000000E+00  0.45593999997E+02  0.45594000000E+02  0.51100000000E-03 0.  1.
         11   -1    0    0    0    0 -0.00000000000E+00 -0.00000000000E+00 -0.45593999997E+02  0.45594000000E+02  0.51100000000E-03 0. -1.
    9900012    2    1    2    0    0  0.59124279707E+01  0.15719035261E+02 -0.82843782069E+01  0.72461660360E+02  0.70000117327E+02 0.  0.
         12    1    1    2    0    0 -0.59124279707E+01 -0.15719035261E+02  0.82843782069E+01  0.18726339640E+02  0.00000000000E+00 0. -1.
         11    1    3    3    0    0 -0.13795580297E+02 -0.14773433489E+00  0.25653008801E+01  0.14032841125E+02  0.51100000000E-03 0. -1.
        -11    1    3    3    0    0 -0.12672533374E+02 -0.43023197860E+01  0.82960128020E+01  0.15745694215E+02  0.51100000000E-03 0.  1.
        -12    1    3    3    0    0  0.32380541642E+02  0.20169089382E+02 -0.19145691889E+02  0.42683125019E+02  0.00000000000E+00 0.  1.
</event>
<event>
 7    1  0.2941727E-013  0.7246151E+02  0.7816164E-02  0.1226708E+00
        -11   -1    0    0    0    0  0.00000000000E+00  0.00000000000E+00  0.45593999997E+02  0.45594000000E+02  0.51100000000E-03 0.  1.
         11   -1    0    0    0    0 -0.00000000000E+00 -0.00000000000E+00 -0.45593999997E+02  0.45594000000E+02  0.51100000000E-03 0. -1.
    9900012    2    1    2    0    0 -0.62715652404E+01 -0.17234795133E+02 -0.37829301530E+01  0.72461514628E+02  0.69999927484E+02 0.  0.
         12    1    1    2    0    0  0.62715652404E+01  0.17234795133E+02  0.37829301530E+01  0.18726485372E+02  0.00000000000E+00 0. -1.
         11    1    3    3    0    0  0.34855493847E+01  0.55369659982E+01  0.35817800186E+01  0.74589674447E+01  0.51100000000E-03 0. -1.
        -11    1    3    3    0    0 -0.15221053103E+02 -0.37825136142E+02  0.93745086667E+01  0.41836620260E+02  0.51100000000E-03 0.  1.
         12    1    3    3    0    0  0.54639384779E+01  0.15053375011E+02 -0.16739218838E+02  0.23165926923E+02  0.00000000000E+00 0. -1.
</event>
<event>
 7    1  0.2941727E-013  0.7246161E+02  0.7816164E-02  0.1226708E+00
        -11   -1    0    0    0    0  0.00000000000E+00  0.00000000000E+00  0.45593999997E+02  0.45594000000E+02  0.51100000000E-03 0.  1.
         11   -1    0    0    0    0 -0.00000000000E+00 -0.00000000000E+00 -0.45593999997E+02  0.45594000000E+02  0.51100000000E-03 0. -1.
    9900012    2    1    2    0    0  0.72009445965E+01  0.95726881563E+01  0.14394010518E+02  0.72461614860E+02  0.70000058055E+02 0.  0.
         12    1    1    2    0    0 -0.72009445965E+01 -0.95726881563E+01 -0.14394010518E+02  0.18726385140E+02  0.00000000000E+00 0. -1.
         11    1    3    3    0    0  0.73165931185E+01 -0.18775490870E+02 -0.70585615282E+01  0.21351226742E+02  0.51100000000E-03 0. -1.
        -11    1    3    3    0    0 -0.66170995912E+01 -0.53571285652E+01  0.13360939375E+02  0.15842964833E+02  0.51100000000E-03 0.  1.
         12    1    3    3    0    0  0.65014510693E+01  0.33705307592E+02  0.80916326721E+01  0.35267423285E+02  0.00000000000E+00 0. -1.
</event>
<event>
 7    1  0.2941727E-013  0.7246153E+02  0.7816164E-02  0.1226708E+00
        -11   -1    0    0    0    0  0.00000000000E+00  0.00000000000E+00  0.45593999997E+02  0.45594000000E+02  0.51100000000E-03 0.  1.
         11   -1    0    0    0    0 -0.00000000000E+00 -0.00000000000E+00 -0.45593999997E+02  0.45594000000E+02  0.51100000000E-03 0. -1.
    9900012    2    1    2    0    0  0.16701572522E+02  0.83553336968E+01  0.13879538895E+01  0.72461533651E+02  0.69999952266E+02 0.  0.
         12    1    1    2    0    0 -0.16701572522E+02 -0.83553336968E+01 -0.13879538895E+01  0.18726466349E+02  0.00000000000E+00 0. -1.
         11    1    3    3    0    0 -0.11778104297E+02 -0.95857371743E+01  0.35941686984E+00  0.15190104633E+02  0.51100000000E-03 0. -1.
        -11    1    3    3    0    0  0.16523844370E+02  0.26198572299E+01 -0.21678442435E+02  0.27383497793E+02  0.51100000000E-03 0.  1.
        -12    1    3    3    0    0  0.11955832449E+02  0.15321213641E+02  0.22706979455E+02  0.29887931226E+02  0.00000000000E+00 0.  1.
</event>
<event>
 7    1  0.2941727E-013  0.7246164E+02  0.7816164E-02  0.1226708E+00
        -11   -1    0    0    0    0  0.00000000000E+00  0.00000000000E+00  0.45593999997E+02  0.45594000000E+02  0.51100000000E-03 0.  1.
         11   -1    0    0    0    0 -0.00000000000E+00 -0.00000000000E+00 -0.45593999997E+02  0.45594000000E+02  0.51100000000E-03 0. -1.
    9900012    2    1    2    0    0 -0.98262350261E+01  0.11954899026E+02  0.10545235465E+02  0.72461641664E+02  0.70000092973E+02 0.  0.
         12    1    1    2    0    0  0.98262350261E+01 -0.11954899026E+02 -0.10545235465E+02  0.18726358336E+02  0.00000000000E+00 0. -1.
         11    1    3    3    0    0 -0.27294897708E+01 -0.42434375398E+01 -0.56845975296E+01  0.76007582449E+01  0.51100000000E-03 0. -1.
        -11    1    3    3    0    0  0.14074547687E+02 -0.38925699104E+01 -0.15808672945E+02  0.21521132258E+02  0.51100000000E-03 0.  1.
         12    1    3    3    0    0 -0.21171292942E+02  0.20090906476E+02  0.32038505940E+02  0.43339751162E+02  0.00000000000E+00 0. -1.
</event>
<event>
 7    1  0.2941727E-013  0.7246161E+02  0.7816164E-02  0.1226708E+00
        -11   -1    0    0    0    0  0.00000000000E+00  0.00000000000E+00  0.45593999997E+02  0.45594000000E+02  0.51100000000E-03 0.  1.
         11   -1    0    0    0    0 -0.00000000000E+00 -0.00000000000E+00 -0.45593999997E+02  0.45594000000E+02  0.51100000000E-03 0. -1.
    9900012    2    1    2    0    0 -0.11283183706E+02 -0.98313828597E+01  0.11256609934E+02  0.72461612450E+02  0.70000054915E+02 0.  0.
         12    1    1    2    0    0  0.11283183706E+02  0.98313828597E+01 -0.11256609934E+02  0.18726387550E+02  0.00000000000E+00 0. -1.
         11    1    3    3    0    0 -0.17265586624E+02 -0.20094084349E+01 -0.19007468328E+02  0.25756980729E+02  0.51100000000E-03 0. -1.
        -11    1    3    3    0    0 -0.12105369980E+02 -0.49220924283E+01  0.22910158973E+01  0.13267092008E+02  0.51100000000E-03 0.  1.
        -12    1    3    3    0    0  0.18087772899E+02 -0.28998819965E+01  0.27973062365E+02  0.33437539714E+02  0.00000000000E+00 0.  1.
</event>
<event>
 7    1  0.2941727E-013  0.7246161E+02  0.7816164E-02  0.1226708E+00
        -11   -1    0    0    0    0  0.00000000000E+00  0.00000000000E+00  0.45593999997E+02  0.45594000000E+02  0.51100000000E-03 0. -1.
         11   -1    0    0    0    0 -0.00000000000E+00 -0.00000000000E+00 -0.45593999997E+02  0.45594000000E+02  0.51100000000E-03 0.  1.
    9900012    2    1    2    0    0  0.10398068056E+02 -0.46590291120E+01 -0.14861071397E+02  0.72461606470E+02  0.70000047126E+02 0.  0.
         12    1    1    2    0    0 -0.10398068056E+02  0.46590291120E+01  0.14861071397E+02  0.18726393530E+02  0.00000000000E+00 0. -1.
         11    1    3    3    0    0  0.11290352487E+02  0.13683430653E+02  0.24487604299E+01  0.17908231673E+02  0.51100000000E-03 0. -1.
        -11    1    3    3    0    0 -0.17354208565E+02  0.72902922975E+00 -0.22904850335E+02  0.28745994637E+02  0.51100000000E-03 0.  1.
         12    1    3    3    0    0  0.16461924133E+02 -0.19071488995E+02  0.55950185083E+01  0.25807380161E+02  0.00000000000E+00 0. -1.
</event>
<event>
 7    1  0.2941727E-013  0.7246175E+02  0.7816164E-02  0.1226708E+00
        -11   -1    0    0    0    0  0.00000000000E+00  0.00000000000E+00  0.45593999997E+02  0.45594000000E+02  0.51100000000E-03 0.  1.
         11   -1    0    0    0    0 -0.00000000000E+00 -0.00000000000E+00 -0.45593999997E+02  0.45594000000E+02  0.51100000000E-03 0. -1.
    9900012    2    1    2    0    0  0.31943006661E+01  0.60829966541E+01  0.17420280720E+02  0.72461746092E+02  0.70000229009E+02 0.  0.
         12    1    1    2    0    0 -0.31943006661E+01 -0.60829966541E+01 -0.17420280720E+02  0.18726253908E+02  0.00000000000E+00 0. -1.
         11    1    3    3    0    0  0.10004908802E+02  0.12002877101E+02 -0.57535852739E+01  0.16651456471E+02  0.51100000000E-03 0. -1.
        -11    1    3    3    0    0  0.19238212762E+02 -0.63294761104E+01 -0.99044604607E+00  0.20276885405E+02  0.51100000000E-03 0.  1.
        -12    1    3    3    0    0 -0.26048820898E+02  0.40959566355E+00  0.24164312040E+02  0.35533404216E+02  0.00000000000E+00 0.  1.
</event>
<event>
 7    1  0.2941727E-013  0.7246160E+02  0.7816164E-02  0.1226708E+00
        -11   -1    0    0    0    0  0.00000000000E+00  0.00000000000E+00  0.45593999997E+02  0.45594000000E+02  0.51100000000E-03 0.  1.
         11   -1    0    0    0    0 -0.00000000000E+00 -0.00000000000E+00 -0.45593999997E+02  0.45594000000E+02  0.51100000000E-03 0. -1.
    9900012    2    1    2    0    0 -0.20652827928E+01 -0.15092679205E+01  0.18550866548E+02  0.72461603327E+02  0.70000043031E+02 0.  0.
         12    1    1    2    0    0  0.20652827928E+01  0.15092679205E+01 -0.18550866548E+02  0.18726396673E+02  0.00000000000E+00 0. -1.
         11    1    3    3    0    0  0.37296764007E+01  0.10051296591E+02  0.25734883587E+02  0.27878724553E+02  0.51100000000E-03 0. -1.
        -11    1    3    3    0    0 -0.90429885897E+01 -0.20955143145E+01  0.16466361387E+02  0.18902589253E+02  0.51100000000E-03 0.  1.
         12    1    3    3    0    0  0.32480293963E+01 -0.94650501975E+01 -0.23650378425E+02  0.25680289521E+02  0.00000000000E+00 0. -1.
</event>
<event>
 7    1  0.2941727E-013  0.7246157E+02  0.7816164E-02  0.1226708E+00
        -11   -1    0    0    0    0  0.00000000000E+00  0.00000000000E+00  0.45593999997E+02  0.45594000000E+02  0.51100000000E-03 0.  1.
         11   -1    0    0    0    0 -0.00000000000E+00 -0.00000000000E+00 -0.45593999997E+02  0.45594000000E+02  0.51100000000E-03 0. -1.
    9900012    2    1    2    0    0  0.87132806889E+01 -0.15194506588E+02  0.66245597005E+01  0.72461572630E+02  0.70000003042E+02 0.  0.
         12    1    1    2    0    0 -0.87132806889E+01  0.15194506588E+02 -0.66245597005E+01  0.18726427370E+02  0.00000000000E+00 0. -1.
         11    1    3    3    0    0  0.13538820136E+02  0.21668686279E+01 -0.20945327202E+02  0.25034010909E+02  0.51100000000E-03 0. -1.
        -11    1    3    3    0    0  0.39174616148E+01 -0.15398278784E+02 -0.24700632451E+01  0.16079636430E+02  0.51100000000E-03 0.  1.
        -12    1    3    3    0    0 -0.87430010619E+01 -0.19630964321E+01  0.30039950148E+02  0.31347925291E+02  0.00000000000E+00 0.  1.
</event>
<event>
 7    1  0.2941727E-013  0.7246157E+02  0.7816164E-02  0.1226708E+00
        -11   -1    0    0    0    0  0.00000000000E+00  0.00000000000E+00  0.45593999997E+02  0.45594000000E+02  0.51100000000E-03 0.  1.
         11   -1    0    0    0    0 -0.00000000000E+00 -0.00000000000E+00 -0.45593999997E+02  0.45594000000E+02  0.51100000000E-03 0. -1.
    9900012    2    1    2    0    0 -0.10249892102E+02  0.50573084466E+01  0.14833835369E+02  0.72461566047E+02  0.69999994468E+02 0.  0.
         12    1    1    2    0    0  0.10249892102E+02 -0.50573084466E+01 -0.14833835369E+02  0.18726433953E+02  0.00000000000E+00 0. -1.
         11    1    3    3    0    0  0.14732191207E+02 -0.75765010427E+01 -0.46601610410E+01  0.17209239583E+02  0.51100000000E-03 0. -1.
        -11    1    3    3    0    0 -0.76079529609E+01 -0.12949105289E+02  0.19135439156E+02  0.24325404580E+02  0.51100000000E-03 0.  1.
        -12    1    3    3    0    0 -0.17374130349E+02  0.25582914779E+02  0.35855725414E+00  0.30926921885E+02  0.00000000000E+00 0.  1.
</event>
<event>
 7    1  0.2941727E-013  0.7246156E+02  0.7816164E-02  0.1226708E+00
        -11   -1    0    0    0    0  0.00000000000E+00  0.00000000000E+00  0.45593999997E+02  0.45594000000E+02  0.51100000000E-03 0. -1.
         11   -1    0    0    0    0 -0.00000000000E+00 -0.00000000000E+00 -0.45593999997E+02  0.45594000000E+02  0.51100000000E-03 0.  1.
    9900012    2    1    2    0    0 -0.54921876225E+01  0.10642003031E+01 -0.17871282940E+02  0.72461564111E+02  0.69999991945E+02 0.  0.
         12    1    1    2    0    0  0.54921876225E+01 -0.10642003031E+01  0.17871282940E+02  0.18726435889E+02  0.00000000000E+00 0. -1.
         11    1    3    3    0    0 -0.43810502199E+01 -0.16917862107E+02 -0.28533990082E+02  0.33460368342E+02  0.51100000000E-03 0. -1.
        -11    1    3    3    0    0 -0.10057907526E+02 -0.22829711642E+01 -0.53966103160E+01  0.11640312037E+02  0.51100000000E-03 0.  1.
         12    1    3    3    0    0  0.89467701238E+01  0.20265033574E+02  0.16059317458E+02  0.27360883733E+02  0.00000000000E+00 0. -1.
</event>
<event>
 7    1  0.2941727E-013  0.7246148E+02  0.7816164E-02  0.1226708E+00
        -11   -1    0    0    0    0  0.00000000000E+00  0.00000000000E+00  0.45593999997E+02  0.45594000000E+02  0.51100000000E-03 0. -1.
         11   -1    0    0    0    0 -0.00000000000E+00 -0.00000000000E+00 -0.45593999997E+02  0.45594000000E+02  0.51100000000E-03 0.  1.
    9900012    2    1    2    0    0 -0.94328181622E+00 -0.14938718456E+02  0.11252890496E+02  0.72461477787E+02  0.69999879492E+02 0.  0.
         12    1    1    2    0    0  0.94328181622E+00  0.14938718456E+02 -0.11252890496E+02  0.18726522213E+02  0.00000000000E+00 0. -1.
         11    1    3    3    0    0  0.16627162813E+02 -0.40891848598E+01  0.30067926121E+02  0.34601505134E+02  0.51100000000E-03 0. -1.
        -11    1    3    3    0    0  0.43593886025E+01 -0.29401054911E+01  0.28963335069E+01  0.60031023089E+01  0.51100000000E-03 0.  1.
        -12    1    3    3    0    0 -0.21929833232E+02 -0.79094281050E+01 -0.21711369132E+02  0.31856870344E+02  0.00000000000E+00 0.  1.
</event>
<event>
 7    1  0.2941727E-013  0.7246160E+02  0.7816164E-02  0.1226708E+00
        -11   -1    0    0    0    0  0.00000000000E+00  0.00000000000E+00  0.45593999997E+02  0.45594000000E+02  0.51100000000E-03 0. -1.
         11   -1    0    0    0    0 -0.00000000000E+00 -0.00000000000E+00 -0.45593999997E+02  0.45594000000E+02  0.51100000000E-03 0.  1.
    9900012    2    1    2    0    0  0.60677739724E+01  0.12941130445E+01 -0.17668765705E+02  0.72461604429E+02  0.70000044466E+02 0.  0.
         12    1    1    2    0    0 -0.60677739724E+01 -0.12941130445E+01  0.17668765705E+02  0.18726395571E+02  0.00000000000E+00 0. -1.
         11    1    3    3    0    0 -0.24961350039E+02 -0.45505611794E+01  0.29338811192E+01  0.25541813983E+02  0.51100000000E-03 0. -1.
        -11    1    3    3    0    0 -0.47128859154E+01  0.31256554163E-01  0.90987152508E+00  0.48000142788E+01  0.51100000000E-03 0.  1.
        -12    1    3    3    0    0  0.35742009927E+02  0.58134176697E+01 -0.21512518350E+02  0.42119776167E+02  0.00000000000E+00 0.  1.
</event>
<event>
 7    1  0.3240371E-013  0.7246156E+02  0.7816164E-02  0.1226708E+00
        -11   -1    0    0    0    0  0.00000000000E+00  0.00000000000E+00  0.45593999997E+02  0.45594000000E+02  0.51100000000E-03 0. -1.
         11   -1    0    0    0    0 -0.00000000000E+00 -0.00000000000E+00 -0.45593999997E+02  0.45594000000E+02  0.51100000000E-03 0.  1.
    9900012    2    1    2    0    0  0.11411113789E+02  0.63724655024E-01 -0.14847957065E+02  0.72461563934E+02  0.69999991714E+02 0.  0.
         12    1    1    2    0    0 -0.11411113789E+02 -0.63724655024E-01  0.14847957065E+02  0.18726436066E+02  0.00000000000E+00 0. -1.
         11    1    3    3    0    0  0.29021804546E+02  0.42186074042E+01  0.74155578695E+01  0.30249831179E+02  0.51100000000E-03 0. -1.
        -11    1    3    3    0    0 -0.53207130262E+01 -0.16846933095E+02 -0.75209137544E+01  0.19201387600E+02  0.51100000000E-03 0.  1.
        -12    1    3    3    0    0 -0.12289977731E+02  0.12692050346E+02 -0.14742601180E+02  0.23010345155E+02  0.00000000000E+00 0.  1.
</event>
<event>
 7    1  0.2941727E-013  0.7246163E+02  0.7816164E-02  0.1226708E+00
        -11   -1    0    0    0    0  0.00000000000E+00  0.00000000000E+00  0.45593999997E+02  0.45594000000E+02  0.51100000000E-03 0.  1.
         11   -1    0    0    0    0 -0.00000000000E+00 -0.00000000000E+00 -0.45593999997E+02  0.45594000000E+02  0.51100000000E-03 0. -1.
    9900012    2    1    2    0    0  0.12272929686E+02  0.62892756356E+01  0.12668743174E+02  0.72461632368E+02  0.70000080862E+02 0.  0.
         12    1    1    2    0    0 -0.12272929686E+02 -0.62892756356E+01 -0.12668743174E+02  0.18726367632E+02  0.00000000000E+00 0. -1.
         11    1    3    3    0    0  0.82771569852E+01 -0.13164298395E+02  0.37765090404E+01  0.16002252991E+02  0.51100000000E-03 0. -1.
        -11    1    3    3    0    0  0.13908632309E+02 -0.14645100139E+02  0.43419146850E+01  0.20658684232E+02  0.51100000000E-03 0.  1.
         12    1    3    3    0    0 -0.99128596082E+01  0.34098674170E+02  0.45503194482E+01  0.35800695145E+02  0.00000000000E+00 0. -1.
</event>
<event>
 7    1  0.2941727E-013  0.7246156E+02  0.7816164E-02  0.1226708E+00
        -11   -1    0    0    0    0  0.00000000000E+00  0.00000000000E+00  0.45593999997E+02  0.45594000000E+02  0.51100000000E-03 0.  1.
         11   -1    0    0    0    0 -0.00000000000E+00 -0.00000000000E+00 -0.45593999997E+02  0.45594000000E+02  0.51100000000E-03 0. -1.
    9900012    2    1    2    0    0  0.14166287197E+02  0.11422930874E+02 -0.44172981118E+01  0.72461559727E+02  0.69999986234E+02 0.  0.
         12    1    1    2    0    0 -0.14166287197E+02 -0.11422930874E+02  0.44172981118E+01  0.18726440273E+02  0.00000000000E+00 0. -1.
         11    1    3    3    0    0  0.21435424429E+02  0.79242581435E+01 -0.20170870657E+02  0.30481720931E+02  0.51100000000E-03 0. -1.
        -11    1    3    3    0    0  0.89396948776E+01  0.16160873268E+01 -0.87021019125E+01  0.12580002413E+02  0.51100000000E-03 0.  1.
        -12    1    3    3    0    0 -0.16208832110E+02  0.18825854035E+01  0.24455674458E+02  0.29399836383E+02  0.00000000000E+00 0.  1.
</event>
<event>
 7    1  0.2941727E-013  0.7246171E+02  0.7816164E-02  0.1226708E+00
        -11   -1    0    0    0    0  0.00000000000E+00  0.00000000000E+00  0.45593999997E+02  0.45594000000E+02  0.51100000000E-03 0.  1.
         11   -1    0    0    0    0 -0.00000000000E+00 -0.00000000000E+00 -0.45593999997E+02  0.45594000000E+02  0.51100000000E-03 0. -1.
    9900012    2    1    2    0    0 -0.15950787735E+02 -0.45764456058E+01 -0.86777007031E+01  0.72461709036E+02  0.70000180737E+02 0.  0.
         12    1    1    2    0    0  0.15950787735E+02  0.45764456058E+01  0.86777007031E+01  0.18726290964E+02  0.00000000000E+00 0. -1.
         11    1    3    3    0    0  0.38188057624E+01 -0.74009366045E+01 -0.34139900575E+02  0.35141001005E+02  0.51100000000E-03 0. -1.
        -11    1    3    3    0    0 -0.82049478038E+01  0.86276251984E+01  0.45838708971E+01  0.12758093811E+02  0.51100000000E-03 0.  1.
        -12    1    3    3    0    0 -0.11564645694E+02 -0.58031341997E+01  0.20878328975E+02  0.24562614221E+02  0.00000000000E+00 0.  1.
</event>
<event>
 7    1  0.2941727E-013  0.7246154E+02  0.7816164E-02  0.1226708E+00
        -11   -1    0    0    0    0  0.00000000000E+00  0.00000000000E+00  0.45593999997E+02  0.45594000000E+02  0.51100000000E-03 0.  1.
         11   -1    0    0    0    0 -0.00000000000E+00 -0.00000000000E+00 -0.45593999997E+02  0.45594000000E+02  0.51100000000E-03 0. -1.
    9900012    2    1    2    0    0 -0.74157099760E+01 -0.15262163068E+02  0.79217381671E+01  0.72461539802E+02  0.69999960278E+02 0.  0.
         12    1    1    2    0    0  0.74157099760E+01  0.15262163068E+02 -0.79217381671E+01  0.18726460198E+02  0.00000000000E+00 0. -1.
         11    1    3    3    0    0 -0.22395254950E+02  0.13443762632E+02  0.50304783211E+01  0.26600524626E+02  0.51100000000E-03 0. -1.
        -11    1    3    3    0    0 -0.99094519517E+01 -0.12871763231E+02  0.17747634089E+01  0.16341031549E+02  0.51100000000E-03 0.  1.
         12    1    3    3    0    0  0.24888996925E+02 -0.15834162469E+02  0.11164964371E+01  0.29519983627E+02  0.00000000000E+00 0. -1.
</event>
<event>
 7    1  0.2941727E-013  0.7246192E+02  0.7816164E-02  0.1226707E+00
        -11   -1    0    0    0    0  0.00000000000E+00  0.00000000000E+00  0.45593999997E+02  0.45594000000E+02  0.51100000000E-03 0.  1.
         11   -1    0    0    0    0 -0.00000000000E+00 -0.00000000000E+00 -0.45593999997E+02  0.45594000000E+02  0.51100000000E-03 0. -1.
    9900012    2    1    2    0    0  0.27175471727E+01  0.18082261768E+02 -0.40389335824E+01  0.72461915579E+02  0.70000449795E+02 0.  0.
         12    1    1    2    0    0 -0.27175471727E+01 -0.18082261768E+02  0.40389335824E+01  0.18726084421E+02  0.00000000000E+00 0. -1.
         11    1    3    3    0    0 -0.22942691063E+01  0.14520758355E+02 -0.22784000366E+02  0.27115065311E+02  0.51100000000E-03 0. -1.
        -11    1    3    3    0    0  0.11661909446E+02 -0.14744024598E+02  0.17735873099E+02  0.25844682009E+02  0.51100000000E-03 0.  1.
         12    1    3    3    0    0 -0.66500931670E+01  0.18305528011E+02  0.10091936839E+01  0.19502168259E+02  0.00000000000E+00 0. -1.
</event>
<event>
 7    1  0.2941727E-013  0.7246159E+02  0.7816164E-02  0.1226708E+00
        -11   -1    0    0    0    0  0.00000000000E+00  0.00000000000E+00  0.45593999997E+02  0.45594000000E+02  0.51100000000E-03 0. -1.
         11   -1    0    0    0    0 -0.00000000000E+00 -0.00000000000E+00 -0.45593999997E+02  0.45594000000E+02  0.51100000000E-03 0.  1.
    9900012    2    1    2    0    0 -0.11060859167E+02 -0.10398144842E+02 -0.10964231672E+02  0.72461590898E+02  0.70000026840E+02 0.  0.
         12    1    1    2    0    0  0.11060859167E+02  0.10398144842E+02  0.10964231672E+02  0.18726409102E+02  0.00000000000E+00 0. -1.
         11    1    3    3    0    0 -0.78779277597E+01 -0.17074060390E+02  0.12205059115E+02  0.22417599163E+02  0.51100000000E-03 0. -1.
        -11    1    3    3    0    0 -0.73245803391E+01  0.21503047215E+02 -0.60001052446E+00  0.22724227810E+02  0.51100000000E-03 0.  1.
         12    1    3    3    0    0  0.41416489314E+01 -0.14827131667E+02 -0.22569280262E+02  0.27319763925E+02  0.00000000000E+00 0. -1.
</event>
<event>
 7    1  0.2941727E-013  0.7246152E+02  0.7816164E-02  0.1226708E+00
        -11   -1    0    0    0    0  0.00000000000E+00  0.00000000000E+00  0.45593999997E+02  0.45594000000E+02  0.51100000000E-03 0.  1.
         11   -1    0    0    0    0 -0.00000000000E+00 -0.00000000000E+00 -0.45593999997E+02  0.45594000000E+02  0.51100000000E-03 0. -1.
    9900012    2    1    2    0    0  0.81587956071E+01 -0.12944571582E+01  0.16805940864E+02  0.72461515722E+02  0.69999928910E+02 0.  0.
         12    1    1    2    0    0 -0.81587956071E+01  0.12944571582E+01 -0.16805940864E+02  0.18726484278E+02  0.00000000000E+00 0. -1.
         11    1    3    3    0    0  0.26623570219E+01  0.48642941690E+01  0.20242414691E+02  0.20988207534E+02  0.51100000000E-03 0. -1.
        -11    1    3    3    0    0  0.18142877466E+02 -0.21632717610E+02  0.67692153251E+01  0.29033786358E+02  0.51100000000E-03 0.  1.
         12    1    3    3    0    0 -0.12646438881E+02  0.15473966282E+02 -0.10205689153E+02  0.22439521830E+02  0.00000000000E+00 0. -1.
</event>
<event>
 7    1  0.2941727E-013  0.7246153E+02  0.7816164E-02  0.1226708E+00
        -11   -1    0    0    0    0  0.00000000000E+00  0.00000000000E+00  0.45593999997E+02  0.45594000000E+02  0.51100000000E-03 0.  1.
         11   -1    0    0    0    0 -0.00000000000E+00 -0.00000000000E+00 -0.45593999997E+02  0.45594000000E+02  0.51100000000E-03 0. -1.
    9900012    2    1    2    0    0 -0.92605831725E+01  0.11636337786E+02  0.11380588648E+02  0.72461533282E+02  0.69999951784E+02 0.  0.
         12    1    1    2    0    0  0.92605831725E+01 -0.11636337786E+02 -0.11380588648E+02  0.18726466718E+02  0.00000000000E+00 0. -1.
         11    1    3    3    0    0  0.21121510582E+02  0.83586100877E+01  0.14555994252E+02  0.26978909185E+02  0.51100000000E-03 0. -1.
        -11    1    3    3    0    0  0.25073957841E+01  0.99258725193E+01  0.43021198721E+01  0.11104873459E+02  0.51100000000E-03 0.  1.
        -12    1    3    3    0    0 -0.32889489539E+02 -0.66481448211E+01 -0.74775254756E+01  0.34377750638E+02  0.00000000000E+00 0.  1.
</event>
<event>
 7    1  0.2941727E-013  0.7246156E+02  0.7816164E-02  0.1226708E+00
        -11   -1    0    0    0    0  0.00000000000E+00  0.00000000000E+00  0.45593999997E+02  0.45594000000E+02  0.51100000000E-03 0. -1.
         11   -1    0    0    0    0 -0.00000000000E+00 -0.00000000000E+00 -0.45593999997E+02  0.45594000000E+02  0.51100000000E-03 0.  1.
    9900012    2    1    2    0    0  0.54303335173E+00 -0.16522819088E+02 -0.87966512206E+01  0.72461561243E+02  0.69999988209E+02 0.  0.
         12    1    1    2    0    0 -0.54303335173E+00  0.16522819088E+02  0.87966512206E+01  0.18726438757E+02  0.00000000000E+00 0. -1.
         11    1    3    3    0    0  0.86103751996E+00  0.29183626982E+01  0.80698161164E+00  0.31479272596E+01  0.51100000000E-03 0. -1.
        -11    1    3    3    0    0  0.25742639104E+02  0.92054701328E+01 -0.13315017122E+02  0.30409107675E+02  0.51100000000E-03 0.  1.
        -12    1    3    3    0    0 -0.26060643272E+02 -0.28646651919E+02  0.37113842898E+01  0.38904526308E+02  0.00000000000E+00 0.  1.
</event>
<event>
 7    1  0.2941727E-013  0.7246151E+02  0.7816164E-02  0.1226708E+00
        -11   -1    0    0    0    0  0.00000000000E+00  0.00000000000E+00  0.45593999997E+02  0.45594000000E+02  0.51100000000E-03 0. -1.
         11   -1    0    0    0    0 -0.00000000000E+00 -0.00000000000E+00 -0.45593999997E+02  0.45594000000E+02  0.51100000000E-03 0.  1.
    9900012    2    1    2    0    0  0.75863852124E+01  0.47941526185E+01 -0.16436067535E+02  0.72461509247E+02  0.69999920474E+02 0.  0.
         12    1    1    2    0    0 -0.75863852124E+01 -0.47941526185E+01  0.16436067535E+02  0.18726490753E+02  0.00000000000E+00 0. -1.
         11    1    3    3    0    0  0.99959457038E+00  0.11832059036E+02 -0.28075482362E+02  0.30483266237E+02  0.51100000000E-03 0. -1.
        -11    1    3    3    0    0 -0.67166778660E+01 -0.36611804858E+01 -0.12240882619E+02  0.14434583876E+02  0.51100000000E-03 0.  1.
         12    1    3    3    0    0  0.13303468508E+02 -0.33767259318E+01  0.23880297446E+02  0.27543659134E+02  0.00000000000E+00 0. -1.
</event>
<event>
 7    1  0.2941727E-013  0.7246155E+02  0.7816164E-02  0.1226708E+00
        -11   -1    0    0    0    0  0.00000000000E+00  0.00000000000E+00  0.45593999997E+02  0.45594000000E+02  0.51100000000E-03 0. -1.
         11   -1    0    0    0    0 -0.00000000000E+00 -0.00000000000E+00 -0.45593999997E+02  0.45594000000E+02  0.51100000000E-03 0.  1.
    9900012    2    1    2    0    0 -0.14376071279E+02  0.47299003154E+01 -0.11028896933E+02  0.72461549456E+02  0.69999972854E+02 0.  0.
         12    1    1    2    0    0  0.14376071279E+02 -0.47299003154E+01  0.11028896933E+02  0.18726450544E+02  0.00000000000E+00 0. -1.
         11    1    3    3    0    0 -0.16216682044E+02  0.67990480029E+01  0.41835196110E+01  0.18075111808E+02  0.51100000000E-03 0. -1.
        -11    1    3    3    0    0  0.32710538653E+01  0.23685287205E+02  0.98151414076E+00  0.23930231792E+02  0.51100000000E-03 0.  1.
        -12    1    3    3    0    0 -0.14304431004E+01 -0.25754434892E+02 -0.16193930685E+02  0.30456205856E+02  0.00000000000E+00 0.  1.
</event>
<event>
 7    1  0.2941727E-013  0.7246156E+02  0.7816164E-02  0.1226708E+00
        -11   -1    0    0    0    0  0.00000000000E+00  0.00000000000E+00  0.45593999997E+02  0.45594000000E+02  0.51100000000E-03 0.  1.
         11   -1    0    0    0    0 -0.00000000000E+00 -0.00000000000E+00 -0.45593999997E+02  0.45594000000E+02  0.51100000000E-03 0. -1.
    9900012    2    1    2    0    0 -0.12148585681E+02 -0.54889565424E+00  0.14240441207E+02  0.72461559167E+02  0.69999985505E+02 0.  0.
         12    1    1    2    0    0  0.12148585681E+02  0.54889565424E+00 -0.14240441207E+02  0.18726440833E+02  0.00000000000E+00 0. -1.
         11    1    3    3    0    0  0.13764449545E+02 -0.79896836277E+00 -0.17702809275E+02  0.22438535563E+02  0.51100000000E-03 0. -1.
        -11    1    3    3    0    0 -0.17194808326E+02 -0.45791263051E+01  0.13476101619E+01  0.17845052101E+02  0.51100000000E-03 0.  1.
        -12    1    3    3    0    0 -0.87182269002E+01  0.48291990137E+01  0.30595640320E+02  0.32177971502E+02  0.00000000000E+00 0.  1.
</event>
<event>
 7    1  0.2941727E-013  0.7246154E+02  0.7816164E-02  0.1226708E+00
        -11   -1    0    0    0    0  0.00000000000E+00  0.00000000000E+00  0.45593999997E+02  0.45594000000E+02  0.51100000000E-03 0. -1.
         11   -1    0    0    0    0 -0.00000000000E+00 -0.00000000000E+00 -0.45593999997E+02  0.45594000000E+02  0.51100000000E-03 0.  1.
    9900012    2    1    2    0    0  0.90691448565E-01 -0.15940069774E+02 -0.98278372003E+01  0.72461536549E+02  0.69999956041E+02 0.  0.
         12    1    1    2    0    0 -0.90691448565E-01  0.15940069774E+02  0.98278372003E+01  0.18726463451E+02  0.00000000000E+00 0. -1.
         11    1    3    3    0    0  0.10091448441E+02 -0.12089441359E+02  0.10970354896E+02  0.19192201823E+02  0.51100000000E-03 0. -1.
        -11    1    3    3    0    0 -0.81947334308E+01  0.20067022449E+02 -0.23717207824E+00  0.21677068455E+02  0.51100000000E-03 0.  1.
         12    1    3    3    0    0 -0.18060235613E+01 -0.23917650864E+02 -0.20561020018E+02  0.31592266271E+02  0.00000000000E+00 0. -1.
</event>
<event>
 7    1  0.2941727E-013  0.7246155E+02  0.7816164E-02  0.1226708E+00
        -11   -1    0    0    0    0  0.00000000000E+00  0.00000000000E+00  0.45593999997E+02  0.45594000000E+02  0.51100000000E-03 0. -1.
         11   -1    0    0    0    0 -0.00000000000E+00 -0.00000000000E+00 -0.45593999997E+02  0.45594000000E+02  0.51100000000E-03 0.  1.
    9900012    2    1    2    0    0 -0.12722626905E+02  0.70098855139E+01  0.11818474874E+02  0.72461546021E+02  0.69999968379E+02 0.  0.
         12    1    1    2    0    0  0.12722626905E+02 -0.70098855139E+01 -0.11818474874E+02  0.18726453979E+02  0.00000000000E+00 0. -1.
         11    1    3    3    0    0 -0.92648555784E+01 -0.15827524927E+02 -0.15212100363E+01  0.18402776269E+02  0.51100000000E-03 0. -1.
        -11    1    3    3    0    0  0.18474650544E+02  0.57309713705E+01  0.17315623344E+02  0.25961270339E+02  0.51100000000E-03 0.  1.
         12    1    3    3    0    0 -0.21932421871E+02  0.17106439070E+02 -0.39759384332E+01  0.28097499412E+02  0.00000000000E+00 0. -1.
</event>
<event>
 7    1  0.2941727E-013  0.7246170E+02  0.7816164E-02  0.1226708E+00
        -11   -1    0    0    0    0  0.00000000000E+00  0.00000000000E+00  0.45593999997E+02  0.45594000000E+02  0.51100000000E-03 0.  1.
         11   -1    0    0    0    0 -0.00000000000E+00 -0.00000000000E+00 -0.45593999997E+02  0.45594000000E+02  0.51100000000E-03 0. -1.
    9900012    2    1    2    0    0  0.12850533413E+02  0.26391031200E+01  0.13363125314E+02  0.72461703184E+02  0.70000173114E+02 0.  0.
         12    1    1    2    0    0 -0.12850533413E+02 -0.26391031200E+01 -0.13363125314E+02  0.18726296816E+02  0.00000000000E+00 0. -1.
         11    1    3    3    0    0 -0.22039937990E+01 -0.15327113295E+02  0.25002641082E+02  0.29409353138E+02  0.51100000000E-03 0. -1.
        -11    1    3    3    0    0  0.98086568621E+01 -0.93936362973E+01 -0.42509087303E+01  0.14230965449E+02  0.51100000000E-03 0.  1.
        -12    1    3    3    0    0  0.52458703495E+01  0.27359852712E+02 -0.73886070378E+01  0.28821384598E+02  0.00000000000E+00 0.  1.
</event>
<event>
 7    1  0.2941727E-013  0.7246145E+02  0.7816164E-02  0.1226708E+00
        -11   -1    0    0    0    0  0.00000000000E+00  0.00000000000E+00  0.45593999997E+02  0.45594000000E+02  0.51100000000E-03 0. -1.
         11   -1    0    0    0    0 -0.00000000000E+00 -0.00000000000E+00 -0.45593999997E+02  0.45594000000E+02  0.51100000000E-03 0.  1.
    9900012    2    1    2    0    0 -0.57247128094E+01 -0.17828421280E+02 -0.24269971157E+00  0.72461445452E+02  0.69999837370E+02 0.  0.
         12    1    1    2    0    0  0.57247128094E+01  0.17828421280E+02  0.24269971157E+00  0.18726554548E+02  0.00000000000E+00 0. -1.
         11    1    3    3    0    0  0.16955158692E+02  0.15313515170E+02  0.23219780748E+01  0.22964597440E+02  0.51100000000E-03 0. -1.
        -11    1    3    3    0    0 -0.49852593906E+01  0.13956135256E+01 -0.87831515067E+01  0.10195307693E+02  0.51100000000E-03 0.  1.
        -12    1    3    3    0    0 -0.17694612111E+02 -0.34537549976E+02  0.62184737203E+01  0.39301540319E+02  0.00000000000E+00 0.  1.
</event>
<event>
 7    1  0.2941727E-013  0.7246162E+02  0.7816164E-02  0.1226708E+00
        -11   -1    0    0    0    0  0.00000000000E+00  0.00000000000E+00  0.45593999997E+02  0.45594000000E+02  0.51100000000E-03 0. -1.
         11   -1    0    0    0    0 -0.00000000000E+00 -0.00000000000E+00 -0.45593999997E+02  0.45594000000E+02  0.51100000000E-03 0.  1.
    9900012    2    1    2    0    0 -0.16709881671E+02  0.61558171286E+01 -0.57933681467E+01  0.72461619024E+02  0.70000063479E+02 0.  0.
         12    1    1    2    0    0  0.16709881671E+02 -0.61558171286E+01  0.57933681467E+01  0.18726380976E+02  0.00000000000E+00 0. -1.
         11    1    3    3    0    0  0.10947891298E+02  0.17919186750E+02  0.17467735796E+02  0.27314380311E+02  0.51100000000E-03 0. -1.
        -11    1    3    3    0    0 -0.20313032078E+02 -0.28336586590E+00 -0.27201002279E+01  0.20496304884E+02  0.51100000000E-03 0.  1.
        -12    1    3    3    0    0 -0.73447408913E+01 -0.11480003756E+02 -0.20541003715E+02  0.24650933829E+02  0.00000000000E+00 0.  1.
</event>
<event>
 7    1  0.2941727E-013  0.7246157E+02  0.7816164E-02  0.1226708E+00
        -11   -1    0    0    0    0  0.00000000000E+00  0.00000000000E+00  0.45593999997E+02  0.45594000000E+02  0.51100000000E-03 0.  1.
         11   -1    0    0    0    0 -0.00000000000E+00 -0.00000000000E+00 -0.45593999997E+02  0.45594000000E+02  0.51100000000E-03 0. -1.
    9900012    2    1    2    0    0 -0.98274731288E+01  0.52794079703E+01 -0.15040868969E+02  0.72461571724E+02  0.70000001863E+02 0.  0.
         12    1    1    2    0    0  0.98274731288E+01 -0.52794079703E+01  0.15040868969E+02  0.18726428276E+02  0.00000000000E+00 0. -1.
         11    1    3    3    0    0  0.37262922618E+01 -0.62289302746E+00 -0.28104695111E+02  0.28357488205E+02  0.51100000000E-03 0. -1.
        -11    1    3    3    0    0 -0.14362016747E+02 -0.10112219109E+02 -0.65709245194E+01  0.18753707625E+02  0.51100000000E-03 0.  1.
         12    1    3    3    0    0  0.80825135678E+00  0.16014520107E+02  0.19634750661E+02  0.25350375895E+02  0.00000000000E+00 0. -1.
</event>
<event>
 7    1  0.2941727E-013  0.7246157E+02  0.7816164E-02  0.1226708E+00
        -11   -1    0    0    0    0  0.00000000000E+00  0.00000000000E+00  0.45593999997E+02  0.45594000000E+02  0.51100000000E-03 0. -1.
         11   -1    0    0    0    0 -0.00000000000E+00 -0.00000000000E+00 -0.45593999997E+02  0.45594000000E+02  0.51100000000E-03 0.  1.
    9900012    2    1    2    0    0  0.10875139991E+02  0.77908145010E+00 -0.15225098451E+02  0.72461567863E+02  0.69999996833E+02 0.  0.
         12    1    1    2    0    0 -0.10875139991E+02 -0.77908145010E+00  0.15225098451E+02  0.18726432137E+02  0.00000000000E+00 0. -1.
         11    1    3    3    0    0 -0.12904780597E+02  0.28114485058E+01 -0.45036885558E+01  0.13954240066E+02  0.51100000000E-03 0. -1.
        -11    1    3    3    0    0 -0.12817563553E+02  0.93703800562E+01 -0.12387921707E+02  0.20138385295E+02  0.51100000000E-03 0.  1.
         12    1    3    3    0    0  0.36597484140E+02 -0.11402747112E+02  0.16665118116E+01  0.38368942502E+02  0.00000000000E+00 0. -1.
</event>
<event>
 7    1  0.2941727E-013  0.7246172E+02  0.7816164E-02  0.1226708E+00
        -11   -1    0    0    0    0  0.00000000000E+00  0.00000000000E+00  0.45593999997E+02  0.45594000000E+02  0.51100000000E-03 0. -1.
         11   -1    0    0    0    0 -0.00000000000E+00 -0.00000000000E+00 -0.45593999997E+02  0.45594000000E+02  0.51100000000E-03 0.  1.
    9900012    2    1    2    0    0 -0.96438564169E+01  0.14641724838E+02 -0.65794864901E+01  0.72461715924E+02  0.70000189709E+02 0.  0.
         12    1    1    2    0    0  0.96438564169E+01 -0.14641724838E+02  0.65794864901E+01  0.18726284076E+02  0.00000000000E+00 0. -1.
         11    1    3    3    0    0 -0.76540730124E+01 -0.18580082600E+02 -0.11192225094E+02  0.23001526165E+02  0.51100000000E-03 0. -1.
        -11    1    3    3    0    0  0.89612014458E+00  0.93344834559E+01  0.19168247299E+02  0.21339103015E+02  0.51100000000E-03 0.  1.
        -12    1    3    3    0    0 -0.28859035490E+01  0.23887323982E+02 -0.14555508695E+02  0.28121086744E+02  0.00000000000E+00 0.  1.
</event>
<event>
 7    1  0.2941727E-013  0.7246165E+02  0.7816164E-02  0.1226708E+00
        -11   -1    0    0    0    0  0.00000000000E+00  0.00000000000E+00  0.45593999997E+02  0.45594000000E+02  0.51100000000E-03 0.  1.
         11   -1    0    0    0    0 -0.00000000000E+00 -0.00000000000E+00 -0.45593999997E+02  0.45594000000E+02  0.51100000000E-03 0. -1.
    9900012    2    1    2    0    0  0.14565486826E+01 -0.11352254527E+02  0.14821639269E+02  0.72461649380E+02  0.70000103024E+02 0.  0.
         12    1    1    2    0    0 -0.14565486826E+01  0.11352254527E+02 -0.14821639269E+02  0.18726350620E+02  0.00000000000E+00 0. -1.
         11    1    3    3    0    0 -0.38243537911E+01 -0.17293976471E+02 -0.94452025470E+01  0.20072846224E+02  0.51100000000E-03 0. -1.
        -11    1    3    3    0    0 -0.50425526724E+00 -0.90566862807E+01  0.32909959278E+02  0.34137124362E+02  0.51100000000E-03 0.  1.
         12    1    3    3    0    0  0.57851577410E+01  0.14998408225E+02 -0.86431174615E+01  0.18251678794E+02  0.00000000000E+00 0. -1.
</event>
<event>
 7    1  0.2941727E-013  0.7246156E+02  0.7816164E-02  0.1226708E+00
        -11   -1    0    0    0    0  0.00000000000E+00  0.00000000000E+00  0.45593999997E+02  0.45594000000E+02  0.51100000000E-03 0.  1.
         11   -1    0    0    0    0 -0.00000000000E+00 -0.00000000000E+00 -0.45593999997E+02  0.45594000000E+02  0.51100000000E-03 0. -1.
    9900012    2    1    2    0    0 -0.12940896417E+02  0.91459109561E+01  0.99782206101E+01  0.72461564839E+02  0.69999992893E+02 0.  0.
         12    1    1    2    0    0  0.12940896417E+02 -0.91459109561E+01 -0.99782206101E+01  0.18726435161E+02  0.00000000000E+00 0. -1.
         11    1    3    3    0    0 -0.10104236149E+01  0.36082456382E+01 -0.19886402207E+02  0.20236338243E+02  0.51100000000E-03 0. -1.
        -11    1    3    3    0    0  0.10015836308E+02  0.12809112409E+02  0.25814709444E+01  0.16463727711E+02  0.51100000000E-03 0.  1.
        -12    1    3    3    0    0 -0.21946309111E+02 -0.72714470908E+01  0.27283151873E+02  0.35761498885E+02  0.00000000000E+00 0.  1.
</event>
<event>
 7    1  0.2941727E-013  0.7246128E+02  0.7816164E-02  0.1226709E+00
        -11   -1    0    0    0    0  0.00000000000E+00  0.00000000000E+00  0.45593999997E+02  0.45594000000E+02  0.51100000000E-03 0. -1.
         11   -1    0    0    0    0 -0.00000000000E+00 -0.00000000000E+00 -0.45593999997E+02  0.45594000000E+02  0.51100000000E-03 0.  1.
    9900012    2    1    2    0    0 -0.54184472945E+01 -0.14925438959E+02 -0.99278336150E+01  0.72461276328E+02  0.69999617053E+02 0.  0.
         12    1    1    2    0    0  0.54184472945E+01  0.14925438959E+02  0.99278336150E+01  0.18726723672E+02  0.00000000000E+00 0. -1.
         11    1    3    3    0    0  0.93203014984E+01 -0.24407626637E+01 -0.21400640614E+02  0.23469400533E+02  0.51100000000E-03 0. -1.
        -11    1    3    3    0    0 -0.37900816365E+01 -0.23075180469E+02 -0.75948575657E+01  0.24586795932E+02  0.51100000000E-03 0.  1.
         12    1    3    3    0    0 -0.10948667156E+02  0.10590504174E+02  0.19067664565E+02  0.24405079863E+02  0.00000000000E+00 0. -1.
</event>
<event>
 7    1  0.2941727E-013  0.7246158E+02  0.7816164E-02  0.1226708E+00
        -11   -1    0    0    0    0  0.00000000000E+00  0.00000000000E+00  0.45593999997E+02  0.45594000000E+02  0.51100000000E-03 0. -1.
         11   -1    0    0    0    0 -0.00000000000E+00 -0.00000000000E+00 -0.45593999997E+02  0.45594000000E+02  0.51100000000E-03 0.  1.
    9900012    2    1    2    0    0  0.14878395770E+02 -0.50187629371E+01  0.10204128266E+02  0.72461578137E+02  0.70000010217E+02 0.  0.
         12    1    1    2    0    0 -0.14878395770E+02  0.50187629371E+01 -0.10204128266E+02  0.18726421863E+02  0.00000000000E+00 0. -1.
         11    1    3    3    0    0  0.34662294747E+01 -0.21712075177E+02  0.84383146424E+01  0.23550671105E+02  0.51100000000E-03 0. -1.
        -11    1    3    3    0    0 -0.13840543310E+02 -0.12863028869E+00 -0.92310076920E+01  0.16636967516E+02  0.51100000000E-03 0.  1.
        -12    1    3    3    0    0  0.25252709605E+02  0.16821942528E+02  0.10996821316E+02  0.32273939516E+02  0.00000000000E+00 0.  1.
</event>
<event>
 7    1  0.2941727E-013  0.7246157E+02  0.7816164E-02  0.1226708E+00
        -11   -1    0    0    0    0  0.00000000000E+00  0.00000000000E+00  0.45593999997E+02  0.45594000000E+02  0.51100000000E-03 0.  1.
         11   -1    0    0    0    0 -0.00000000000E+00 -0.00000000000E+00 -0.45593999997E+02  0.45594000000E+02  0.51100000000E-03 0. -1.
    9900012    2    1    2    0    0 -0.15038477257E+01  0.17242802363E+02  0.71486619050E+01  0.72461570593E+02  0.70000000389E+02 0.  0.
         12    1    1    2    0    0  0.15038477257E+01 -0.17242802363E+02 -0.71486619050E+01  0.18726429407E+02  0.00000000000E+00 0. -1.
         11    1    3    3    0    0 -0.45018228179E+01  0.12418888413E+02  0.17479509500E+02  0.21909551587E+02  0.51100000000E-03 0. -1.
        -11    1    3    3    0    0  0.20702831839E+02 -0.10867767278E+02  0.27092925382E+01  0.23538391578E+02  0.51100000000E-03 0.  1.
         12    1    3    3    0    0 -0.17704856747E+02  0.15691681227E+02 -0.13040140133E+02  0.27013627429E+02  0.00000000000E+00 0. -1.
</event>
<event>
 7    1  0.2941727E-013  0.7246157E+02  0.7816164E-02  0.1226708E+00
        -11   -1    0    0    0    0  0.00000000000E+00  0.00000000000E+00  0.45593999997E+02  0.45594000000E+02  0.51100000000E-03 0. -1.
         11   -1    0    0    0    0 -0.00000000000E+00 -0.00000000000E+00 -0.45593999997E+02  0.45594000000E+02  0.51100000000E-03 0.  1.
    9900012    2    1    2    0    0 -0.18545115048E+02  0.24282596512E+01 -0.92819773694E+00  0.72461567128E+02  0.69999995875E+02 0.  0.
         12    1    1    2    0    0  0.18545115048E+02 -0.24282596512E+01  0.92819773694E+00  0.18726432872E+02  0.00000000000E+00 0. -1.
         11    1    3    3    0    0 -0.14464923422E+02  0.52704560034E+01  0.50978624172E+01  0.16217272199E+02  0.51100000000E-03 0. -1.
        -11    1    3    3    0    0  0.14592083409E+00  0.61371000156E+01 -0.29829656812E+02  0.30454781485E+02  0.51100000000E-03 0.  1.
         12    1    3    3    0    0 -0.42261124601E+01 -0.89792963678E+01  0.23803596658E+02  0.25789513444E+02  0.00000000000E+00 0. -1.
</event>
<event>
 7    1  0.2941727E-013  0.7246165E+02  0.7816164E-02  0.1226708E+00
        -11   -1    0    0    0    0  0.00000000000E+00  0.00000000000E+00  0.45593999997E+02  0.45594000000E+02  0.51100000000E-03 0.  1.
         11   -1    0    0    0    0 -0.00000000000E+00 -0.00000000000E+00 -0.45593999997E+02  0.45594000000E+02  0.51100000000E-03 0. -1.
    9900012    2    1    2    0    0 -0.74452721509E+01  0.10327984041E+02  0.13732334625E+02  0.72461645683E+02  0.70000098207E+02 0.  0.
         12    1    1    2    0    0  0.74452721509E+01 -0.10327984041E+02 -0.13732334625E+02  0.18726354317E+02  0.00000000000E+00 0. -1.
         11    1    3    3    0    0  0.80535342300E+01  0.56379943561E+01 -0.21514900429E+02  0.23654541523E+02  0.51100000000E-03 0. -1.
        -11    1    3    3    0    0  0.74296178855E+00  0.14664626242E+02  0.14575455108E+02  0.20689300300E+02  0.51100000000E-03 0.  1.
         12    1    3    3    0    0 -0.16241768169E+02 -0.99746365572E+01  0.20671779946E+02  0.28117803859E+02  0.00000000000E+00 0. -1.
</event>
<event>
 7    1  0.2941727E-013  0.7246164E+02  0.7816164E-02  0.1226708E+00
        -11   -1    0    0    0    0  0.00000000000E+00  0.00000000000E+00  0.45593999997E+02  0.45594000000E+02  0.51100000000E-03 0.  1.
         11   -1    0    0    0    0 -0.00000000000E+00 -0.00000000000E+00 -0.45593999997E+02  0.45594000000E+02  0.51100000000E-03 0. -1.
    9900012    2    1    2    0    0  0.52026694835E+01 -0.13781087081E+02  0.11562462948E+02  0.72461636757E+02  0.70000086579E+02 0.  0.
         12    1    1    2    0    0 -0.52026694835E+01  0.13781087081E+02 -0.11562462948E+02  0.18726363243E+02  0.00000000000E+00 0. -1.
         11    1    3    3    0    0  0.40202963839E+01 -0.89846065642E+01  0.19946113188E+01  0.10043127635E+02  0.51100000000E-03 0. -1.
        -11    1    3    3    0    0 -0.10494970822E+02 -0.15050961938E+01  0.33743188726E+02  0.35369655254E+02  0.51100000000E-03 0.  1.
         12    1    3    3    0    0  0.11677343921E+02 -0.32913843233E+01 -0.24175337097E+02  0.27048853868E+02  0.00000000000E+00 0. -1.
</event>
<event>
 7    1  0.2941727E-013  0.7246158E+02  0.7816164E-02  0.1226708E+00
        -11   -1    0    0    0    0  0.00000000000E+00  0.00000000000E+00  0.45593999997E+02  0.45594000000E+02  0.51100000000E-03 0. -1.
         11   -1    0    0    0    0 -0.00000000000E+00 -0.00000000000E+00 -0.45593999997E+02  0.45594000000E+02  0.51100000000E-03 0.  1.
    9900012    2    1    2    0    0 -0.52638971216E+01 -0.15425314560E+02 -0.92211636793E+01  0.72461580113E+02  0.70000012791E+02 0.  0.
         12    1    1    2    0    0  0.52638971216E+01  0.15425314560E+02  0.92211636793E+01  0.18726419887E+02  0.00000000000E+00 0. -1.
         11    1    3    3    0    0 -0.19899928709E+02 -0.36856970600E+00  0.12512857931E+02  0.23509883456E+02  0.51100000000E-03 0. -1.
        -11    1    3    3    0    0 -0.10480613972E+02  0.24805509045E+01  0.98199436707E+00  0.10814837734E+02  0.51100000000E-03 0.  1.
        -12    1    3    3    0    0  0.25116645559E+02 -0.17537295759E+02 -0.22716015977E+02  0.38136858923E+02  0.00000000000E+00 0.  1.
</event>
<event>
 7    1  0.2941727E-013  0.7246132E+02  0.7816164E-02  0.1226709E+00
        -11   -1    0    0    0    0  0.00000000000E+00  0.00000000000E+00  0.45593999997E+02  0.45594000000E+02  0.51100000000E-03 0. -1.
         11   -1    0    0    0    0 -0.00000000000E+00 -0.00000000000E+00 -0.45593999997E+02  0.45594000000E+02  0.51100000000E-03 0.  1.
    9900012    2    1    2    0    0 -0.11179521434E+02  0.14974186797E+02 -0.12167182629E+01  0.72461324559E+02  0.69999679884E+02 0.  0.
         12    1    1    2    0    0  0.11179521434E+02 -0.14974186797E+02  0.12167182629E+01  0.18726675441E+02  0.00000000000E+00 0. -1.
         11    1    3    3    0    0  0.90053849059E+01  0.13245430159E+02  0.21423173289E+02  0.26748658498E+02  0.51100000000E-03 0. -1.
        -11    1    3    3    0    0  0.82491653456E+00  0.25790941571E+01 -0.24457768042E+02  0.24607206908E+02  0.51100000000E-03 0.  1.
         12    1    3    3    0    0 -0.21009822875E+02 -0.85033751972E+00  0.18178764897E+01  0.21105459153E+02  0.00000000000E+00 0. -1.
</event>
<event>
 7    1  0.2941727E-013  0.7246156E+02  0.7816164E-02  0.1226708E+00
        -11   -1    0    0    0    0  0.00000000000E+00  0.00000000000E+00  0.45593999997E+02  0.45594000000E+02  0.51100000000E-03 0.  1.
         11   -1    0    0    0    0 -0.00000000000E+00 -0.00000000000E+00 -0.45593999997E+02  0.45594000000E+02  0.51100000000E-03 0. -1.
    9900012    2    1    2    0    0  0.10459841394E+02 -0.15521628783E+02  0.59172566675E+00  0.72461564639E+02  0.69999992633E+02 0.  0.
         12    1    1    2    0    0 -0.10459841394E+02  0.15521628783E+02 -0.59172566675E+00  0.18726435361E+02  0.00000000000E+00 0. -1.
         11    1    3    3    0    0  0.18849815261E+01 -0.14758345639E+02 -0.19090318889E+02  0.24203350944E+02  0.51100000000E-03 0. -1.
        -11    1    3    3    0    0  0.19680067808E+02 -0.12644133975E+02  0.21654395128E+02  0.31876198354E+02  0.51100000000E-03 0.  1.
        -12    1    3    3    0    0 -0.11105207940E+02  0.11880850831E+02 -0.19723505720E+01  0.16382015341E+02  0.00000000000E+00 0.  1.
</event>
<event>
 7    1  0.2941727E-013  0.7246150E+02  0.7816164E-02  0.1226708E+00
        -11   -1    0    0    0    0  0.00000000000E+00  0.00000000000E+00  0.45593999997E+02  0.45594000000E+02  0.51100000000E-03 0.  1.
         11   -1    0    0    0    0 -0.00000000000E+00 -0.00000000000E+00 -0.45593999997E+02  0.45594000000E+02  0.51100000000E-03 0. -1.
    9900012    2    1    2    0    0 -0.89699107678E+01 -0.16115425422E+02  0.32427983208E+01  0.72461495343E+02  0.69999902362E+02 0.  0.
         12    1    1    2    0    0  0.89699107678E+01  0.16115425422E+02 -0.32427983208E+01  0.18726504657E+02  0.00000000000E+00 0. -1.
         11    1    3    3    0    0 -0.28121441270E+02 -0.12672979178E+02 -0.18182980318E+02  0.35805595008E+02  0.51100000000E-03 0. -1.
        -11    1    3    3    0    0 -0.59542542629E+00 -0.57022731410E+01 -0.18726009874E+01  0.60313419014E+01  0.51100000000E-03 0.  1.
         12    1    3    3    0    0  0.19746955929E+02  0.22598268967E+01  0.23298379626E+02  0.30624558434E+02  0.00000000000E+00 0. -1.
</event>
<event>
 7    1  0.2941727E-013  0.7246145E+02  0.7816164E-02  0.1226708E+00
        -11   -1    0    0    0    0  0.00000000000E+00  0.00000000000E+00  0.45593999997E+02  0.45594000000E+02  0.51100000000E-03 0.  1.
         11   -1    0    0    0    0 -0.00000000000E+00 -0.00000000000E+00 -0.45593999997E+02  0.45594000000E+02  0.51100000000E-03 0. -1.
    9900012    2    1    2    0    0 -0.15383761088E+02 -0.42496098785E+01  0.97961386243E+01  0.72461451432E+02  0.69999845159E+02 0.  0.
         12    1    1    2    0    0  0.15383761088E+02  0.42496098785E+01 -0.97961386243E+01  0.18726548568E+02  0.00000000000E+00 0. -1.
         11    1    3    3    0    0 -0.94600216127E+01  0.35530964381E+01 -0.19170319287E+02  0.21670663234E+02  0.51100000000E-03 0. -1.
        -11    1    3    3    0    0  0.34350608166E+01  0.15138442525E+02  0.17788433507E+02  0.23609329762E+02  0.51100000000E-03 0.  1.
         12    1    3    3    0    0 -0.93588002922E+01 -0.22941148842E+02  0.11178024404E+02  0.27181458435E+02  0.00000000000E+00 0. -1.
</event>
<event>
 7    1  0.2941727E-013  0.7246166E+02  0.7816164E-02  0.1226708E+00
        -11   -1    0    0    0    0  0.00000000000E+00  0.00000000000E+00  0.45593999997E+02  0.45594000000E+02  0.51100000000E-03 0.  1.
         11   -1    0    0    0    0 -0.00000000000E+00 -0.00000000000E+00 -0.45593999997E+02  0.45594000000E+02  0.51100000000E-03 0. -1.
    9900012    2    1    2    0    0 -0.60437182788E+01  0.13310967045E+02  0.11703301289E+02  0.72461664657E+02  0.70000122925E+02 0.  0.
         12    1    1    2    0    0  0.60437182788E+01 -0.13310967045E+02 -0.11703301289E+02  0.18726335343E+02  0.00000000000E+00 0. -1.
         11    1    3    3    0    0  0.13190799760E+01  0.92278116548E+01 -0.22792114185E+02  0.24624641098E+02  0.51100000000E-03 0. -1.
        -11    1    3    3    0    0  0.49116575872E+01  0.44758265618E+00 -0.45723133402E+01  0.67253817758E+01  0.51100000000E-03 0.  1.
        -12    1    3    3    0    0 -0.12274455842E+02  0.36355727341E+01  0.39067728815E+02  0.41111641783E+02  0.00000000000E+00 0.  1.
</event>
<event>
 7    1  0.2941727E-013  0.7246158E+02  0.7816164E-02  0.1226708E+00
        -11   -1    0    0    0    0  0.00000000000E+00  0.00000000000E+00  0.45593999997E+02  0.45594000000E+02  0.51100000000E-03 0.  1.
         11   -1    0    0    0    0 -0.00000000000E+00 -0.00000000000E+00 -0.45593999997E+02  0.45594000000E+02  0.51100000000E-03 0. -1.
    9900012    2    1    2    0    0 -0.12590153440E+02  0.27001118200E+01  0.13596915237E+02  0.72461583593E+02  0.70000017324E+02 0.  0.
         12    1    1    2    0    0  0.12590153440E+02 -0.27001118200E+01 -0.13596915237E+02  0.18726416407E+02  0.00000000000E+00 0. -1.
         11    1    3    3    0    0  0.48305265678E+01 -0.14152173479E+02  0.16859411030E+02  0.22535699271E+02  0.51100000000E-03 0. -1.
        -11    1    3    3    0    0 -0.58229481509E+01  0.20070054254E+02  0.16608709114E+02  0.26693876107E+02  0.51100000000E-03 0.  1.
         12    1    3    3    0    0 -0.11597731857E+02 -0.32177689547E+01 -0.19871204907E+02  0.23232008215E+02  0.00000000000E+00 0. -1.
</event>
<event>
 7    1  0.2941727E-013  0.7246164E+02  0.7816164E-02  0.1226708E+00
        -11   -1    0    0    0    0  0.00000000000E+00  0.00000000000E+00  0.45593999997E+02  0.45594000000E+02  0.51100000000E-03 0.  1.
         11   -1    0    0    0    0 -0.00000000000E+00 -0.00000000000E+00 -0.45593999997E+02  0.45594000000E+02  0.51100000000E-03 0. -1.
    9900012    2    1    2    0    0  0.59899800314E+01 -0.75793241602E-01  0.17742349545E+02  0.72461639629E+02  0.70000090321E+02 0.  0.
         12    1    1    2    0    0 -0.59899800314E+01  0.75793241602E-01 -0.17742349545E+02  0.18726360371E+02  0.00000000000E+00 0. -1.
         11    1    3    3    0    0  0.47424568128E+01  0.14447884935E+02 -0.18942191990E+02  0.24290716608E+02  0.51100000000E-03 0. -1.
        -11    1    3    3    0    0  0.77754144979E+01  0.38264841927E+01  0.28348948642E+01  0.91178770031E+01  0.51100000000E-03 0.  1.
        -12    1    3    3    0    0 -0.65278912793E+01 -0.18350162369E+02  0.33849646670E+02  0.39053046017E+02  0.00000000000E+00 0.  1.
</event>
<event>
 7    1  0.2941727E-013  0.7246159E+02  0.7816164E-02  0.1226708E+00
        -11   -1    0    0    0    0  0.00000000000E+00  0.00000000000E+00  0.45593999997E+02  0.45594000000E+02  0.51100000000E-03 0. -1.
         11   -1    0    0    0    0 -0.00000000000E+00 -0.00000000000E+00 -0.45593999997E+02  0.45594000000E+02  0.51100000000E-03 0.  1.
    9900012    2    1    2    0    0 -0.46604835491E+01  0.13710178846E+02 -0.11873888726E+02  0.72461592326E+02  0.70000028700E+02 0.  0.
         12    1    1    2    0    0  0.46604835491E+01 -0.13710178846E+02  0.11873888726E+02  0.18726407674E+02  0.00000000000E+00 0. -1.
         11    1    3    3    0    0  0.14045366368E+02  0.27947280980E+01  0.84251374077E+01  0.16615226816E+02  0.51100000000E-03 0. -1.
        -11    1    3    3    0    0 -0.54118875430E+01  0.21417701789E+02  0.74679034556E+01  0.23319006389E+02  0.51100000000E-03 0.  1.
        -12    1    3    3    0    0 -0.13293962374E+02 -0.10502251041E+02 -0.27766929589E+02  0.32527359120E+02  0.00000000000E+00 0.  1.
</event>
<event>
 7    1  0.2941727E-013  0.7246120E+02  0.7816164E-02  0.1226709E+00
        -11   -1    0    0    0    0  0.00000000000E+00  0.00000000000E+00  0.45593999997E+02  0.45594000000E+02  0.51100000000E-03 0.  1.
         11   -1    0    0    0    0 -0.00000000000E+00 -0.00000000000E+00 -0.45593999997E+02  0.45594000000E+02  0.51100000000E-03 0. -1.
    9900012    2    1    2    0    0 -0.15088910943E+02 -0.69692936197E+01 -0.86282469819E+01  0.72461202810E+02  0.69999521282E+02 0.  0.
         12    1    1    2    0    0  0.15088910943E+02  0.69692936197E+01  0.86282469819E+01  0.18726797190E+02  0.00000000000E+00 0. -1.
         11    1    3    3    0    0 -0.16061260527E+02  0.15143626772E+02 -0.10037131803E+02  0.24249485286E+02  0.51100000000E-03 0.  1.
        -11    1    3    3    0    0  0.10388482829E+02 -0.92657631103E+01 -0.18222579659E+02  0.22931143695E+02  0.51100000000E-03 0. -1.
        -12    1    3    3    0    0 -0.94161332445E+01 -0.12847157281E+02  0.19631464480E+02  0.25280573829E+02  0.00000000000E+00 0.  1.
</event>
<event>
 7    1  0.2941727E-013  0.7246159E+02  0.7816164E-02  0.1226708E+00
        -11   -1    0    0    0    0  0.00000000000E+00  0.00000000000E+00  0.45593999997E+02  0.45594000000E+02  0.51100000000E-03 0. -1.
         11   -1    0    0    0    0 -0.00000000000E+00 -0.00000000000E+00 -0.45593999997E+02  0.45594000000E+02  0.51100000000E-03 0.  1.
    9900012    2    1    2    0    0 -0.19171774247E+01  0.46702004323E+01 -0.18033083645E+02  0.72461589583E+02  0.70000025127E+02 0.  0.
         12    1    1    2    0    0  0.19171774247E+01 -0.46702004323E+01  0.18033083645E+02  0.18726410417E+02  0.00000000000E+00 0. -1.
         11    1    3    3    0    0  0.14773085701E+02  0.18874698401E+02  0.48208337727E+01  0.24448696068E+02  0.51100000000E-03 0. -1.
        -11    1    3    3    0    0  0.91344868825E+01 -0.20521991723E+01  0.26574297811E+01  0.97320247303E+01  0.51100000000E-03 0.  1.
        -12    1    3    3    0    0 -0.25824750009E+02 -0.12152298797E+02 -0.25511347199E+02  0.38280868785E+02  0.00000000000E+00 0.  1.
</event>
<event>
 7    1  0.2941727E-013  0.7246162E+02  0.7816164E-02  0.1226708E+00
        -11   -1    0    0    0    0  0.00000000000E+00  0.00000000000E+00  0.45593999997E+02  0.45594000000E+02  0.51100000000E-03 0. -1.
         11   -1    0    0    0    0 -0.00000000000E+00 -0.00000000000E+00 -0.45593999997E+02  0.45594000000E+02  0.51100000000E-03 0.  1.
    9900012    2    1    2    0    0  0.35415883960E+01 -0.13556326131E+02 -0.12424187337E+02  0.72461621345E+02  0.70000066503E+02 0.  0.
         12    1    1    2    0    0 -0.35415883960E+01  0.13556326131E+02  0.12424187337E+02  0.18726378655E+02  0.00000000000E+00 0. -1.
         11    1    3    3    0    0  0.14893445139E+02  0.20833490655E+02  0.36558654964E+01  0.25869178451E+02  0.51100000000E-03 0. -1.
        -11    1    3    3    0    0 -0.65989266132E+01 -0.57204249010E+01 -0.15185875301E+02  0.17517987967E+02  0.51100000000E-03 0.  1.
        -12    1    3    3    0    0 -0.47529301293E+01 -0.28669391885E+02 -0.89417753283E+00  0.29074454927E+02  0.00000000000E+00 0.  1.
</event>
<event>
 7    1  0.2941727E-013  0.7246159E+02  0.7816164E-02  0.1226708E+00
        -11   -1    0    0    0    0  0.00000000000E+00  0.00000000000E+00  0.45593999997E+02  0.45594000000E+02  0.51100000000E-03 0. -1.
         11   -1    0    0    0    0 -0.00000000000E+00 -0.00000000000E+00 -0.45593999997E+02  0.45594000000E+02  0.51100000000E-03 0.  1.
    9900012    2    1    2    0    0 -0.56277280897E+01  0.11864424623E+02 -0.13350752120E+02  0.72461588778E+02  0.70000024079E+02 0.  0.
         12    1    1    2    0    0  0.56277280897E+01 -0.11864424623E+02  0.13350752120E+02  0.18726411222E+02  0.00000000000E+00 0. -1.
         11    1    3    3    0    0  0.10119733786E+02  0.25409384551E+02  0.29010644854E+01  0.27503854468E+02  0.51100000000E-03 0. -1.
        -11    1    3    3    0    0  0.19415891377E+01  0.88915680364E+01 -0.13463512963E+02  0.16251028647E+02  0.51100000000E-03 0.  1.
        -12    1    3    3    0    0 -0.17689051013E+02 -0.22436527965E+02 -0.27883036428E+01  0.28706705664E+02  0.00000000000E+00 0.  1.
</event>
<event>
 7    1  0.2941727E-013  0.7246182E+02  0.7816164E-02  0.1226707E+00
        -11   -1    0    0    0    0  0.00000000000E+00  0.00000000000E+00  0.45593999997E+02  0.45594000000E+02  0.51100000000E-03 0. -1.
         11   -1    0    0    0    0 -0.00000000000E+00 -0.00000000000E+00 -0.45593999997E+02  0.45594000000E+02  0.51100000000E-03 0.  1.
    9900012    2    1    2    0    0 -0.48985431691E+01  0.14703796775E+02 -0.10510587899E+02  0.72461819857E+02  0.70000325101E+02 0.  0.
         12    1    1    2    0    0  0.48985431691E+01 -0.14703796775E+02  0.10510587899E+02  0.18726180143E+02  0.00000000000E+00 0. -1.
         11    1    3    3    0    0  0.97255409925E+00  0.70905584113E+01 -0.29520880710E+01  0.77418798945E+01  0.51100000000E-03 0. -1.
        -11    1    3    3    0    0 -0.34327205319E+02  0.20603909912E+01  0.12709413859E+01  0.34412461818E+02  0.51100000000E-03 0.  1.
         12    1    3    3    0    0  0.28456108051E+02  0.55528473722E+01 -0.88294412139E+01  0.30307478145E+02  0.00000000000E+00 0. -1.
</event>
<event>
 7    1  0.2941727E-013  0.7246158E+02  0.7816164E-02  0.1226708E+00
        -11   -1    0    0    0    0  0.00000000000E+00  0.00000000000E+00  0.45593999997E+02  0.45594000000E+02  0.51100000000E-03 0. -1.
         11   -1    0    0    0    0 -0.00000000000E+00 -0.00000000000E+00 -0.45593999997E+02  0.45594000000E+02  0.51100000000E-03 0.  1.
    9900012    2    1    2    0    0 -0.24282553098E+01  0.13696127720E+02 -0.12537882442E+02  0.72461579239E+02  0.70000011652E+02 0.  0.
         12    1    1    2    0    0  0.24282553098E+01 -0.13696127720E+02  0.12537882442E+02  0.18726420761E+02  0.00000000000E+00 0. -1.
         11    1    3    3    0    0  0.49467316102E+01 -0.24941373305E+01 -0.90461616395E+01  0.10607729037E+02  0.51100000000E-03 0. -1.
        -11    1    3    3    0    0 -0.15058686295E+02 -0.10032715284E+02 -0.22272663594E+02  0.28696532068E+02  0.51100000000E-03 0.  1.
         12    1    3    3    0    0  0.76836993752E+01  0.26222980334E+02  0.18780942792E+02  0.33157318134E+02  0.00000000000E+00 0. -1.
</event>
<event>
 7    1  0.2941727E-013  0.7246159E+02  0.7816164E-02  0.1226708E+00
        -11   -1    0    0    0    0  0.00000000000E+00  0.00000000000E+00  0.45593999997E+02  0.45594000000E+02  0.51100000000E-03 0.  1.
         11   -1    0    0    0    0 -0.00000000000E+00 -0.00000000000E+00 -0.45593999997E+02  0.45594000000E+02  0.51100000000E-03 0. -1.
    9900012    2    1    2    0    0  0.17037925524E+02  0.69250900292E+01 -0.35257237664E+01  0.72461588006E+02  0.70000023073E+02 0.  0.
         12    1    1    2    0    0 -0.17037925524E+02 -0.69250900292E+01  0.35257237664E+01  0.18726411994E+02  0.00000000000E+00 0. -1.
         11    1    3    3    0    0  0.32547735594E+02  0.82996580663E+01 -0.17214475674E+02  0.37743576795E+02  0.51100000000E-03 0. -1.
        -11    1    3    3    0    0 -0.31753972903E+01  0.74830344031E+01 -0.58187327624E+01  0.99968296500E+01  0.51100000000E-03 0.  1.
        -12    1    3    3    0    0 -0.12334412779E+02 -0.88576024402E+01  0.19507484670E+02  0.24721181561E+02  0.00000000000E+00 0.  1.
</event>
<event>
 7    1  0.2941727E-013  0.7246161E+02  0.7816164E-02  0.1226708E+00
        -11   -1    0    0    0    0  0.00000000000E+00  0.00000000000E+00  0.45593999997E+02  0.45594000000E+02  0.51100000000E-03 0. -1.
         11   -1    0    0    0    0 -0.00000000000E+00 -0.00000000000E+00 -0.45593999997E+02  0.45594000000E+02  0.51100000000E-03 0.  1.
    9900012    2    1    2    0    0 -0.13148783515E+02  0.93950049922E+01  0.94615528930E+01  0.72461611937E+02  0.70000054248E+02 0.  0.
         12    1    1    2    0    0  0.13148783515E+02 -0.93950049922E+01 -0.94615528930E+01  0.18726388063E+02  0.00000000000E+00 0. -1.
         11    1    3    3    0    0 -0.19722688354E+02  0.74959163733E+01  0.24041174188E+02  0.31986735607E+02  0.51100000000E-03 0. -1.
        -11    1    3    3    0    0  0.64464561826E+01 -0.10748387138E+02  0.78043894383E+01  0.14764590009E+02  0.51100000000E-03 0.  1.
        -12    1    3    3    0    0  0.12744865623E+00  0.12647475757E+02 -0.22384010734E+02  0.25710286321E+02  0.00000000000E+00 0.  1.
</event>
<event>
 7    1  0.2941727E-013  0.7246160E+02  0.7816164E-02  0.1226708E+00
        -11   -1    0    0    0    0  0.00000000000E+00  0.00000000000E+00  0.45593999997E+02  0.45594000000E+02  0.51100000000E-03 0.  1.
         11   -1    0    0    0    0 -0.00000000000E+00 -0.00000000000E+00 -0.45593999997E+02  0.45594000000E+02  0.51100000000E-03 0. -1.
    9900012    2    1    2    0    0  0.15219508727E+02  0.10071209602E+02 -0.41970790701E+01  0.72461596676E+02  0.70000034366E+02 0.  0.
         12    1    1    2    0    0 -0.15219508727E+02 -0.10071209602E+02  0.41970790701E+01  0.18726403324E+02  0.00000000000E+00 0. -1.
         11    1    3    3    0    0  0.59119557742E+01  0.68254910290E+00 -0.18673847872E+02  0.19599226744E+02  0.51100000000E-03 0. -1.
        -11    1    3    3    0    0 -0.25324974144E+01 -0.18457422609E+02 -0.14155642710E+01  0.18684052424E+02  0.51100000000E-03 0.  1.
        -12    1    3    3    0    0  0.11840050368E+02  0.27846083108E+02  0.15892333073E+02  0.34178317508E+02  0.00000000000E+00 0.  1.
</event>
<event>
 7    1  0.2941727E-013  0.7246112E+02  0.7816164E-02  0.1226709E+00
        -11   -1    0    0    0    0  0.00000000000E+00  0.00000000000E+00  0.45593999997E+02  0.45594000000E+02  0.51100000000E-03 0. -1.
         11   -1    0    0    0    0 -0.00000000000E+00 -0.00000000000E+00 -0.45593999997E+02  0.45594000000E+02  0.51100000000E-03 0.  1.
    9900012    2    1    2    0    0 -0.15001409833E+02 -0.10340133335E+02  0.43284518718E+01  0.72461116918E+02  0.69999409390E+02 0.  0.
         12    1    1    2    0    0  0.15001409833E+02  0.10340133335E+02 -0.43284518718E+01  0.18726883082E+02  0.00000000000E+00 0. -1.
         11    1    3    3    0    0  0.42031067471E+01  0.10762442714E+02  0.24355264082E+02  0.26956913182E+02  0.51100000000E-03 0. -1.
        -11    1    3    3    0    0  0.77395632743E+01 -0.69914605348E+01 -0.56521662176E+01  0.11862897761E+02  0.51100000000E-03 0.  1.
        -12    1    3    3    0    0 -0.26944079855E+02 -0.14111115514E+02 -0.14374645993E+02  0.33641305975E+02  0.00000000000E+00 0.  1.
</event>
<event>
 7    1  0.2941727E-013  0.7246156E+02  0.7816164E-02  0.1226708E+00
        -11   -1    0    0    0    0  0.00000000000E+00  0.00000000000E+00  0.45593999997E+02  0.45594000000E+02  0.51100000000E-03 0. -1.
         11   -1    0    0    0    0 -0.00000000000E+00 -0.00000000000E+00 -0.45593999997E+02  0.45594000000E+02  0.51100000000E-03 0.  1.
    9900012    2    1    2    0    0  0.33327247579E+01 -0.63643972433E+00 -0.18416503844E+02  0.72461555498E+02  0.69999980725E+02 0.  0.
         12    1    1    2    0    0 -0.33327247579E+01  0.63643972433E+00  0.18416503844E+02  0.18726444502E+02  0.00000000000E+00 0. -1.
         11    1    3    3    0    0 -0.83496190263E+01  0.13640173877E+02  0.81152714080E+00  0.16013402444E+02  0.51100000000E-03 0. -1.
        -11    1    3    3    0    0 -0.15055772501E+02 -0.97809996339E+01 -0.22887159967E+02  0.29088938293E+02  0.51100000000E-03 0.  1.
         12    1    3    3    0    0  0.26738116285E+02 -0.44956139673E+01  0.36591289816E+01  0.27359214761E+02  0.00000000000E+00 0. -1.
</event>
<event>
 7    1  0.2941727E-013  0.7246154E+02  0.7816164E-02  0.1226708E+00
        -11   -1    0    0    0    0  0.00000000000E+00  0.00000000000E+00  0.45593999997E+02  0.45594000000E+02  0.51100000000E-03 0.  1.
         11   -1    0    0    0    0 -0.00000000000E+00 -0.00000000000E+00 -0.45593999997E+02  0.45594000000E+02  0.51100000000E-03 0. -1.
    9900012    2    1    2    0    0  0.87645176355E+01  0.16444493762E+02  0.18553378714E+01  0.72461536824E+02  0.69999956398E+02 0.  0.
         12    1    1    2    0    0 -0.87645176355E+01 -0.16444493762E+02 -0.18553378714E+01  0.18726463176E+02  0.00000000000E+00 0. -1.
         11    1    3    3    0    0 -0.13814418756E+02  0.68317651580E+01 -0.14205140998E+02  0.20959418211E+02  0.51100000000E-03 0. -1.
        -11    1    3    3    0    0 -0.12358242668E+02 -0.76208223452E+00  0.55729514640E+01  0.13578097048E+02  0.51100000000E-03 0.  1.
         12    1    3    3    0    0  0.34937179059E+02  0.10374810839E+02  0.10487527405E+02  0.37924021564E+02  0.00000000000E+00 0. -1.
</event>
<event>
 7    1  0.2941727E-013  0.7246172E+02  0.7816164E-02  0.1226708E+00
        -11   -1    0    0    0    0  0.00000000000E+00  0.00000000000E+00  0.45593999997E+02  0.45594000000E+02  0.51100000000E-03 0. -1.
         11   -1    0    0    0    0 -0.00000000000E+00 -0.00000000000E+00 -0.45593999997E+02  0.45594000000E+02  0.51100000000E-03 0.  1.
    9900012    2    1    2    0    0 -0.17966231002E+02 -0.35423793175E+01 -0.39165854309E+01  0.72461720362E+02  0.70000195490E+02 0.  0.
         12    1    1    2    0    0  0.17966231002E+02  0.35423793175E+01  0.39165854309E+01  0.18726279638E+02  0.00000000000E+00 0. -1.
         11    1    3    3    0    0 -0.58773993350E+01 -0.10277769461E+00  0.20556177603E+02  0.21380150235E+02  0.51100000000E-03 0. -1.
        -11    1    3    3    0    0 -0.97341505669E+01  0.19355905684E+02 -0.14616199160E+02  0.26134996657E+02  0.51100000000E-03 0.  1.
         12    1    3    3    0    0 -0.23546811002E+01 -0.22795507307E+02 -0.98565638740E+01  0.24946573470E+02  0.00000000000E+00 0. -1.
</event>
<event>
 7    1  0.2941727E-013  0.7246155E+02  0.7816164E-02  0.1226708E+00
        -11   -1    0    0    0    0  0.00000000000E+00  0.00000000000E+00  0.45593999997E+02  0.45594000000E+02  0.51100000000E-03 0.  1.
         11   -1    0    0    0    0 -0.00000000000E+00 -0.00000000000E+00 -0.45593999997E+02  0.45594000000E+02  0.51100000000E-03 0. -1.
    9900012    2    1    2    0    0  0.16743639967E+02  0.79967523331E+01  0.25263137969E+01  0.72461553764E+02  0.69999978467E+02 0.  0.
         12    1    1    2    0    0 -0.16743639967E+02 -0.79967523331E+01 -0.25263137969E+01  0.18726446236E+02  0.00000000000E+00 0. -1.
         11    1    3    3    0    0  0.25090347507E+01 -0.23142827838E+02  0.14988079248E+01  0.23326640589E+02  0.51100000000E-03 0. -1.
        -11    1    3    3    0    0 -0.48539414459E+01 -0.34252132960E+01  0.70210913832E+01  0.91972038226E+01  0.51100000000E-03 0.  1.
        -12    1    3    3    0    0  0.19088546662E+02  0.34564793467E+02 -0.59935855111E+01  0.39937709353E+02  0.00000000000E+00 0.  1.
</event>
<event>
 7    1  0.2941727E-013  0.7246158E+02  0.7816164E-02  0.1226708E+00
        -11   -1    0    0    0    0  0.00000000000E+00  0.00000000000E+00  0.45593999997E+02  0.45594000000E+02  0.51100000000E-03 0.  1.
         11   -1    0    0    0    0 -0.00000000000E+00 -0.00000000000E+00 -0.45593999997E+02  0.45594000000E+02  0.51100000000E-03 0. -1.
    9900012    2    1    2    0    0  0.15461336866E+02  0.77998871608E+01 -0.71265452096E+01  0.72461579519E+02  0.70000012017E+02 0.  0.
         12    1    1    2    0    0 -0.15461336866E+02 -0.77998871608E+01  0.71265452096E+01  0.18726420481E+02  0.00000000000E+00 0. -1.
         11    1    3    3    0    0  0.11540789825E+02 -0.98854043824E+01  0.15260465781E+02  0.21535850707E+02  0.51100000000E-03 0. -1.
        -11    1    3    3    0    0 -0.16161681351E+02  0.18284688382E+02 -0.63425007679E+01  0.25214223953E+02  0.51100000000E-03 0.  1.
         12    1    3    3    0    0  0.20082228393E+02 -0.59939683855E+00 -0.16044510223E+02  0.25711504858E+02  0.00000000000E+00 0. -1.
</event>
<event>
 7    1  0.2941727E-013  0.7246159E+02  0.7816164E-02  0.1226708E+00
        -11   -1    0    0    0    0  0.00000000000E+00  0.00000000000E+00  0.45593999997E+02  0.45594000000E+02  0.51100000000E-03 0. -1.
         11   -1    0    0    0    0 -0.00000000000E+00 -0.00000000000E+00 -0.45593999997E+02  0.45594000000E+02  0.51100000000E-03 0.  1.
    9900012    2    1    2    0    0 -0.16248219733E+02  0.40221164843E+01 -0.83962131432E+01  0.72461589222E+02  0.70000024656E+02 0.  0.
         12    1    1    2    0    0  0.16248219733E+02 -0.40221164843E+01  0.83962131432E+01  0.18726410778E+02  0.00000000000E+00 0. -1.
         11    1    3    3    0    0  0.93293501216E+01 -0.10973357596E+02 -0.12313160082E+02  0.18949017444E+02  0.51100000000E-03 0.  1.
        -11    1    3    3    0    0 -0.22836749533E+02 -0.24675329449E+01  0.19359905250E+02  0.30040169434E+02  0.51100000000E-03 0. -1.
         12    1    3    3    0    0 -0.27408203211E+01  0.17463007025E+02 -0.15442958311E+02  0.23472402344E+02  0.00000000000E+00 0. -1.
</event>
<event>
 7    1  0.2941727E-013  0.7246155E+02  0.7816164E-02  0.1226708E+00
        -11   -1    0    0    0    0  0.00000000000E+00  0.00000000000E+00  0.45593999997E+02  0.45594000000E+02  0.51100000000E-03 0. -1.
         11   -1    0    0    0    0 -0.00000000000E+00 -0.00000000000E+00 -0.45593999997E+02  0.45594000000E+02  0.51100000000E-03 0.  1.
    9900012    2    1    2    0    0  0.17702187652E+01  0.18064965211E+02 -0.46047038464E+01  0.72461549720E+02  0.69999973199E+02 0.  0.
         12    1    1    2    0    0 -0.17702187652E+01 -0.18064965211E+02  0.46047038464E+01  0.18726450280E+02  0.00000000000E+00 0. -1.
         11    1    3    3    0    0  0.47711164771E+01  0.10552116113E+02  0.20911162653E+02  0.23903711650E+02  0.51100000000E-03 0. -1.
        -11    1    3    3    0    0  0.10208146253E+02 -0.12092828836E+02 -0.34022669246E+01  0.16186975618E+02  0.51100000000E-03 0.  1.
         12    1    3    3    0    0 -0.13209043965E+02  0.19605677934E+02 -0.22113599575E+02  0.32370862452E+02  0.00000000000E+00 0. -1.
</event>
<event>
 7    1  0.2941727E-013  0.7246157E+02  0.7816164E-02  0.1226708E+00
        -11   -1    0    0    0    0  0.00000000000E+00  0.00000000000E+00  0.45593999997E+02  0.45594000000E+02  0.51100000000E-03 0. -1.
         11   -1    0    0    0    0 -0.00000000000E+00 -0.00000000000E+00 -0.45593999997E+02  0.45594000000E+02  0.51100000000E-03 0.  1.
    9900012    2    1    2    0    0  0.90007402313E+01  0.81856796501E+00 -0.16401092530E+02  0.72461569096E+02  0.69999998439E+02 0.  0.
         12    1    1    2    0    0 -0.90007402313E+01 -0.81856796501E+00  0.16401092530E+02  0.18726430904E+02  0.00000000000E+00 0. -1.
         11    1    3    3    0    0  0.10386440362E+02 -0.19612305182E+01  0.22332222539E+00  0.10572343241E+02  0.51100000000E-03 0. -1.
        -11    1    3    3    0    0  0.67717821431E+01 -0.24382759462E+02  0.55275383840E+01  0.25902310191E+02  0.51100000000E-03 0.  1.
        -12    1    3    3    0    0 -0.81574822736E+01  0.27162557945E+02 -0.22151953139E+02  0.35986915664E+02  0.00000000000E+00 0.  1.
</event>
<event>
 7    1  0.2941727E-013  0.7246158E+02  0.7816164E-02  0.1226708E+00
        -11   -1    0    0    0    0  0.00000000000E+00  0.00000000000E+00  0.45593999997E+02  0.45594000000E+02  0.51100000000E-03 0.  1.
         11   -1    0    0    0    0 -0.00000000000E+00 -0.00000000000E+00 -0.45593999997E+02  0.45594000000E+02  0.51100000000E-03 0. -1.
    9900012    2    1    2    0    0 -0.16654575556E+02 -0.56463888002E+01 -0.64360021427E+01  0.72461582376E+02  0.70000015739E+02 0.  0.
         12    1    1    2    0    0  0.16654575556E+02  0.56463888002E+01  0.64360021427E+01  0.18726417624E+02  0.00000000000E+00 0. -1.
         11    1    3    3    0    0  0.63853027806E+01 -0.22839902832E+02 -0.42613939667E+01  0.24095491939E+02  0.51100000000E-03 0. -1.
        -11    1    3    3    0    0  0.63460459763E+01  0.11977816712E+02 -0.10764438818E+02  0.17309348227E+02  0.51100000000E-03 0.  1.
        -12    1    3    3    0    0 -0.29385924313E+02  0.52156973196E+01  0.85898306423E+01  0.31056742210E+02  0.00000000000E+00 0.  1.
</event>
<event>
 7    1  0.2941727E-013  0.7246154E+02  0.7816164E-02  0.1226708E+00
        -11   -1    0    0    0    0  0.00000000000E+00  0.00000000000E+00  0.45593999997E+02  0.45594000000E+02  0.51100000000E-03 0.  1.
         11   -1    0    0    0    0 -0.00000000000E+00 -0.00000000000E+00 -0.45593999997E+02  0.45594000000E+02  0.51100000000E-03 0. -1.
    9900012    2    1    2    0    0 -0.15854985337E+02 -0.87789373557E+01  0.47148829106E+01  0.72461536853E+02  0.69999956436E+02 0.  0.
         12    1    1    2    0    0  0.15854985337E+02  0.87789373557E+01 -0.47148829106E+01  0.18726463147E+02  0.00000000000E+00 0. -1.
         11    1    3    3    0    0 -0.14455940650E+02  0.14103459350E+01  0.11339431303E+01  0.14568772186E+02  0.51100000000E-03 0. -1.
        -11    1    3    3    0    0 -0.45545920594E+01 -0.28518671107E+02  0.18286337637E+02  0.34182584088E+02  0.51100000000E-03 0.  1.
        -12    1    3    3    0    0  0.31555473722E+01  0.18329387816E+02 -0.14705397857E+02  0.23710180578E+02  0.00000000000E+00 0.  1.
</event>
<event>
 7    1  0.2941727E-013  0.7246154E+02  0.7816164E-02  0.1226708E+00
        -11   -1    0    0    0    0  0.00000000000E+00  0.00000000000E+00  0.45593999997E+02  0.45594000000E+02  0.51100000000E-03 0. -1.
         11   -1    0    0    0    0 -0.00000000000E+00 -0.00000000000E+00 -0.45593999997E+02  0.45594000000E+02  0.51100000000E-03 0.  1.
    9900012    2    1    2    0    0  0.12455518880E+02  0.98321515579E+01 -0.99432950971E+01  0.72461540852E+02  0.69999961646E+02 0.  0.
         12    1    1    2    0    0 -0.12455518880E+02 -0.98321515579E+01  0.99432950971E+01  0.18726459148E+02  0.00000000000E+00 0. -1.
         11    1    3    3    0    0  0.62869681855E+01 -0.16891974226E+02 -0.42707307208E+01  0.18523064092E+02  0.51100000000E-03 0. -1.
        -11    1    3    3    0    0 -0.77230218853E+01 -0.93263390975E+01 -0.91076502811E+01  0.15151731317E+02  0.51100000000E-03 0.  1.
        -12    1    3    3    0    0  0.13891572580E+02  0.36050464881E+02  0.34350859047E+01  0.38786745443E+02  0.00000000000E+00 0.  1.
</event>
<event>
 7    1  0.2941727E-013  0.7246119E+02  0.7816164E-02  0.1226709E+00
        -11   -1    0    0    0    0  0.00000000000E+00  0.00000000000E+00  0.45593999997E+02  0.45594000000E+02  0.51100000000E-03 0. -1.
         11   -1    0    0    0    0 -0.00000000000E+00 -0.00000000000E+00 -0.45593999997E+02  0.45594000000E+02  0.51100000000E-03 0.  1.
    9900012    2    1    2    0    0  0.99794690040E+01 -0.13358072932E+02 -0.85244149191E+01  0.72461185969E+02  0.69999499343E+02 0.  0.
         12    1    1    2    0    0 -0.99794690040E+01  0.13358072932E+02  0.85244149191E+01  0.18726814031E+02  0.00000000000E+00 0. -1.
         11    1    3    3    0    0  0.18002812940E+01  0.48707951623E+01  0.23814221566E+02  0.24373813967E+02  0.51100000000E-03 0. -1.
        -11    1    3    3    0    0  0.22513073521E+01  0.78264550180E+01 -0.12017796824E+02  0.14517204404E+02  0.51100000000E-03 0.  1.
        -12    1    3    3    0    0  0.59278803578E+01 -0.26055323112E+02 -0.20320839661E+02  0.33570167598E+02  0.00000000000E+00 0.  1.
</event>
<event>
 7    1  0.2941727E-013  0.7246128E+02  0.7816164E-02  0.1226709E+00
        -11   -1    0    0    0    0  0.00000000000E+00  0.00000000000E+00  0.45593999997E+02  0.45594000000E+02  0.51100000000E-03 0. -1.
         11   -1    0    0    0    0 -0.00000000000E+00 -0.00000000000E+00 -0.45593999997E+02  0.45594000000E+02  0.51100000000E-03 0.  1.
    9900012    2    1    2    0    0 -0.47919909084E+01 -0.15473227297E+02 -0.93971255605E+01  0.72461283559E+02  0.69999626473E+02 0.  0.
         12    1    1    2    0    0  0.47919909084E+01  0.15473227297E+02  0.93971255605E+01  0.18726716441E+02  0.00000000000E+00 0. -1.
         11    1    3    3    0    0  0.66587958385E+01  0.47687295122E+01  0.77652272645E+01  0.11286234886E+02  0.51100000000E-03 0. -1.
        -11    1    3    3    0    0  0.20807299188E+02 -0.13625581870E+02 -0.20882664914E+01  0.24959187447E+02  0.51100000000E-03 0.  1.
        -12    1    3    3    0    0 -0.32258085935E+02 -0.66163749389E+01 -0.15074086334E+02  0.36215861226E+02  0.00000000000E+00 0.  1.
</event>
<event>
 7    1  0.2941727E-013  0.7246176E+02  0.7816164E-02  0.1226708E+00
        -11   -1    0    0    0    0  0.00000000000E+00  0.00000000000E+00  0.45593999997E+02  0.45594000000E+02  0.51100000000E-03 0. -1.
         11   -1    0    0    0    0 -0.00000000000E+00 -0.00000000000E+00 -0.45593999997E+02  0.45594000000E+02  0.51100000000E-03 0.  1.
    9900012    2    1    2    0    0  0.87034725981E+01 -0.13839398683E+02 -0.91319657040E+01  0.72461756682E+02  0.70000242805E+02 0.  0.
         12    1    1    2    0    0 -0.87034725981E+01  0.13839398683E+02  0.91319657040E+01  0.18726243318E+02  0.00000000000E+00 0. -1.
         11    1    3    3    0    0  0.16931156950E+01 -0.21704749514E+02  0.56936116286E+01  0.22502888833E+02  0.51100000000E-03 0. -1.
        -11    1    3    3    0    0  0.24620968012E+02  0.11731971075E+02 -0.10939546937E+01  0.27295200096E+02  0.51100000000E-03 0.  1.
         12    1    3    3    0    0 -0.17610611109E+02 -0.38666202440E+01 -0.13731622639E+02  0.22663667753E+02  0.00000000000E+00 0. -1.
</event>
<event>
 7    1  0.2941727E-013  0.7246147E+02  0.7816164E-02  0.1226708E+00
        -11   -1    0    0    0    0  0.00000000000E+00  0.00000000000E+00  0.45593999997E+02  0.45594000000E+02  0.51100000000E-03 0. -1.
         11   -1    0    0    0    0 -0.00000000000E+00 -0.00000000000E+00 -0.45593999997E+02  0.45594000000E+02  0.51100000000E-03 0.  1.
    9900012    2    1    2    0    0 -0.11539296156E+02  0.13069236344E+02  0.68354008395E+01  0.72461468046E+02  0.69999866802E+02 0.  0.
         12    1    1    2    0    0  0.11539296156E+02 -0.13069236344E+02 -0.68354008395E+01  0.18726531954E+02  0.00000000000E+00 0. -1.
         11    1    3    3    0    0 -0.33924572172E+00 -0.45777115088E+01  0.26888345578E+02  0.27277346985E+02  0.51100000000E-03 0. -1.
        -11    1    3    3    0    0 -0.15629358415E+02  0.14631426146E+01  0.36758123694E+01  0.16122320789E+02  0.51100000000E-03 0.  1.
        -12    1    3    3    0    0  0.44293079807E+01  0.16183805238E+02 -0.23728757108E+02  0.29061800272E+02  0.00000000000E+00 0.  1.
</event>
<event>
 7    1  0.2941727E-013  0.7246156E+02  0.7816164E-02  0.1226708E+00
        -11   -1    0    0    0    0  0.00000000000E+00  0.00000000000E+00  0.45593999997E+02  0.45594000000E+02  0.51100000000E-03 0. -1.
         11   -1    0    0    0    0 -0.00000000000E+00 -0.00000000000E+00 -0.45593999997E+02  0.45594000000E+02  0.51100000000E-03 0.  1.
    9900012    2    1    2    0    0  0.21072212692E+01 -0.31700619346E+01 -0.18335481585E+02  0.72461559892E+02  0.69999986449E+02 0.  0.
         12    1    1    2    0    0 -0.21072212692E+01  0.31700619346E+01  0.18335481585E+02  0.18726440108E+02  0.00000000000E+00 0. -1.
         11    1    3    3    0    0 -0.11898655953E+02  0.19233156467E+02 -0.23996849725E+02  0.32974855847E+02  0.51100000000E-03 0. -1.
        -11    1    3    3    0    0  0.33871790677E+01  0.61586274082E+01  0.56449273972E+01  0.90148144279E+01  0.51100000000E-03 0.  1.
        -12    1    3    3    0    0  0.10618698155E+02 -0.28561845810E+02  0.16440742309E-01  0.30471889617E+02  0.00000000000E+00 0.  1.
</event>
<event>
 7    1  0.2941727E-013  0.7246156E+02  0.7816164E-02  0.1226708E+00
        -11   -1    0    0    0    0  0.00000000000E+00  0.00000000000E+00  0.45593999997E+02  0.45594000000E+02  0.51100000000E-03 0. -1.
         11   -1    0    0    0    0 -0.00000000000E+00 -0.00000000000E+00 -0.45593999997E+02  0.45594000000E+02  0.51100000000E-03 0.  1.
    9900012    2    1    2    0    0 -0.10684565753E+02  0.16503195390E+01 -0.15290395507E+02  0.72461556273E+02  0.69999981734E+02 0.  0.
         12    1    1    2    0    0  0.10684565753E+02 -0.16503195390E+01  0.15290395507E+02  0.18726443727E+02  0.00000000000E+00 0. -1.
         11    1    3    3    0    0 -0.15385287651E+02 -0.48010915805E+01 -0.14753946396E+01  0.16184385873E+02  0.51100000000E-03 0. -1.
        -11    1    3    3    0    0 -0.43740087369E+01 -0.72224850278E+01 -0.31227988664E+02  0.32349397500E+02  0.51100000000E-03 0.  1.
         12    1    3    3    0    0  0.90747306345E+01  0.13673896147E+02  0.17412987796E+02  0.23927772900E+02  0.00000000000E+00 0. -1.
</event>
<event>
 7    1  0.2941727E-013  0.7246166E+02  0.7816164E-02  0.1226708E+00
        -11   -1    0    0    0    0  0.00000000000E+00  0.00000000000E+00  0.45593999997E+02  0.45594000000E+02  0.51100000000E-03 0. -1.
         11   -1    0    0    0    0 -0.00000000000E+00 -0.00000000000E+00 -0.45593999997E+02  0.45594000000E+02  0.51100000000E-03 0.  1.
    9900012    2    1    2    0    0  0.16393429659E+02  0.49587411504E+01  0.75724548740E+01  0.72461662328E+02  0.70000119891E+02 0.  0.
         12    1    1    2    0    0 -0.16393429659E+02 -0.49587411504E+01 -0.75724548740E+01  0.18726337672E+02  0.00000000000E+00 0. -1.
         11    1    3    3    0    0  0.78378730955E+01 -0.12060672047E+02  0.53453246400E+01  0.15344854534E+02  0.51100000000E-03 0. -1.
        -11    1    3    3    0    0  0.79042807066E+00 -0.16567879380E+02 -0.11315566025E+02  0.20078880407E+02  0.51100000000E-03 0.  1.
         12    1    3    3    0    0  0.77651284930E+01  0.33587292577E+02  0.13542696259E+02  0.37037927387E+02  0.00000000000E+00 0. -1.
</event>
<event>
 7    1  0.2941727E-013  0.7246163E+02  0.7816164E-02  0.1226708E+00
        -11   -1    0    0    0    0  0.00000000000E+00  0.00000000000E+00  0.45593999997E+02  0.45594000000E+02  0.51100000000E-03 0. -1.
         11   -1    0    0    0    0 -0.00000000000E+00 -0.00000000000E+00 -0.45593999997E+02  0.45594000000E+02  0.51100000000E-03 0.  1.
    9900012    2    1    2    0    0  0.11965195660E+02  0.72920228819E+01 -0.12423265766E+02  0.72461627228E+02  0.70000074167E+02 0.  0.
         12    1    1    2    0    0 -0.11965195660E+02 -0.72920228819E+01  0.12423265766E+02  0.18726372772E+02  0.00000000000E+00 0. -1.
         11    1    3    3    0    0  0.14445491595E+00  0.14248921690E+02  0.19907732059E+02  0.24482043063E+02  0.51100000000E-03 0.  1.
        -11    1    3    3    0    0  0.46986643725E+01  0.23651125485E+01  0.59496913262E+01  0.79416642708E+01  0.51100000000E-03 0. -1.
        -12    1    3    3    0    0  0.71220763716E+01 -0.93220113564E+01 -0.38280689151E+02  0.40037919894E+02  0.00000000000E+00 0.  1.
</event>
<event>
 7    1  0.2941727E-013  0.7246156E+02  0.7816164E-02  0.1226708E+00
        -11   -1    0    0    0    0  0.00000000000E+00  0.00000000000E+00  0.45593999997E+02  0.45594000000E+02  0.51100000000E-03 0. -1.
         11   -1    0    0    0    0 -0.00000000000E+00 -0.00000000000E+00 -0.45593999997E+02  0.45594000000E+02  0.51100000000E-03 0.  1.
    9900012    2    1    2    0    0  0.15223239060E+02 -0.30148258638E+01 -0.10480612214E+02  0.72461563744E+02  0.69999991467E+02 0.  0.
         12    1    1    2    0    0 -0.15223239060E+02  0.30148258638E+01  0.10480612214E+02  0.18726436256E+02  0.00000000000E+00 0. -1.
         11    1    3    3    0    0  0.10061381634E+02 -0.12106794665E+02  0.11203615546E+02  0.19321668640E+02  0.51100000000E-03 0. -1.
        -11    1    3    3    0    0  0.54948056019E+01 -0.13064659436E+02  0.78618005687E+01  0.16207594616E+02  0.51100000000E-03 0.  1.
        -12    1    3    3    0    0 -0.33294817581E+00  0.22156628238E+02 -0.29546028329E+02  0.36932300488E+02  0.00000000000E+00 0.  1.
</event>
<event>
 7    1  0.2941727E-013  0.7246157E+02  0.7816164E-02  0.1226708E+00
        -11   -1    0    0    0    0  0.00000000000E+00  0.00000000000E+00  0.45593999997E+02  0.45594000000E+02  0.51100000000E-03 0. -1.
         11   -1    0    0    0    0 -0.00000000000E+00 -0.00000000000E+00 -0.45593999997E+02  0.45594000000E+02  0.51100000000E-03 0.  1.
    9900012    2    1    2    0    0 -0.15229618724E+02  0.90379274057E+01 -0.60871897697E+01  0.72461566876E+02  0.69999995546E+02 0.  0.
         12    1    1    2    0    0  0.15229618724E+02 -0.90379274057E+01  0.60871897697E+01  0.18726433124E+02  0.00000000000E+00 0. -1.
         11    1    3    3    0    0  0.15898146765E+02  0.10097503364E+02 -0.10675505688E+02  0.21648950707E+02  0.51100000000E-03 0. -1.
        -11    1    3    3    0    0  0.41724333363E+01  0.11643376221E+02  0.48771278647E+01  0.13295254275E+02  0.51100000000E-03 0.  1.
        -12    1    3    3    0    0 -0.35300198825E+02 -0.12702952179E+02 -0.28881194613E+00  0.37517361894E+02  0.00000000000E+00 0.  1.
</event>
<event>
 7    1  0.2941727E-013  0.7246153E+02  0.7816164E-02  0.1226708E+00
        -11   -1    0    0    0    0  0.00000000000E+00  0.00000000000E+00  0.45593999997E+02  0.45594000000E+02  0.51100000000E-03 0.  1.
         11   -1    0    0    0    0 -0.00000000000E+00 -0.00000000000E+00 -0.45593999997E+02  0.45594000000E+02  0.51100000000E-03 0. -1.
    9900012    2    1    2    0    0 -0.29360317399E+01 -0.18462452987E+02  0.10946428552E+01  0.72461529546E+02  0.69999946918E+02 0.  0.
         12    1    1    2    0    0  0.29360317399E+01  0.18462452987E+02 -0.10946428552E+01  0.18726470454E+02  0.00000000000E+00 0. -1.
         11    1    3    3    0    0  0.91193367268E-01 -0.64895631796E+01 -0.17784424181E+02  0.18931679539E+02  0.51100000000E-03 0. -1.
        -11    1    3    3    0    0 -0.32616801347E+01 -0.27558300995E+02 -0.15963787581E+01  0.27796527417E+02  0.51100000000E-03 0.  1.
        -12    1    3    3    0    0  0.23445502753E+00  0.15585411188E+02  0.20475445794E+02  0.25733322590E+02  0.00000000000E+00 0.  1.
</event>
<event>
 7    1  0.2941727E-013  0.7246147E+02  0.7816164E-02  0.1226708E+00
        -11   -1    0    0    0    0  0.00000000000E+00  0.00000000000E+00  0.45593999997E+02  0.45594000000E+02  0.51100000000E-03 0.  1.
         11   -1    0    0    0    0 -0.00000000000E+00 -0.00000000000E+00 -0.45593999997E+02  0.45594000000E+02  0.51100000000E-03 0. -1.
    9900012    2    1    2    0    0 -0.91534922872E+00 -0.16700345402E+02  0.84228022990E+01  0.72461468038E+02  0.69999866792E+02 0.  0.
         12    1    1    2    0    0  0.91534922872E+00  0.16700345402E+02 -0.84228022990E+01  0.18726531962E+02  0.00000000000E+00 0. -1.
         11    1    3    3    0    0  0.57077369296E+01  0.71634685869E+01  0.64246802819E+00  0.91818466814E+01  0.51100000000E-03 0. -1.
        -11    1    3    3    0    0  0.18221622335E+00  0.17974454305E+02  0.10476995653E+02  0.20805808047E+02  0.51100000000E-03 0.  1.
         12    1    3    3    0    0 -0.68053023817E+01 -0.41838268295E+02 -0.26966613823E+01  0.42473813309E+02  0.00000000000E+00 0. -1.
</event>
<event>
 7    1  0.2941727E-013  0.7246166E+02  0.7816164E-02  0.1226708E+00
        -11   -1    0    0    0    0  0.00000000000E+00  0.00000000000E+00  0.45593999997E+02  0.45594000000E+02  0.51100000000E-03 0.  1.
         11   -1    0    0    0    0 -0.00000000000E+00 -0.00000000000E+00 -0.45593999997E+02  0.45594000000E+02  0.51100000000E-03 0. -1.
    9900012    2    1    2    0    0  0.54727117345E+01 -0.17130735324E+02  0.52214069077E+01  0.72461661421E+02  0.70000118710E+02 0.  0.
         12    1    1    2    0    0 -0.54727117345E+01  0.17130735324E+02 -0.52214069077E+01  0.18726338579E+02  0.00000000000E+00 0. -1.
         11    1    3    3    0    0 -0.32331924731E+01 -0.16571068692E+02 -0.14976390824E+02  0.22568698092E+02  0.51100000000E-03 0. -1.
        -11    1    3    3    0    0 -0.68205567639E+01 -0.15018536438E+02 -0.47293065513E+01  0.17159334836E+02  0.51100000000E-03 0.  1.
        -12    1    3    3    0    0  0.15526460972E+02  0.14458869806E+02  0.24927104283E+02  0.32733628493E+02  0.00000000000E+00 0.  1.
</event>
<event>
 7    1  0.2941727E-013  0.7246156E+02  0.7816164E-02  0.1226708E+00
        -11   -1    0    0    0    0  0.00000000000E+00  0.00000000000E+00  0.45593999997E+02  0.45594000000E+02  0.51100000000E-03 0.  1.
         11   -1    0    0    0    0 -0.00000000000E+00 -0.00000000000E+00 -0.45593999997E+02  0.45594000000E+02  0.51100000000E-03 0. -1.
    9900012    2    1    2    0    0 -0.48248388934E+01  0.81793665006E+01  0.16139962224E+02  0.72461561810E+02  0.69999988947E+02 0.  0.
         12    1    1    2    0    0  0.48248388934E+01 -0.81793665006E+01 -0.16139962224E+02  0.18726438190E+02  0.00000000000E+00 0. -1.
         11    1    3    3    0    0  0.12839765393E+02  0.12849417840E+02 -0.75479139807E+01  0.19670742739E+02  0.51100000000E-03 0. -1.
        -11    1    3    3    0    0  0.11551945773E+02  0.33682138013E+01  0.18468216740E+02  0.22042398807E+02  0.51100000000E-03 0.  1.
         12    1    3    3    0    0 -0.29216550058E+02 -0.80382651410E+01  0.52196594648E+01  0.30748420264E+02  0.00000000000E+00 0. -1.
</event>
<event>
 7    1  0.2941727E-013  0.7246170E+02  0.7816164E-02  0.1226708E+00
        -11   -1    0    0    0    0  0.00000000000E+00  0.00000000000E+00  0.45593999997E+02  0.45594000000E+02  0.51100000000E-03 0. -1.
         11   -1    0    0    0    0 -0.00000000000E+00 -0.00000000000E+00 -0.45593999997E+02  0.45594000000E+02  0.51100000000E-03 0.  1.
    9900012    2    1    2    0    0 -0.22222834851E+01  0.18510388269E+02 -0.17610889794E+01  0.72461696250E+02  0.70000164081E+02 0.  0.
         12    1    1    2    0    0  0.22222834851E+01 -0.18510388269E+02  0.17610889794E+01  0.18726303750E+02  0.00000000000E+00 0. -1.
         11    1    3    3    0    0  0.56089138199E+01 -0.10377981788E+01 -0.29937987452E+01  0.64420315497E+01  0.51100000000E-03 0. -1.
        -11    1    3    3    0    0  0.18488085822E+02  0.82836035199E+01 -0.21442266492E+02  0.29499121973E+02  0.51100000000E-03 0.  1.
         12    1    3    3    0    0 -0.26319283127E+02  0.11264582928E+02  0.22674976257E+02  0.36520542727E+02  0.00000000000E+00 0. -1.
</event>
<event>
 7    1  0.2941727E-013  0.7246145E+02  0.7816164E-02  0.1226708E+00
        -11   -1    0    0    0    0  0.00000000000E+00  0.00000000000E+00  0.45593999997E+02  0.45594000000E+02  0.51100000000E-03 0.  1.
         11   -1    0    0    0    0 -0.00000000000E+00 -0.00000000000E+00 -0.45593999997E+02  0.45594000000E+02  0.51100000000E-03 0. -1.
    9900012    2    1    2    0    0  0.69454420841E+00  0.14989136661E+02  0.11203893891E+02  0.72461445383E+02  0.69999837280E+02 0.  0.
         12    1    1    2    0    0 -0.69454420841E+00 -0.14989136661E+02 -0.11203893891E+02  0.18726554617E+02  0.00000000000E+00 0. -1.
         11    1    3    3    0    0  0.44360220372E+01  0.22977464867E+02  0.59319617785E+01  0.24141879671E+02  0.51100000000E-03 0. -1.
        -11    1    3    3    0    0 -0.81345690836E+01  0.12758878380E+02  0.18055322321E+02  0.23557479832E+02  0.51100000000E-03 0.  1.
        -12    1    3    3    0    0  0.43930912547E+01 -0.20747206587E+02 -0.12783390208E+02  0.24762085880E+02  0.00000000000E+00 0.  1.
</event>
<event>
 7    1  0.2941727E-013  0.7246154E+02  0.7816164E-02  0.1226708E+00
        -11   -1    0    0    0    0  0.00000000000E+00  0.00000000000E+00  0.45593999997E+02  0.45594000000E+02  0.51100000000E-03 0. -1.
         11   -1    0    0    0    0 -0.00000000000E+00 -0.00000000000E+00 -0.45593999997E+02  0.45594000000E+02  0.51100000000E-03 0.  1.
    9900012    2    1    2    0    0  0.10480461250E+02 -0.14330866360E+02 -0.59553759429E+01  0.72461540076E+02  0.69999960635E+02 0.  0.
         12    1    1    2    0    0 -0.10480461250E+02  0.14330866360E+02  0.59553759429E+01  0.18726459924E+02  0.00000000000E+00 0. -1.
         11    1    3    3    0    0 -0.29233781638E+01  0.74552160587E+01 -0.22158456047E+02  0.23561060269E+02  0.51100000000E-03 0. -1.
        -11    1    3    3    0    0 -0.41900947653E+01  0.84133195113E+01 -0.18243910628E+01  0.95744055874E+01  0.51100000000E-03 0.  1.
         12    1    3    3    0    0  0.17593934179E+02 -0.30199401930E+02  0.18027471167E+02  0.39326074220E+02  0.00000000000E+00 0. -1.
</event>
<event>
 7    1  0.2941727E-013  0.7246187E+02  0.7816164E-02  0.1226707E+00
        -11   -1    0    0    0    0  0.00000000000E+00  0.00000000000E+00  0.45593999997E+02  0.45594000000E+02  0.51100000000E-03 0. -1.
         11   -1    0    0    0    0 -0.00000000000E+00 -0.00000000000E+00 -0.45593999997E+02  0.45594000000E+02  0.51100000000E-03 0.  1.
    9900012    2    1    2    0    0 -0.44340775866E+01 -0.93413528401E+01  0.15612364863E+02  0.72461872436E+02  0.70000393594E+02 0.  0.
         12    1    1    2    0    0  0.44340775866E+01  0.93413528401E+01 -0.15612364863E+02  0.18726127564E+02  0.00000000000E+00 0. -1.
         11    1    3    3    0    0  0.15808422811E+02  0.14957201214E+01 -0.12079189071E+02  0.19951195937E+02  0.51100000000E-03 0. -1.
        -11    1    3    3    0    0  0.11209548566E+02 -0.41996218293E+01  0.11152559681E+02  0.16360635387E+02  0.51100000000E-03 0.  1.
        -12    1    3    3    0    0 -0.31452048963E+02 -0.66374511321E+01  0.16538994253E+02  0.36150041112E+02  0.00000000000E+00 0.  1.
</event>
<event>
 7    1  0.2941727E-013  0.7246156E+02  0.7816164E-02  0.1226708E+00
        -11   -1    0    0    0    0  0.00000000000E+00  0.00000000000E+00  0.45593999997E+02  0.45594000000E+02  0.51100000000E-03 0.  1.
         11   -1    0    0    0    0 -0.00000000000E+00 -0.00000000000E+00 -0.45593999997E+02  0.45594000000E+02  0.51100000000E-03 0. -1.
    9900012    2    1    2    0    0 -0.82947346921E+01  0.85773229967E+01  0.14432828830E+02  0.72461557694E+02  0.69999983586E+02 0.  0.
         12    1    1    2    0    0  0.82947346921E+01 -0.85773229967E+01 -0.14432828830E+02  0.18726442306E+02  0.00000000000E+00 0. -1.
         11    1    3    3    0    0 -0.14105635409E+01  0.83010129906E+00  0.62143617894E+01  0.64262781126E+01  0.51100000000E-03 0.  1.
        -11    1    3    3    0    0  0.24500250142E+02  0.15716300886E+02 -0.74750542582E+01  0.30052301193E+02  0.51100000000E-03 0. -1.
         12    1    3    3    0    0 -0.31384421293E+02 -0.79690791884E+01  0.15693521299E+02  0.35982978389E+02  0.00000000000E+00 0. -1.
</event>
<event>
 7    1  0.2941727E-013  0.7246156E+02  0.7816164E-02  0.1226708E+00
        -11   -1    0    0    0    0  0.00000000000E+00  0.00000000000E+00  0.45593999997E+02  0.45594000000E+02  0.51100000000E-03 0. -1.
         11   -1    0    0    0    0 -0.00000000000E+00 -0.00000000000E+00 -0.45593999997E+02  0.45594000000E+02  0.51100000000E-03 0.  1.
    9900012    2    1    2    0    0  0.16826086731E+01  0.18067513223E+02 -0.46274418200E+01  0.72461563505E+02  0.69999991155E+02 0.  0.
         12    1    1    2    0    0 -0.16826086731E+01 -0.18067513223E+02  0.46274418200E+01  0.18726436495E+02  0.00000000000E+00 0. -1.
         11    1    3    3    0    0  0.93697604333E+01 -0.19759563304E+02  0.12276693293E+02  0.25078874596E+02  0.51100000000E-03 0. -1.
        -11    1    3    3    0    0 -0.11513103003E+02  0.19445009287E+02 -0.74411872409E+00  0.22610034053E+02  0.51100000000E-03 0.  1.
        -12    1    3    3    0    0  0.38259512425E+01  0.18382067240E+02 -0.16160016389E+02  0.24772654856E+02  0.00000000000E+00 0.  1.
</event>
<event>
 7    1  0.2941727E-013  0.7246157E+02  0.7816164E-02  0.1226708E+00
        -11   -1    0    0    0    0  0.00000000000E+00  0.00000000000E+00  0.45593999997E+02  0.45594000000E+02  0.51100000000E-03 0.  1.
         11   -1    0    0    0    0 -0.00000000000E+00 -0.00000000000E+00 -0.45593999997E+02  0.45594000000E+02  0.51100000000E-03 0. -1.
    9900012    2    1    2    0    0  0.14348400437E+02 -0.90322189386E+01  0.79512009007E+01  0.72461570286E+02  0.69999999990E+02 0.  0.
         12    1    1    2    0    0 -0.14348400437E+02  0.90322189386E+01 -0.79512009007E+01  0.18726429714E+02  0.00000000000E+00 0. -1.
         11    1    3    3    0    0 -0.25714293460E+01 -0.37607322906E+01  0.93371749313E+01  0.10389330691E+02  0.51100000000E-03 0. -1.
        -11    1    3    3    0    0 -0.18318277324E+02 -0.91211257597E+01  0.12525350143E+02  0.23992469979E+02  0.51100000000E-03 0.  1.
         12    1    3    3    0    0  0.35238107107E+02  0.38496391117E+01 -0.13911324174E+02  0.38079769616E+02  0.00000000000E+00 0. -1.
</event>
<event>
 7    1  0.2941727E-013  0.7246156E+02  0.7816164E-02  0.1226708E+00
        -11   -1    0    0    0    0  0.00000000000E+00  0.00000000000E+00  0.45593999997E+02  0.45594000000E+02  0.51100000000E-03 0. -1.
         11   -1    0    0    0    0 -0.00000000000E+00 -0.00000000000E+00 -0.45593999997E+02  0.45594000000E+02  0.51100000000E-03 0.  1.
    9900012    2    1    2    0    0  0.12642501036E+02  0.12775275137E+02 -0.52572824487E+01  0.72461561310E+02  0.69999988296E+02 0.  0.
         12    1    1    2    0    0 -0.12642501036E+02 -0.12775275137E+02  0.52572824487E+01  0.18726438690E+02  0.00000000000E+00 0. -1.
         11    1    3    3    0    0 -0.10704832190E+02  0.14000396097E+02  0.21312306369E+01  0.17752370754E+02  0.51100000000E-03 0. -1.
        -11    1    3    3    0    0 -0.64791147353E+01 -0.46266266147E+01 -0.20469455842E+02  0.21963224361E+02  0.51100000000E-03 0.  1.
         12    1    3    3    0    0  0.29826447961E+02  0.34015056544E+01  0.13080942756E+02  0.32745966195E+02  0.00000000000E+00 0. -1.
</event>
<event>
 7    1  0.2941727E-013  0.7246159E+02  0.7816164E-02  0.1226708E+00
        -11   -1    0    0    0    0  0.00000000000E+00  0.00000000000E+00  0.45593999997E+02  0.45594000000E+02  0.51100000000E-03 0.  1.
         11   -1    0    0    0    0 -0.00000000000E+00 -0.00000000000E+00 -0.45593999997E+02  0.45594000000E+02  0.51100000000E-03 0. -1.
    9900012    2    1    2    0    0  0.16206452842E+02  0.23495447531E+01 -0.90834512117E+01  0.72461586564E+02  0.70000021194E+02 0.  0.
         12    1    1    2    0    0 -0.16206452842E+02 -0.23495447531E+01  0.90834512117E+01  0.18726413436E+02  0.00000000000E+00 0. -1.
         11    1    3    3    0    0  0.43263189680E+01 -0.98237894810E+01 -0.13862137380E+02  0.17532333803E+02  0.51100000000E-03 0. -1.
        -11    1    3    3    0    0 -0.10432587416E+02 -0.15758313586E+02  0.30002705657E+01  0.19135437048E+02  0.51100000000E-03 0.  1.
         12    1    3    3    0    0  0.22312721290E+02  0.27931647820E+02  0.17784156023E+01  0.35793815714E+02  0.00000000000E+00 0. -1.
</event>
<event>
 7    1  0.2941727E-013  0.7246165E+02  0.7816164E-02  0.1226708E+00
        -11   -1    0    0    0    0  0.00000000000E+00  0.00000000000E+00  0.45593999997E+02  0.45594000000E+02  0.51100000000E-03 0.  1.
         11   -1    0    0    0    0 -0.00000000000E+00 -0.00000000000E+00 -0.45593999997E+02  0.45594000000E+02  0.51100000000E-03 0. -1.
    9900012    2    1    2    0    0 -0.15668726320E+02  0.10233628344E+02  0.66334791750E+00  0.72461650541E+02  0.70000104537E+02 0.  0.
         12    1    1    2    0    0  0.15668726320E+02 -0.10233628344E+02 -0.66334791750E+00  0.18726349459E+02  0.00000000000E+00 0. -1.
         11    1    3    3    0    0 -0.21888744758E+02  0.14085728850E+02  0.12938664675E+02  0.29067747559E+02  0.51100000000E-03 0. -1.
        -11    1    3    3    0    0 -0.82174822581E+01  0.67441618035E+01  0.10148033307E+02  0.14696710971E+02  0.51100000000E-03 0.  1.
         12    1    3    3    0    0  0.14437500696E+02 -0.10596262309E+02 -0.22423350064E+02  0.28697192012E+02  0.00000000000E+00 0. -1.
</event>
<event>
 7    1  0.2941727E-013  0.7246159E+02  0.7816164E-02  0.1226708E+00
        -11   -1    0    0    0    0  0.00000000000E+00  0.00000000000E+00  0.45593999997E+02  0.45594000000E+02  0.51100000000E-03 0. -1.
         11   -1    0    0    0    0 -0.00000000000E+00 -0.00000000000E+00 -0.45593999997E+02  0.45594000000E+02  0.51100000000E-03 0.  1.
    9900012    2    1    2    0    0  0.91758352347E+01 -0.54069367131E+01 -0.15402842107E+02  0.72461589189E+02  0.70000024614E+02 0.  0.
         12    1    1    2    0    0 -0.91758352347E+01  0.54069367131E+01  0.15402842107E+02  0.18726410811E+02  0.00000000000E+00 0. -1.
         11    1    3    3    0    0 -0.14635317345E+02 -0.25946772100E+02 -0.36664342345E+01  0.30014500437E+02  0.51100000000E-03 0. -1.
        -11    1    3    3    0    0  0.86558586190E+01 -0.45564233042E+01 -0.84866314867E+01  0.12950204478E+02  0.51100000000E-03 0.  1.
        -12    1    3    3    0    0  0.15155293961E+02  0.25096258691E+02 -0.32497763860E+01  0.29496884275E+02  0.00000000000E+00 0.  1.
</event>
<event>
 7    1  0.2941727E-013  0.7246152E+02  0.7816164E-02  0.1226708E+00
        -11   -1    0    0    0    0  0.00000000000E+00  0.00000000000E+00  0.45593999997E+02  0.45594000000E+02  0.51100000000E-03 0.  1.
         11   -1    0    0    0    0 -0.00000000000E+00 -0.00000000000E+00 -0.45593999997E+02  0.45594000000E+02  0.51100000000E-03 0. -1.
    9900012    2    1    2    0    0 -0.63800498733E+01 -0.11523732314E+02  0.13310878313E+02  0.72461523441E+02  0.69999938965E+02 0.  0.
         12    1    1    2    0    0  0.63800498733E+01  0.11523732314E+02 -0.13310878313E+02  0.18726476559E+02  0.00000000000E+00 0. -1.
         11    1    3    3    0    0  0.13764307521E+02  0.79621062039E+01  0.22334121875E+02  0.27416496803E+02  0.51100000000E-03 0. -1.
        -11    1    3    3    0    0  0.87312034817E+01 -0.14819889378E+00  0.12129085319E+01  0.88162931280E+01  0.51100000000E-03 0.  1.
         12    1    3    3    0    0 -0.28875560876E+02 -0.19337639624E+02 -0.10236152094E+02  0.36228733511E+02  0.00000000000E+00 0. -1.
</event>
<event>
 7    1  0.2941727E-013  0.7246156E+02  0.7816164E-02  0.1226708E+00
        -11   -1    0    0    0    0  0.00000000000E+00  0.00000000000E+00  0.45593999997E+02  0.45594000000E+02  0.51100000000E-03 0.  1.
         11   -1    0    0    0    0 -0.00000000000E+00 -0.00000000000E+00 -0.45593999997E+02  0.45594000000E+02  0.51100000000E-03 0. -1.
    9900012    2    1    2    0    0 -0.18686245082E+02 -0.76364696231E+00 -0.95952883193E+00  0.72461558599E+02  0.69999984765E+02 0.  0.
         12    1    1    2    0    0  0.18686245082E+02  0.76364696231E+00  0.95952883193E+00  0.18726441401E+02  0.00000000000E+00 0. -1.
         11    1    3    3    0    0 -0.65716425973E+01 -0.53231424490E+01  0.40568234783E+01  0.93797733957E+01  0.51100000000E-03 0. -1.
        -11    1    3    3    0    0 -0.36971534101E+02 -0.24522738094E+01 -0.32202237609E+01  0.37192443076E+02  0.51100000000E-03 0.  1.
         12    1    3    3    0    0  0.24856931616E+02  0.70117692961E+01 -0.17961285494E+01  0.25889342127E+02  0.00000000000E+00 0. -1.
</event>
<event>
 7    1  0.2941727E-013  0.7246157E+02  0.7816164E-02  0.1226708E+00
        -11   -1    0    0    0    0  0.00000000000E+00  0.00000000000E+00  0.45593999997E+02  0.45594000000E+02  0.51100000000E-03 0.  1.
         11   -1    0    0    0    0 -0.00000000000E+00 -0.00000000000E+00 -0.45593999997E+02  0.45594000000E+02  0.51100000000E-03 0. -1.
    9900012    2    1    2    0    0  0.32412096671E+00 -0.15188205272E+02  0.10949546829E+02  0.72461569225E+02  0.69999998607E+02 0.  0.
         12    1    1    2    0    0 -0.32412096671E+00  0.15188205272E+02 -0.10949546829E+02  0.18726430775E+02  0.00000000000E+00 0. -1.
         11    1    3    3    0    0  0.83811403354E+01 -0.78071397394E+01  0.94730260712E+01  0.14863820755E+02  0.51100000000E-03 0. -1.
        -11    1    3    3    0    0 -0.30377138056E+01 -0.28189087633E+02  0.15201600009E+02  0.32170499061E+02  0.51100000000E-03 0.  1.
         12    1    3    3    0    0 -0.50193055631E+01  0.20808022100E+02 -0.13725079252E+02  0.25427249409E+02  0.00000000000E+00 0. -1.
</event>
<event>
 7    1  0.2941727E-013  0.7246159E+02  0.7816164E-02  0.1226708E+00
        -11   -1    0    0    0    0  0.00000000000E+00  0.00000000000E+00  0.45593999997E+02  0.45594000000E+02  0.51100000000E-03 0. -1.
         11   -1    0    0    0    0 -0.00000000000E+00 -0.00000000000E+00 -0.45593999997E+02  0.45594000000E+02  0.51100000000E-03 0.  1.
    9900012    2    1    2    0    0 -0.20516739181E+01  0.12709614807E+02 -0.13599078041E+02  0.72461585555E+02  0.70000019880E+02 0.  0.
         12    1    1    2    0    0  0.20516739181E+01 -0.12709614807E+02  0.13599078041E+02  0.18726414445E+02  0.00000000000E+00 0. -1.
         11    1    3    3    0    0 -0.83950496293E+01 -0.72892103575E+01 -0.91035259994E+01  0.14369538329E+02  0.51100000000E-03 0. -1.
        -11    1    3    3    0    0 -0.48094531166E+01 -0.29058093236E+01  0.21185791180E+02  0.21918310047E+02  0.51100000000E-03 0.  1.
        -12    1    3    3    0    0  0.11152828828E+02  0.22904634488E+02 -0.25681343221E+02  0.36173737180E+02  0.00000000000E+00 0.  1.
</event>
<event>
 7    1  0.2941727E-013  0.7246149E+02  0.7816164E-02  0.1226708E+00
        -11   -1    0    0    0    0  0.00000000000E+00  0.00000000000E+00  0.45593999997E+02  0.45594000000E+02  0.51100000000E-03 0. -1.
         11   -1    0    0    0    0 -0.00000000000E+00 -0.00000000000E+00 -0.45593999997E+02  0.45594000000E+02  0.51100000000E-03 0.  1.
    9900012    2    1    2    0    0  0.49300885676E+01 -0.10073158457E+01 -0.18037786443E+02  0.72461489427E+02  0.69999894655E+02 0.  0.
         12    1    1    2    0    0 -0.49300885676E+01  0.10073158457E+01  0.18037786443E+02  0.18726510573E+02  0.00000000000E+00 0. -1.
         11    1    3    3    0    0  0.41640130588E+01 -0.96945202893E+01 -0.85166391588E+01  0.13559346268E+02  0.51100000000E-03 0. -1.
        -11    1    3    3    0    0  0.78009483208E+00 -0.16730864212E+02 -0.24290065763E+02  0.29504875195E+02  0.51100000000E-03 0.  1.
         12    1    3    3    0    0 -0.14019323366E-01  0.25418068656E+02  0.14768918479E+02  0.29397267964E+02  0.00000000000E+00 0. -1.
</event>
<event>
 7    1  0.2968397E-013  0.7246159E+02  0.7816164E-02  0.1226708E+00
        -11   -1    0    0    0    0  0.00000000000E+00  0.00000000000E+00  0.45593999997E+02  0.45594000000E+02  0.51100000000E-03 0. -1.
         11   -1    0    0    0    0 -0.00000000000E+00 -0.00000000000E+00 -0.45593999997E+02  0.45594000000E+02  0.51100000000E-03 0.  1.
    9900012    2    1    2    0    0 -0.85092886646E+01 -0.96337533475E+01 -0.13618416085E+02  0.72461589404E+02  0.70000024895E+02 0.  0.
         12    1    1    2    0    0  0.85092886646E+01  0.96337533475E+01  0.13618416085E+02  0.18726410596E+02  0.00000000000E+00 0. -1.
         11    1    3    3    0    0 -0.37443616820E+00 -0.30944092329E+02  0.51579515124E+01  0.31373261172E+02  0.51100000000E-03 0. -1.
        -11    1    3    3    0    0  0.10392551841E+02  0.49621807893E+01 -0.85665577743E+01  0.14353197704E+02  0.51100000000E-03 0.  1.
        -12    1    3    3    0    0 -0.18527404338E+02  0.16348158192E+02 -0.10209809823E+02  0.26735130529E+02  0.00000000000E+00 0.  1.
</event>
<event>
 7    1  0.2941727E-013  0.7246162E+02  0.7816164E-02  0.1226708E+00
        -11   -1    0    0    0    0  0.00000000000E+00  0.00000000000E+00  0.45593999997E+02  0.45594000000E+02  0.51100000000E-03 0. -1.
         11   -1    0    0    0    0 -0.00000000000E+00 -0.00000000000E+00 -0.45593999997E+02  0.45594000000E+02  0.51100000000E-03 0.  1.
    9900012    2    1    2    0    0 -0.11527869758E+02  0.24316067101E+01 -0.14555854414E+02  0.72461617806E+02  0.70000061893E+02 0.  0.
         12    1    1    2    0    0  0.11527869758E+02 -0.24316067101E+01  0.14555854414E+02  0.18726382194E+02  0.00000000000E+00 0. -1.
         11    1    3    3    0    0 -0.26150925270E+02  0.64347757843E+01  0.10507840800E+02  0.28908337040E+02  0.51100000000E-03 0. -1.
        -11    1    3    3    0    0 -0.31681038797E+01 -0.28885966136E+01  0.62157379324E+01  0.75509119247E+01  0.51100000000E-03 0.  1.
        -12    1    3    3    0    0  0.17791159391E+02 -0.11145724606E+01 -0.31279433147E+02  0.36002368842E+02  0.00000000000E+00 0.  1.
</event>
<event>
 7    1  0.2941727E-013  0.7246137E+02  0.7816164E-02  0.1226709E+00
        -11   -1    0    0    0    0  0.00000000000E+00  0.00000000000E+00  0.45593999997E+02  0.45594000000E+02  0.51100000000E-03 0.  1.
         11   -1    0    0    0    0 -0.00000000000E+00 -0.00000000000E+00 -0.45593999997E+02  0.45594000000E+02  0.51100000000E-03 0. -1.
    9900012    2    1    2    0    0 -0.65847482805E+01  0.12101111168E+02  0.12684275983E+02  0.72461370335E+02  0.69999739515E+02 0.  0.
         12    1    1    2    0    0  0.65847482805E+01 -0.12101111168E+02 -0.12684275983E+02  0.18726629665E+02  0.00000000000E+00 0. -1.
         11    1    3    3    0    0  0.70243258099E+01  0.23616928883E+02 -0.16596274837E+02  0.29707521298E+02  0.51100000000E-03 0. -1.
        -11    1    3    3    0    0 -0.28137813287E+01 -0.41163643320E+01 -0.43810709389E+01  0.66374395298E+01  0.51100000000E-03 0.  1.
        -12    1    3    3    0    0 -0.10795292762E+02 -0.73994533836E+01  0.33661621759E+02  0.36116409506E+02  0.00000000000E+00 0.  1.
</event>
<event>
 7    1  0.2941727E-013  0.7246153E+02  0.7816164E-02  0.1226708E+00
        -11   -1    0    0    0    0  0.00000000000E+00  0.00000000000E+00  0.45593999997E+02  0.45594000000E+02  0.51100000000E-03 0.  1.
         11   -1    0    0    0    0 -0.00000000000E+00 -0.00000000000E+00 -0.45593999997E+02  0.45594000000E+02  0.51100000000E-03 0. -1.
    9900012    2    1    2    0    0  0.59211651464E+01 -0.15938343730E+02  0.78479060992E+01  0.72461531361E+02  0.69999949282E+02 0.  0.
         12    1    1    2    0    0 -0.59211651464E+01  0.15938343730E+02 -0.78479060992E+01  0.18726468639E+02  0.00000000000E+00 0. -1.
         11    1    3    3    0    0 -0.20638459598E+01 -0.20373078302E+02  0.59762733653E+01  0.21331610891E+02  0.51100000000E-03 0. -1.
        -11    1    3    3    0    0 -0.17606085088E+01 -0.17514850188E+02  0.15553643566E+02  0.23490115962E+02  0.51100000000E-03 0.  1.
         12    1    3    3    0    0  0.97456196150E+01  0.21949584759E+02 -0.13682010833E+02  0.27639804508E+02  0.00000000000E+00 0. -1.
</event>
<event>
 7    1  0.2941727E-013  0.7246157E+02  0.7816164E-02  0.1226708E+00
        -11   -1    0    0    0    0  0.00000000000E+00  0.00000000000E+00  0.45593999997E+02  0.45594000000E+02  0.51100000000E-03 0.  1.
         11   -1    0    0    0    0 -0.00000000000E+00 -0.00000000000E+00 -0.45593999997E+02  0.45594000000E+02  0.51100000000E-03 0. -1.
    9900012    2    1    2    0    0 -0.90537098772E+01 -0.13483783630E+02  0.93218639532E+01  0.72461568651E+02  0.69999997859E+02 0.  0.
         12    1    1    2    0    0  0.90537098772E+01  0.13483783630E+02 -0.93218639532E+01  0.18726431349E+02  0.00000000000E+00 0. -1.
         11    1    3    3    0    0 -0.21723897813E+02 -0.84971990520E+01  0.43366954859E+01  0.23726294610E+02  0.51100000000E-03 0. -1.
        -11    1    3    3    0    0 -0.22957803305E+01  0.97671044345E+00 -0.19372174120E+02  0.19532170925E+02  0.51100000000E-03 0.  1.
        -12    1    3    3    0    0  0.14965968267E+02 -0.59632950212E+01  0.24357342588E+02  0.29203103116E+02  0.00000000000E+00 0.  1.
</event>
<event>
 7    1  0.2941727E-013  0.7246159E+02  0.7816164E-02  0.1226708E+00
        -11   -1    0    0    0    0  0.00000000000E+00  0.00000000000E+00  0.45593999997E+02  0.45594000000E+02  0.51100000000E-03 0.  1.
         11   -1    0    0    0    0 -0.00000000000E+00 -0.00000000000E+00 -0.45593999997E+02  0.45594000000E+02  0.51100000000E-03 0. -1.
    9900012    2    1    2    0    0  0.10193063955E+01 -0.10708838024E+02  0.15328409027E+02  0.72461592960E+02  0.70000029526E+02 0.  0.
         12    1    1    2    0    0 -0.10193063955E+01  0.10708838024E+02 -0.15328409027E+02  0.18726407040E+02  0.00000000000E+00 0. -1.
         11    1    3    3    0    0  0.19826356444E+02 -0.34063349348E+01 -0.36750422908E+01  0.20449779060E+02  0.51100000000E-03 0. -1.
        -11    1    3    3    0    0  0.79389431227E+01  0.12187984964E+02  0.10203702301E+02  0.17767648586E+02  0.51100000000E-03 0.  1.
        -12    1    3    3    0    0 -0.26745993171E+02 -0.19490488053E+02  0.87997490162E+01  0.34244165313E+02  0.00000000000E+00 0.  1.
</event>
<event>
 7    1  0.2941727E-013  0.7246157E+02  0.7816164E-02  0.1226708E+00
        -11   -1    0    0    0    0  0.00000000000E+00  0.00000000000E+00  0.45593999997E+02  0.45594000000E+02  0.51100000000E-03 0. -1.
         11   -1    0    0    0    0 -0.00000000000E+00 -0.00000000000E+00 -0.45593999997E+02  0.45594000000E+02  0.51100000000E-03 0.  1.
    9900012    2    1    2    0    0 -0.17085128002E+02 -0.71843899336E+01  0.26761957906E+01  0.72461572645E+02  0.70000003062E+02 0.  0.
         12    1    1    2    0    0  0.17085128002E+02  0.71843899336E+01 -0.26761957906E+01  0.18726427355E+02  0.00000000000E+00 0. -1.
         11    1    3    3    0    0 -0.21892368274E+01 -0.56989212481E+01  0.11598695267E+02  0.13107257281E+02  0.51100000000E-03 0. -1.
        -11    1    3    3    0    0  0.13014405653E+01 -0.24006948352E+02  0.97182348694E+01  0.25932053639E+02  0.51100000000E-03 0.  1.
        -12    1    3    3    0    0 -0.16197331740E+02  0.22521479666E+02 -0.18640734345E+02  0.33422261725E+02  0.00000000000E+00 0.  1.
</event>
<event>
 7    1  0.2941727E-013  0.7246157E+02  0.7816164E-02  0.1226708E+00
        -11   -1    0    0    0    0  0.00000000000E+00  0.00000000000E+00  0.45593999997E+02  0.45594000000E+02  0.51100000000E-03 0. -1.
         11   -1    0    0    0    0 -0.00000000000E+00 -0.00000000000E+00 -0.45593999997E+02  0.45594000000E+02  0.51100000000E-03 0.  1.
    9900012    2    1    2    0    0  0.16928312626E+02  0.80068887158E+01 -0.34577332924E-01  0.72461568657E+02  0.69999997867E+02 0.  0.
         12    1    1    2    0    0 -0.16928312626E+02 -0.80068887158E+01  0.34577332924E-01  0.18726431343E+02  0.00000000000E+00 0. -1.
         11    1    3    3    0    0  0.30653154505E+01  0.21427452842E+02 -0.83695019472E+01  0.23207336280E+02  0.51100000000E-03 0. -1.
        -11    1    3    3    0    0  0.18732449435E+02  0.23074179594E+01 -0.12545675486E+02  0.22663248071E+02  0.51100000000E-03 0.  1.
        -12    1    3    3    0    0 -0.48694522593E+01 -0.15727982086E+02  0.20880600100E+02  0.26590984306E+02  0.00000000000E+00 0.  1.
</event>
<event>
 7    1  0.2941727E-013  0.7246158E+02  0.7816164E-02  0.1226708E+00
        -11   -1    0    0    0    0  0.00000000000E+00  0.00000000000E+00  0.45593999997E+02  0.45594000000E+02  0.51100000000E-03 0.  1.
         11   -1    0    0    0    0 -0.00000000000E+00 -0.00000000000E+00 -0.45593999997E+02  0.45594000000E+02  0.51100000000E-03 0. -1.
    9900012    2    1    2    0    0 -0.16067163407E+01 -0.17063398621E+02  0.75457152914E+01  0.72461576712E+02  0.70000008360E+02 0.  0.
         12    1    1    2    0    0  0.16067163407E+01  0.17063398621E+02 -0.75457152914E+01  0.18726423288E+02  0.00000000000E+00 0. -1.
         11    1    3    3    0    0 -0.98817745248E+01  0.14694346184E+02 -0.77347153138E+01  0.19323537429E+02  0.51100000000E-03 0. -1.
        -11    1    3    3    0    0  0.58671100052E+01  0.40029337857E+01 -0.77676822617E+01  0.10525366820E+02  0.51100000000E-03 0.  1.
        -12    1    3    3    0    0  0.24079481789E+01 -0.35760678591E+02  0.23048112867E+02  0.42612672463E+02  0.00000000000E+00 0.  1.
</event>
<event>
 7    1  0.2941727E-013  0.7246151E+02  0.7816164E-02  0.1226708E+00
        -11   -1    0    0    0    0  0.00000000000E+00  0.00000000000E+00  0.45593999997E+02  0.45594000000E+02  0.51100000000E-03 0.  1.
         11   -1    0    0    0    0 -0.00000000000E+00 -0.00000000000E+00 -0.45593999997E+02  0.45594000000E+02  0.51100000000E-03 0. -1.
    9900012    2    1    2    0    0  0.14749828161E+02 -0.29150443372E+01  0.11163631680E+02  0.72461505759E+02  0.69999915930E+02 0.  0.
         12    1    1    2    0    0 -0.14749828161E+02  0.29150443372E+01 -0.11163631680E+02  0.18726494241E+02  0.00000000000E+00 0. -1.
         11    1    3    3    0    0 -0.95832761681E+01 -0.85630681960E+01 -0.76958398753E+01  0.14979695280E+02  0.51100000000E-03 0. -1.
        -11    1    3    3    0    0 -0.12591083583E+02  0.71831146520E+01 -0.26290673818E+01  0.14732430806E+02  0.51100000000E-03 0.  1.
         12    1    3    3    0    0  0.36924187912E+02 -0.15350907932E+01  0.21488538937E+02  0.42749379672E+02  0.00000000000E+00 0. -1.
</event>
<event>
 7    1  0.2941727E-013  0.7246197E+02  0.7816164E-02  0.1226707E+00
        -11   -1    0    0    0    0  0.00000000000E+00  0.00000000000E+00  0.45593999997E+02  0.45594000000E+02  0.51100000000E-03 0. -1.
         11   -1    0    0    0    0 -0.00000000000E+00 -0.00000000000E+00 -0.45593999997E+02  0.45594000000E+02  0.51100000000E-03 0.  1.
    9900012    2    1    2    0    0  0.17867279756E+02 -0.23106358981E+01  0.51073819355E+01  0.72461973343E+02  0.70000525043E+02 0.  0.
         12    1    1    2    0    0 -0.17867279756E+02  0.23106358981E+01 -0.51073819355E+01  0.18726026657E+02  0.00000000000E+00 0. -1.
         11    1    3    3    0    0  0.97103315289E+01  0.27581798211E+01  0.50073886817E+01  0.11268186899E+02  0.51100000000E-03 0. -1.
        -11    1    3    3    0    0  0.31649287254E+02  0.60648899746E+01  0.94245247191E+01  0.33575019591E+02  0.51100000000E-03 0.  1.
         12    1    3    3    0    0 -0.23492339026E+02 -0.11133705694E+02 -0.93245314653E+01  0.27618766853E+02  0.00000000000E+00 0. -1.
</event>
<event>
 7    1  0.2941727E-013  0.7246187E+02  0.7816164E-02  0.1226707E+00
        -11   -1    0    0    0    0  0.00000000000E+00  0.00000000000E+00  0.45593999997E+02  0.45594000000E+02  0.51100000000E-03 0.  1.
         11   -1    0    0    0    0 -0.00000000000E+00 -0.00000000000E+00 -0.45593999997E+02  0.45594000000E+02  0.51100000000E-03 0. -1.
    9900012    2    1    2    0    0 -0.15429876409E+02  0.60109990669E+01  0.87438425831E+01  0.72461869089E+02  0.70000389235E+02 0.  0.
         12    1    1    2    0    0  0.15429876409E+02 -0.60109990669E+01 -0.87438425831E+01  0.18726130911E+02  0.00000000000E+00 0. -1.
         11    1    3    3    0    0 -0.97815969915E+01  0.98105352287E+01 -0.23157411671E+02  0.26985032087E+02  0.51100000000E-03 0. -1.
        -11    1    3    3    0    0 -0.13477063193E+02  0.25610652889E+01  0.19295695056E+01  0.13853285764E+02  0.51100000000E-03 0.  1.
        -12    1    3    3    0    0  0.78287837758E+01 -0.63606014507E+01  0.29971684749E+02  0.31623551238E+02  0.00000000000E+00 0.  1.
</event>
<event>
 7    1  0.2941727E-013  0.7246164E+02  0.7816164E-02  0.1226708E+00
        -11   -1    0    0    0    0  0.00000000000E+00  0.00000000000E+00  0.45593999997E+02  0.45594000000E+02  0.51100000000E-03 0. -1.
         11   -1    0    0    0    0 -0.00000000000E+00 -0.00000000000E+00 -0.45593999997E+02  0.45594000000E+02  0.51100000000E-03 0.  1.
    9900012    2    1    2    0    0  0.17189263244E+02 -0.67582348161E+01  0.30874197398E+01  0.72461637049E+02  0.70000086961E+02 0.  0.
         12    1    1    2    0    0 -0.17189263244E+02  0.67582348161E+01 -0.30874197398E+01  0.18726362951E+02  0.00000000000E+00 0. -1.
         11    1    3    3    0    0 -0.37176419788E+00 -0.91017122558E+01 -0.41144829476E+01  0.99954161891E+01  0.51100000000E-03 0. -1.
        -11    1    3    3    0    0  0.18265179722E+02 -0.61044192254E+01 -0.23633693364E+02  0.30486590276E+02  0.51100000000E-03 0.  1.
         12    1    3    3    0    0 -0.70415227975E+00  0.84478966651E+01  0.30835596051E+02  0.31979630585E+02  0.00000000000E+00 0. -1.
</event>
<event>
 7    1  0.2941727E-013  0.7246161E+02  0.7816164E-02  0.1226708E+00
        -11   -1    0    0    0    0  0.00000000000E+00  0.00000000000E+00  0.45593999997E+02  0.45594000000E+02  0.51100000000E-03 0.  1.
         11   -1    0    0    0    0 -0.00000000000E+00 -0.00000000000E+00 -0.45593999997E+02  0.45594000000E+02  0.51100000000E-03 0. -1.
    9900012    2    1    2    0    0 -0.12708670053E+02  0.42838221762E+01  0.13069673334E+02  0.72461607181E+02  0.70000048052E+02 0.  0.
         12    1    1    2    0    0  0.12708670053E+02 -0.42838221762E+01 -0.13069673334E+02  0.18726392819E+02  0.00000000000E+00 0. -1.
         11    1    3    3    0    0 -0.18024142185E+02  0.63703683092E+01 -0.16081779429E+02  0.24981491624E+02  0.51100000000E-03 0. -1.
        -11    1    3    3    0    0  0.55228099060E+01 -0.50386469372E+01 -0.75701917587E+01  0.10639417077E+02  0.51100000000E-03 0.  1.
        -12    1    3    3    0    0 -0.20733777385E+00  0.29521008042E+01  0.36721644522E+02  0.36840698480E+02  0.00000000000E+00 0.  1.
</event>
<event>
 7    1  0.2941727E-013  0.7246156E+02  0.7816164E-02  0.1226708E+00
        -11   -1    0    0    0    0  0.00000000000E+00  0.00000000000E+00  0.45593999997E+02  0.45594000000E+02  0.51100000000E-03 0. -1.
         11   -1    0    0    0    0 -0.00000000000E+00 -0.00000000000E+00 -0.45593999997E+02  0.45594000000E+02  0.51100000000E-03 0.  1.
    9900012    2    1    2    0    0 -0.11121967193E+02  0.59750736179E+00 -0.15054043288E+02  0.72461564445E+02  0.69999992380E+02 0.  0.
         12    1    1    2    0    0  0.11121967193E+02 -0.59750736179E+00  0.15054043288E+02  0.18726435555E+02  0.00000000000E+00 0. -1.
         11    1    3    3    0    0 -0.16939071770E+02 -0.17397932431E+01  0.15277846058E+02  0.22877316569E+02  0.51100000000E-03 0. -1.
        -11    1    3    3    0    0  0.39626158931E+01  0.12836668309E+02  0.36891195386E+01  0.13931689819E+02  0.51100000000E-03 0.  1.
        -12    1    3    3    0    0  0.18544886840E+01 -0.10499367704E+02 -0.34021008885E+02  0.35652558057E+02  0.00000000000E+00 0.  1.
</event>
<event>
 7    1  0.2941727E-013  0.7246157E+02  0.7816164E-02  0.1226708E+00
        -11   -1    0    0    0    0  0.00000000000E+00  0.00000000000E+00  0.45593999997E+02  0.45594000000E+02  0.51100000000E-03 0. -1.
         11   -1    0    0    0    0 -0.00000000000E+00 -0.00000000000E+00 -0.45593999997E+02  0.45594000000E+02  0.51100000000E-03 0.  1.
    9900012    2    1    2    0    0  0.13386425244E+02 -0.11442453266E+02  0.63681382413E+01  0.72461566751E+02  0.69999995385E+02 0.  0.
         12    1    1    2    0    0 -0.13386425244E+02  0.11442453266E+02 -0.63681382413E+01  0.18726433249E+02  0.00000000000E+00 0. -1.
         11    1    3    3    0    0 -0.10797926508E+01 -0.22081016484E+02  0.20453278335E+02  0.30117666510E+02  0.51100000000E-03 0. -1.
        -11    1    3    3    0    0  0.35683787211E+01 -0.95764563170E+01 -0.16335081156E+02  0.19268542211E+02  0.51100000000E-03 0.  1.
         12    1    3    3    0    0  0.10897839174E+02  0.20215019535E+02  0.22499410628E+01  0.23075358030E+02  0.00000000000E+00 0. -1.
</event>
<event>
 7    1  0.2941727E-013  0.7246156E+02  0.7816164E-02  0.1226708E+00
        -11   -1    0    0    0    0  0.00000000000E+00  0.00000000000E+00  0.45593999997E+02  0.45594000000E+02  0.51100000000E-03 0.  1.
         11   -1    0    0    0    0 -0.00000000000E+00 -0.00000000000E+00 -0.45593999997E+02  0.45594000000E+02  0.51100000000E-03 0. -1.
    9900012    2    1    2    0    0  0.51975134387E+01 -0.14099712976E+02 -0.11174232296E+02  0.72461560954E+02  0.69999987832E+02 0.  0.
         12    1    1    2    0    0 -0.51975134387E+01  0.14099712976E+02  0.11174232296E+02  0.18726439046E+02  0.00000000000E+00 0. -1.
         11    1    3    3    0    0 -0.11828896034E+01  0.84842051022E+01 -0.19096185880E+02  0.20929531276E+02  0.51100000000E-03 0. -1.
        -11    1    3    3    0    0  0.15553167206E+02 -0.19271597430E+02 -0.13347899831E+02  0.28132932798E+02  0.51100000000E-03 0.  1.
        -12    1    3    3    0    0 -0.91727641638E+01 -0.33123206484E+01  0.21269853415E+02  0.23399096880E+02  0.00000000000E+00 0.  1.
</event>
<event>
 7    1  0.2941727E-013  0.7246160E+02  0.7816164E-02  0.1226708E+00
        -11   -1    0    0    0    0  0.00000000000E+00  0.00000000000E+00  0.45593999997E+02  0.45594000000E+02  0.51100000000E-03 0.  1.
         11   -1    0    0    0    0 -0.00000000000E+00 -0.00000000000E+00 -0.45593999997E+02  0.45594000000E+02  0.51100000000E-03 0. -1.
    9900012    2    1    2    0    0 -0.82288849601E+01 -0.86108856467E+01  0.14450469449E+02  0.72461602412E+02  0.70000041840E+02 0.  0.
         12    1    1    2    0    0  0.82288849601E+01  0.86108856467E+01 -0.14450469449E+02  0.18726397588E+02  0.00000000000E+00 0. -1.
         11    1    3    3    0    0 -0.64176856741E+01  0.17757945270E+02 -0.10653311840E+02  0.21680045273E+02  0.51100000000E-03 0. -1.
        -11    1    3    3    0    0  0.13616314417E+01  0.24343397300E+01 -0.69993115613E+01  0.75346143031E+01  0.51100000000E-03 0.  1.
        -12    1    3    3    0    0 -0.31728307277E+01 -0.28803170647E+02  0.32103092850E+02  0.43246942836E+02  0.00000000000E+00 0.  1.
</event>
<event>
 7    1  0.2941727E-013  0.7246159E+02  0.7816164E-02  0.1226708E+00
        -11   -1    0    0    0    0  0.00000000000E+00  0.00000000000E+00  0.45593999997E+02  0.45594000000E+02  0.51100000000E-03 0.  1.
         11   -1    0    0    0    0 -0.00000000000E+00 -0.00000000000E+00 -0.45593999997E+02  0.45594000000E+02  0.51100000000E-03 0. -1.
    9900012    2    1    2    0    0 -0.80978050451E+01  0.57625389305E+01  0.15871271323E+02  0.72461586706E+02  0.70000021379E+02 0.  0.
         12    1    1    2    0    0  0.80978050451E+01 -0.57625389305E+01 -0.15871271323E+02  0.18726413294E+02  0.00000000000E+00 0. -1.
         11    1    3    3    0    0 -0.29312690884E+02  0.14041128013E+02 -0.71511374129E+01  0.33279511554E+02  0.51100000000E-03 0. -1.
        -11    1    3    3    0    0 -0.26267758364E+01  0.26908642674E+01 -0.67698781505E+00  0.38208656824E+01  0.51100000000E-03 0.  1.
        -12    1    3    3    0    0  0.23841661675E+02 -0.10969453350E+02  0.23699396551E+02  0.35361209469E+02  0.00000000000E+00 0.  1.
</event>
<event>
 7    1  0.2941727E-013  0.7246161E+02  0.7816164E-02  0.1226708E+00
        -11   -1    0    0    0    0  0.00000000000E+00  0.00000000000E+00  0.45593999997E+02  0.45594000000E+02  0.51100000000E-03 0. -1.
         11   -1    0    0    0    0 -0.00000000000E+00 -0.00000000000E+00 -0.45593999997E+02  0.45594000000E+02  0.51100000000E-03 0.  1.
    9900012    2    1    2    0    0 -0.12009911412E+02  0.12558151402E+02  0.69808682966E+01  0.72461610574E+02  0.70000052472E+02 0.  0.
         12    1    1    2    0    0  0.12009911412E+02 -0.12558151402E+02 -0.69808682966E+01  0.18726389426E+02  0.00000000000E+00 0. -1.
         11    1    3    3    0    0 -0.42588292223E+01 -0.20006237023E+02  0.78516886156E+01  0.21909727532E+02  0.51100000000E-03 0. -1.
        -11    1    3    3    0    0 -0.23055013806E+02  0.17222069291E+02 -0.20452438802E+01  0.28849893502E+02  0.51100000000E-03 0.  1.
        -12    1    3    3    0    0  0.15303931617E+02  0.15342319133E+02  0.11744235612E+01  0.21701989541E+02  0.00000000000E+00 0.  1.
</event>
<event>
 7    1  0.2941727E-013  0.7246162E+02  0.7816164E-02  0.1226708E+00
        -11   -1    0    0    0    0  0.00000000000E+00  0.00000000000E+00  0.45593999997E+02  0.45594000000E+02  0.51100000000E-03 0. -1.
         11   -1    0    0    0    0 -0.00000000000E+00 -0.00000000000E+00 -0.45593999997E+02  0.45594000000E+02  0.51100000000E-03 0.  1.
    9900012    2    1    2    0    0  0.13323045519E+02  0.12740955420E+02  0.32926804408E+01  0.72461622042E+02  0.70000067411E+02 0.  0.
         12    1    1    2    0    0 -0.13323045519E+02 -0.12740955420E+02 -0.32926804408E+01  0.18726377958E+02  0.00000000000E+00 0. -1.
         11    1    3    3    0    0 -0.97659031310E+00 -0.21873982202E+02 -0.51584797000E+01  0.22495215915E+02  0.51100000000E-03 0. -1.
        -11    1    3    3    0    0 -0.25991064265E+01  0.67960146457E+01  0.15084849204E+02  0.16747950473E+02  0.51100000000E-03 0.  1.
        -12    1    3    3    0    0  0.16898742259E+02  0.27818922976E+02 -0.66336890630E+01  0.33218455654E+02  0.00000000000E+00 0.  1.
</event>
<event>
 7    1  0.2941727E-013  0.7246160E+02  0.7816164E-02  0.1226708E+00
        -11   -1    0    0    0    0  0.00000000000E+00  0.00000000000E+00  0.45593999997E+02  0.45594000000E+02  0.51100000000E-03 0. -1.
         11   -1    0    0    0    0 -0.00000000000E+00 -0.00000000000E+00 -0.45593999997E+02  0.45594000000E+02  0.51100000000E-03 0.  1.
    9900012    2    1    2    0    0 -0.50546158988E+01 -0.15101310858E+02 -0.98528814542E+01  0.72461601401E+02  0.70000040523E+02 0.  0.
         12    1    1    2    0    0  0.50546158988E+01  0.15101310858E+02  0.98528814542E+01  0.18726398599E+02  0.00000000000E+00 0. -1.
         11    1    3    3    0    0 -0.92372282496E+01  0.13551939726E+02 -0.25407757335E+02  0.30241289476E+02  0.51100000000E-03 0. -1.
        -11    1    3    3    0    0  0.22799143623E+01 -0.15925422132E+01 -0.66215224097E+01  0.71818353840E+01  0.51100000000E-03 0.  1.
         12    1    3    3    0    0  0.19026979885E+01 -0.27060708371E+02  0.22176398291E+02  0.35038476542E+02  0.00000000000E+00 0. -1.
</event>
<event>
 7    1  0.2941727E-013  0.7246161E+02  0.7816164E-02  0.1226708E+00
        -11   -1    0    0    0    0  0.00000000000E+00  0.00000000000E+00  0.45593999997E+02  0.45594000000E+02  0.51100000000E-03 0.  1.
         11   -1    0    0    0    0 -0.00000000000E+00 -0.00000000000E+00 -0.45593999997E+02  0.45594000000E+02  0.51100000000E-03 0. -1.
    9900012    2    1    2    0    0  0.10449187572E+02  0.50965974435E+01  0.14680492982E+02  0.72461609514E+02  0.70000051091E+02 0.  0.
         12    1    1    2    0    0 -0.10449187572E+02 -0.50965974435E+01 -0.14680492982E+02  0.18726390486E+02  0.00000000000E+00 0. -1.
         11    1    3    3    0    0  0.12563722744E+02  0.18804574774E+02  0.33667062329E+02  0.40557739677E+02  0.51100000000E-03 0. -1.
        -11    1    3    3    0    0  0.41500295223E+01  0.14117298513E+01  0.23812209321E+01  0.49885809202E+01  0.51100000000E-03 0.  1.
         12    1    3    3    0    0 -0.62645646937E+01 -0.15119707182E+02 -0.21367790279E+02  0.26915288917E+02  0.00000000000E+00 0. -1.
</event>
<event>
 7    1  0.2941727E-013  0.7246160E+02  0.7816164E-02  0.1226708E+00
        -11   -1    0    0    0    0  0.00000000000E+00  0.00000000000E+00  0.45593999997E+02  0.45594000000E+02  0.51100000000E-03 0. -1.
         11   -1    0    0    0    0 -0.00000000000E+00 -0.00000000000E+00 -0.45593999997E+02  0.45594000000E+02  0.51100000000E-03 0.  1.
    9900012    2    1    2    0    0 -0.60756815527E+01  0.18331723375E+01 -0.17618270420E+02  0.72461604732E+02  0.70000044861E+02 0.  0.
         12    1    1    2    0    0  0.60756815527E+01 -0.18331723375E+01  0.17618270420E+02  0.18726395268E+02  0.00000000000E+00 0. -1.
         11    1    3    3    0    0  0.13530294742E+01 -0.15385678303E+02 -0.27544589056E+01  0.15688748507E+02  0.51100000000E-03 0. -1.
        -11    1    3    3    0    0  0.15011664469E+02  0.21072072411E+02 -0.20852519453E+02  0.33229653529E+02  0.51100000000E-03 0.  1.
         12    1    3    3    0    0 -0.22440375496E+02 -0.38532217708E+01  0.59887079384E+01  0.23543202696E+02  0.00000000000E+00 0. -1.
</event>
<event>
 7    1  0.2941727E-013  0.7246155E+02  0.7816164E-02  0.1226708E+00
        -11   -1    0    0    0    0  0.00000000000E+00  0.00000000000E+00  0.45593999997E+02  0.45594000000E+02  0.51100000000E-03 0. -1.
         11   -1    0    0    0    0 -0.00000000000E+00 -0.00000000000E+00 -0.45593999997E+02  0.45594000000E+02  0.51100000000E-03 0.  1.
    9900012    2    1    2    0    0 -0.15399216937E+02 -0.76425882948E+01 -0.74252836627E+01  0.72461551442E+02  0.69999975442E+02 0.  0.
         12    1    1    2    0    0  0.15399216937E+02  0.76425882948E+01  0.74252836627E+01  0.18726448558E+02  0.00000000000E+00 0. -1.
         11    1    3    3    0    0 -0.84958395528E+01 -0.12688018545E+01  0.25785756379E+01  0.89687346061E+01  0.51100000000E-03 0. -1.
        -11    1    3    3    0    0  0.18516317860E+02  0.99745569511E+00  0.17375896473E+02  0.25412019272E+02  0.51100000000E-03 0.  1.
         12    1    3    3    0    0 -0.25419695244E+02 -0.73712421354E+01 -0.27379755774E+02  0.38080797565E+02  0.00000000000E+00 0. -1.
</event>
<event>
 7    1  0.2941727E-013  0.7246155E+02  0.7816164E-02  0.1226708E+00
        -11   -1    0    0    0    0  0.00000000000E+00  0.00000000000E+00  0.45593999997E+02  0.45594000000E+02  0.51100000000E-03 0. -1.
         11   -1    0    0    0    0 -0.00000000000E+00 -0.00000000000E+00 -0.45593999997E+02  0.45594000000E+02  0.51100000000E-03 0.  1.
    9900012    2    1    2    0    0  0.17740586329E+02 -0.57651328587E+01  0.16476892055E+01  0.72461547055E+02  0.69999969726E+02 0.  0.
         12    1    1    2    0    0 -0.17740586329E+02  0.57651328587E+01 -0.16476892055E+01  0.18726452945E+02  0.00000000000E+00 0. -1.
         11    1    3    3    0    0  0.11120842628E+01  0.92404194323E+01  0.74130883264E+00  0.93365744114E+01  0.51100000000E-03 0. -1.
        -11    1    3    3    0    0  0.28112968728E+02 -0.26041151862E+02  0.15676439004E+02  0.41403276937E+02  0.51100000000E-03 0.  1.
         12    1    3    3    0    0 -0.11484466662E+02  0.11035599571E+02 -0.14770058631E+02  0.21721695706E+02  0.00000000000E+00 0. -1.
</event>
<event>
 7    1  0.2941727E-013  0.7246162E+02  0.7816164E-02  0.1226708E+00
        -11   -1    0    0    0    0  0.00000000000E+00  0.00000000000E+00  0.45593999997E+02  0.45594000000E+02  0.51100000000E-03 0.  1.
         11   -1    0    0    0    0 -0.00000000000E+00 -0.00000000000E+00 -0.45593999997E+02  0.45594000000E+02  0.51100000000E-03 0. -1.
    9900012    2    1    2    0    0  0.11248383991E+02  0.10052064869E+02  0.11095363303E+02  0.72461621884E+02  0.70000067205E+02 0.  0.
         12    1    1    2    0    0 -0.11248383991E+02 -0.10052064869E+02 -0.11095363303E+02  0.18726378116E+02  0.00000000000E+00 0. -1.
         11    1    3    3    0    0  0.23401612565E+02  0.34532900283E+01  0.30236919401E+01  0.23847502928E+02  0.51100000000E-03 0. -1.
        -11    1    3    3    0    0  0.17131614882E+02  0.73444456191E+01  0.34963223121E+01  0.18964634979E+02  0.51100000000E-03 0.  1.
         12    1    3    3    0    0 -0.29284843456E+02 -0.74567077840E+00  0.45753490505E+01  0.29649483977E+02  0.00000000000E+00 0. -1.
</event>
<event>
 7    1  0.2941727E-013  0.7246149E+02  0.7816164E-02  0.1226708E+00
        -11   -1    0    0    0    0  0.00000000000E+00  0.00000000000E+00  0.45593999997E+02  0.45594000000E+02  0.51100000000E-03 0.  1.
         11   -1    0    0    0    0 -0.00000000000E+00 -0.00000000000E+00 -0.45593999997E+02  0.45594000000E+02  0.51100000000E-03 0. -1.
    9900012    2    1    2    0    0 -0.13523911961E+02  0.52895239818E+01  0.11823998017E+02  0.72461489706E+02  0.69999895019E+02 0.  0.
         12    1    1    2    0    0  0.13523911961E+02 -0.52895239818E+01 -0.11823998017E+02  0.18726510294E+02  0.00000000000E+00 0. -1.
         11    1    3    3    0    0  0.16305516518E+02 -0.10702535195E+02 -0.30884169801E+01  0.19747213682E+02  0.51100000000E-03 0. -1.
        -11    1    3    3    0    0  0.20532096178E+01  0.34423224769E+01 -0.97208727930E+01  0.10514781115E+02  0.51100000000E-03 0.  1.
        -12    1    3    3    0    0 -0.31882638097E+02  0.12549736700E+02  0.24633287790E+02  0.42199494909E+02  0.00000000000E+00 0.  1.
</event>
<event>
 7    1  0.2941727E-013  0.7246155E+02  0.7816164E-02  0.1226708E+00
        -11   -1    0    0    0    0  0.00000000000E+00  0.00000000000E+00  0.45593999997E+02  0.45594000000E+02  0.51100000000E-03 0. -1.
         11   -1    0    0    0    0 -0.00000000000E+00 -0.00000000000E+00 -0.45593999997E+02  0.45594000000E+02  0.51100000000E-03 0.  1.
    9900012    2    1    2    0    0  0.22146519896E+01  0.18450756516E+02  0.23118532064E+01  0.72461554404E+02  0.69999979299E+02 0.  0.
         12    1    1    2    0    0 -0.22146519896E+01 -0.18450756516E+02 -0.23118532064E+01  0.18726445596E+02  0.00000000000E+00 0. -1.
         11    1    3    3    0    0  0.68272681500E+01 -0.32346332765E+01  0.58424882561E+01  0.95503461774E+01  0.51100000000E-03 0. -1.
        -11    1    3    3    0    0  0.22850123061E+02  0.54181623254E+01  0.13130616572E+02  0.26905347028E+02  0.51100000000E-03 0.  1.
         12    1    3    3    0    0 -0.27462739222E+02  0.16267227467E+02 -0.16661251621E+02  0.36005861198E+02  0.00000000000E+00 0. -1.
</event>
<event>
 7    1  0.2941727E-013  0.7246145E+02  0.7816164E-02  0.1226708E+00
        -11   -1    0    0    0    0  0.00000000000E+00  0.00000000000E+00  0.45593999997E+02  0.45594000000E+02  0.51100000000E-03 0. -1.
         11   -1    0    0    0    0 -0.00000000000E+00 -0.00000000000E+00 -0.45593999997E+02  0.45594000000E+02  0.51100000000E-03 0.  1.
    9900012    2    1    2    0    0 -0.35484937530E+01  0.15809631518E+02 -0.93886852868E+01  0.72461450183E+02  0.69999843532E+02 0.  0.
         12    1    1    2    0    0  0.35484937530E+01 -0.15809631518E+02  0.93886852868E+01  0.18726549817E+02  0.00000000000E+00 0. -1.
         11    1    3    3    0    0  0.17235288009E+02  0.11182707937E+02 -0.93187326184E+01  0.22559851228E+02  0.51100000000E-03 0. -1.
        -11    1    3    3    0    0  0.13629982866E+02  0.16689513195E+01 -0.57681677153E+01  0.14894079041E+02  0.51100000000E-03 0.  1.
         12    1    3    3    0    0 -0.34413764628E+02  0.29579722611E+01  0.56982150469E+01  0.35007519914E+02  0.00000000000E+00 0. -1.
</event>
<event>
 7    1  0.2941727E-013  0.7246156E+02  0.7816164E-02  0.1226708E+00
        -11   -1    0    0    0    0  0.00000000000E+00  0.00000000000E+00  0.45593999997E+02  0.45594000000E+02  0.51100000000E-03 0. -1.
         11   -1    0    0    0    0 -0.00000000000E+00 -0.00000000000E+00 -0.45593999997E+02  0.45594000000E+02  0.51100000000E-03 0.  1.
    9900012    2    1    2    0    0 -0.59869373179E+01 -0.17102084143E+02  0.47280726889E+01  0.72461564893E+02  0.69999992963E+02 0.  0.
         12    1    1    2    0    0  0.59869373179E+01  0.17102084143E+02 -0.47280726889E+01  0.18726435107E+02  0.00000000000E+00 0. -1.
         11    1    3    3    0    0 -0.26617936785E+00  0.53574690936E+01  0.18272193866E+02  0.19043276910E+02  0.51100000000E-03 0. -1.
        -11    1    3    3    0    0  0.14650809958E+02  0.17807343203E+01  0.63033209443E+01  0.16048336435E+02  0.51100000000E-03 0.  1.
         12    1    3    3    0    0 -0.20371567908E+02 -0.24240287557E+02 -0.19847442121E+02  0.37369951547E+02  0.00000000000E+00 0. -1.
</event>
<event>
 7    1  0.2941727E-013  0.7246150E+02  0.7816164E-02  0.1226708E+00
        -11   -1    0    0    0    0  0.00000000000E+00  0.00000000000E+00  0.45593999997E+02  0.45594000000E+02  0.51100000000E-03 0.  1.
         11   -1    0    0    0    0 -0.00000000000E+00 -0.00000000000E+00 -0.45593999997E+02  0.45594000000E+02  0.51100000000E-03 0. -1.
    9900012    2    1    2    0    0  0.37976692210E+01  0.17740192948E+02 -0.46416541956E+01  0.72461502970E+02  0.69999912298E+02 0.  0.
         12    1    1    2    0    0 -0.37976692210E+01 -0.17740192948E+02  0.46416541956E+01  0.18726497030E+02  0.00000000000E+00 0. -1.
         11    1    3    3    0    0  0.25063145028E+01  0.11001935943E+01 -0.56213606526E+01  0.62523382970E+01  0.51100000000E-03 0. -1.
        -11    1    3    3    0    0  0.13071936729E+02 -0.13402748106E+02 -0.20252840884E+02  0.27580550226E+02  0.51100000000E-03 0.  1.
        -12    1    3    3    0    0 -0.11780582011E+02  0.30042747460E+02  0.21232547341E+02  0.38628614447E+02  0.00000000000E+00 0.  1.
</event>
<event>
 7    1  0.2941727E-013  0.7246143E+02  0.7816164E-02  0.1226708E+00
        -11   -1    0    0    0    0  0.00000000000E+00  0.00000000000E+00  0.45593999997E+02  0.45594000000E+02  0.51100000000E-03 0. -1.
         11   -1    0    0    0    0 -0.00000000000E+00 -0.00000000000E+00 -0.45593999997E+02  0.45594000000E+02  0.51100000000E-03 0.  1.
    9900012    2    1    2    0    0 -0.27455030633E+01 -0.17564141910E+02 -0.58862184973E+01  0.72461429671E+02  0.69999816812E+02 0.  0.
         12    1    1    2    0    0  0.27455030633E+01  0.17564141910E+02  0.58862184973E+01  0.18726570329E+02  0.00000000000E+00 0. -1.
         11    1    3    3    0    0 -0.64697008611E+01 -0.32964600301E+02 -0.34877721988E+01  0.33774050060E+02  0.51100000000E-03 0. -1.
        -11    1    3    3    0    0  0.83349824116E+01 -0.74715311710E+01 -0.90846048213E+01  0.14416162973E+02  0.51100000000E-03 0.  1.
        -12    1    3    3    0    0 -0.46107846138E+01  0.22871989563E+02  0.66861585228E+01  0.24271216638E+02  0.00000000000E+00 0.  1.
</event>
<event>
 7    1  0.2941727E-013  0.7246158E+02  0.7816164E-02  0.1226708E+00
        -11   -1    0    0    0    0  0.00000000000E+00  0.00000000000E+00  0.45593999997E+02  0.45594000000E+02  0.51100000000E-03 0.  1.
         11   -1    0    0    0    0 -0.00000000000E+00 -0.00000000000E+00 -0.45593999997E+02  0.45594000000E+02  0.51100000000E-03 0. -1.
    9900012    2    1    2    0    0  0.13481821019E+02  0.10481598745E+02  0.76847504910E+01  0.72461580151E+02  0.70000012840E+02 0.  0.
         12    1    1    2    0    0 -0.13481821019E+02 -0.10481598745E+02 -0.76847504910E+01  0.18726419849E+02  0.00000000000E+00 0. -1.
         11    1    3    3    0    0  0.33437307935E+01  0.14598016030E+02  0.16415516990E+02  0.22220526680E+02  0.51100000000E-03 0. -1.
        -11    1    3    3    0    0 -0.17700979290E+02  0.43376113664E+01  0.37098688974E+01  0.18598458745E+02  0.51100000000E-03 0.  1.
         12    1    3    3    0    0  0.27839069516E+02 -0.84540286515E+01 -0.12440635396E+02  0.31642594726E+02  0.00000000000E+00 0. -1.
</event>
<event>
 7    1  0.2941727E-013  0.7246162E+02  0.7816164E-02  0.1226708E+00
        -11   -1    0    0    0    0  0.00000000000E+00  0.00000000000E+00  0.45593999997E+02  0.45594000000E+02  0.51100000000E-03 0. -1.
         11   -1    0    0    0    0 -0.00000000000E+00 -0.00000000000E+00 -0.45593999997E+02  0.45594000000E+02  0.51100000000E-03 0.  1.
    9900012    2    1    2    0    0  0.10272826248E+02 -0.66152142614E+01 -0.14191033472E+02  0.72461616210E+02  0.70000059814E+02 0.  0.
         12    1    1    2    0    0 -0.10272826248E+02  0.66152142614E+01  0.14191033472E+02  0.18726383790E+02  0.00000000000E+00 0. -1.
         11    1    3    3    0    0  0.10696355303E+02 -0.84594971192E+01  0.26479469912E+02  0.29784852449E+02  0.51100000000E-03 0. -1.
        -11    1    3    3    0    0  0.37269655291E+01  0.59724230783E+01 -0.20579575458E+02  0.21750380129E+02  0.51100000000E-03 0.  1.
        -12    1    3    3    0    0 -0.41504945842E+01 -0.41281402205E+01 -0.20090927927E+02  0.20926383632E+02  0.00000000000E+00 0.  1.
</event>
<event>
 7    1  0.2941727E-013  0.7246159E+02  0.7816164E-02  0.1226708E+00
        -11   -1    0    0    0    0  0.00000000000E+00  0.00000000000E+00  0.45593999997E+02  0.45594000000E+02  0.51100000000E-03 0. -1.
         11   -1    0    0    0    0 -0.00000000000E+00 -0.00000000000E+00 -0.45593999997E+02  0.45594000000E+02  0.51100000000E-03 0.  1.
    9900012    2    1    2    0    0 -0.83566275662E+01 -0.33634165846E+01 -0.16417448739E+02  0.72461590347E+02  0.70000026122E+02 0.  0.
         12    1    1    2    0    0  0.83566275662E+01  0.33634165846E+01  0.16417448739E+02  0.18726409653E+02  0.00000000000E+00 0. -1.
         11    1    3    3    0    0  0.14371705933E+00 -0.18571523943E+02  0.25663448352E+01  0.18748554137E+02  0.51100000000E-03 0. -1.
        -11    1    3    3    0    0 -0.50126384833E+01 -0.16644234352E+02 -0.11392648390E+02  0.20783395280E+02  0.51100000000E-03 0.  1.
         12    1    3    3    0    0 -0.34877061422E+01  0.31852341711E+02 -0.75911451839E+01  0.32929640930E+02  0.00000000000E+00 0. -1.
</event>
<event>
 7    1  0.2941727E-013  0.7246163E+02  0.7816164E-02  0.1226708E+00
        -11   -1    0    0    0    0  0.00000000000E+00  0.00000000000E+00  0.45593999997E+02  0.45594000000E+02  0.51100000000E-03 0. -1.
         11   -1    0    0    0    0 -0.00000000000E+00 -0.00000000000E+00 -0.45593999997E+02  0.45594000000E+02  0.51100000000E-03 0.  1.
    9900012    2    1    2    0    0 -0.63423730893E+01  0.44029898275E+01 -0.17060626589E+02  0.72461628343E+02  0.70000075619E+02 0.  0.
         12    1    1    2    0    0  0.63423730893E+01 -0.44029898275E+01  0.17060626589E+02  0.18726371657E+02  0.00000000000E+00 0. -1.
         11    1    3    3    0    0 -0.17769591286E+02 -0.14972957396E+02 -0.10275124165E+02  0.25407203792E+02  0.51100000000E-03 0. -1.
        -11    1    3    3    0    0 -0.64617768325E+01  0.79499894689E+01  0.13998429408E+02  0.17346841745E+02  0.51100000000E-03 0.  1.
        -12    1    3    3    0    0  0.17888995029E+02  0.11425957755E+02 -0.20783931832E+02  0.29707582806E+02  0.00000000000E+00 0.  1.
</event>
<event>
 7    1  0.2941727E-013  0.7246157E+02  0.7816164E-02  0.1226708E+00
        -11   -1    0    0    0    0  0.00000000000E+00  0.00000000000E+00  0.45593999997E+02  0.45594000000E+02  0.51100000000E-03 0.  1.
         11   -1    0    0    0    0 -0.00000000000E+00 -0.00000000000E+00 -0.45593999997E+02  0.45594000000E+02  0.51100000000E-03 0. -1.
    9900012    2    1    2    0    0  0.11780334957E+02 -0.13591118827E+02  0.52138567663E+01  0.72461572016E+02  0.70000002243E+02 0.  0.
         12    1    1    2    0    0 -0.11780334957E+02  0.13591118827E+02 -0.52138567663E+01  0.18726427984E+02  0.00000000000E+00 0. -1.
         11    1    3    3    0    0 -0.50104383461E+01 -0.41473230205E+01 -0.74866510529E+01  0.99173950665E+01  0.51100000000E-03 0. -1.
        -11    1    3    3    0    0  0.33128149726E+02 -0.22623971780E+02  0.10290796068E+02  0.41415201163E+02  0.51100000000E-03 0.  1.
         12    1    3    3    0    0 -0.16337376423E+02  0.13180175974E+02  0.24097117508E+01  0.21128975787E+02  0.00000000000E+00 0. -1.
</event>
<event>
 7    1  0.2941727E-013  0.7246222E+02  0.7816164E-02  0.1226706E+00
        -11   -1    0    0    0    0  0.00000000000E+00  0.00000000000E+00  0.45593999997E+02  0.45594000000E+02  0.51100000000E-03 0.  1.
         11   -1    0    0    0    0 -0.00000000000E+00 -0.00000000000E+00 -0.45593999997E+02  0.45594000000E+02  0.51100000000E-03 0. -1.
    9900012    2    1    2    0    0  0.66570795696E+01  0.15305722719E+02  0.84895700839E+01  0.72462224808E+02  0.70000852620E+02 0.  0.
         12    1    1    2    0    0 -0.66570795696E+01 -0.15305722719E+02 -0.84895700839E+01  0.18725775192E+02  0.00000000000E+00 0. -1.
         11    1    3    3    0    0 -0.22640160886E+02 -0.12339154750E+02  0.13832654245E+02  0.29260450246E+02  0.51100000000E-03 0. -1.
        -11    1    3    3    0    0  0.39517068205E+01  0.70726320034E+01  0.42885388695E+01  0.91667702135E+01  0.51100000000E-03 0.  1.
        -12    1    3    3    0    0  0.25345533636E+02  0.20572245465E+02 -0.96316230304E+01  0.34035004348E+02  0.00000000000E+00 0.  1.
</event>
<event>
 7    1  0.2941727E-013  0.7246168E+02  0.7816164E-02  0.1226708E+00
        -11   -1    0    0    0    0  0.00000000000E+00  0.00000000000E+00  0.45593999997E+02  0.45594000000E+02  0.51100000000E-03 0.  1.
         11   -1    0    0    0    0 -0.00000000000E+00 -0.00000000000E+00 -0.45593999997E+02  0.45594000000E+02  0.51100000000E-03 0. -1.
    9900012    2    1    2    0    0 -0.13175556689E+02 -0.11761103239E+02  0.62254536462E+01  0.72461678509E+02  0.70000140970E+02 0.  0.
         12    1    1    2    0    0  0.13175556689E+02  0.11761103239E+02 -0.62254536462E+01  0.18726321491E+02  0.00000000000E+00 0. -1.
         11    1    3    3    0    0 -0.18075484596E+02 -0.75638618824E+01  0.35437030689E+01  0.19912131520E+02  0.51100000000E-03 0. -1.
        -11    1    3    3    0    0  0.52592109745E+01 -0.14944238280E+02  0.23951048408E+02  0.28716585415E+02  0.51100000000E-03 0.  1.
         12    1    3    3    0    0 -0.35928306731E+00  0.10746996923E+02 -0.21269297830E+02  0.23832961574E+02  0.00000000000E+00 0. -1.
</event>
<event>
 7    1  0.2941727E-013  0.7246160E+02  0.7816164E-02  0.1226708E+00
        -11   -1    0    0    0    0  0.00000000000E+00  0.00000000000E+00  0.45593999997E+02  0.45594000000E+02  0.51100000000E-03 0.  1.
         11   -1    0    0    0    0 -0.00000000000E+00 -0.00000000000E+00 -0.45593999997E+02  0.45594000000E+02  0.51100000000E-03 0. -1.
    9900012    2    1    2    0    0 -0.15487986778E+02 -0.10445948988E+02  0.12971540815E+01  0.72461596357E+02  0.70000033951E+02 0.  0.
         12    1    1    2    0    0  0.15487986778E+02  0.10445948988E+02 -0.12971540815E+01  0.18726403643E+02  0.00000000000E+00 0. -1.
         11    1    3    3    0    0  0.99814578540E+01  0.67942909700E+01  0.15115946154E+01  0.12168681491E+02  0.51100000000E-03 0. -1.
        -11    1    3    3    0    0  0.15041697750E+02 -0.19578580049E+01  0.64540403625E+01  0.16484553875E+02  0.51100000000E-03 0.  1.
        -12    1    3    3    0    0 -0.40511142383E+02 -0.15282381953E+02 -0.66684808965E+01  0.43808360992E+02  0.00000000000E+00 0.  1.
</event>
<event>
 7    1  0.2941727E-013  0.7246157E+02  0.7816164E-02  0.1226708E+00
        -11   -1    0    0    0    0  0.00000000000E+00  0.00000000000E+00  0.45593999997E+02  0.45594000000E+02  0.51100000000E-03 0.  1.
         11   -1    0    0    0    0 -0.00000000000E+00 -0.00000000000E+00 -0.45593999997E+02  0.45594000000E+02  0.51100000000E-03 0. -1.
    9900012    2    1    2    0    0 -0.12981005810E+02 -0.13458301244E+02  0.10230733341E+01  0.72461573132E+02  0.70000003696E+02 0.  0.
         12    1    1    2    0    0  0.12981005810E+02  0.13458301244E+02 -0.10230733341E+01  0.18726426868E+02  0.00000000000E+00 0. -1.
         11    1    3    3    0    0 -0.94511668951E+01  0.38431501565E+01 -0.12533322450E+02  0.16161018863E+02  0.51100000000E-03 0. -1.
        -11    1    3    3    0    0 -0.16973262312E+02 -0.29000577976E+02 -0.49504115995E+00  0.33606103946E+02  0.51100000000E-03 0.  1.
        -12    1    3    3    0    0  0.13443423397E+02  0.11699126576E+02  0.14051436944E+02  0.22694450322E+02  0.00000000000E+00 0.  1.
</event>
<event>
 7    1  0.2941727E-013  0.7246158E+02  0.7816164E-02  0.1226708E+00
        -11   -1    0    0    0    0  0.00000000000E+00  0.00000000000E+00  0.45593999997E+02  0.45594000000E+02  0.51100000000E-03 0.  1.
         11   -1    0    0    0    0 -0.00000000000E+00 -0.00000000000E+00 -0.45593999997E+02  0.45594000000E+02  0.51100000000E-03 0. -1.
    9900012    2    1    2    0    0 -0.78666991463E-02  0.18524621866E+02  0.27417541408E+01  0.72461577679E+02  0.70000009620E+02 0.  0.
         12    1    1    2    0    0  0.78666991463E-02 -0.18524621866E+02 -0.27417541408E+01  0.18726422321E+02  0.00000000000E+00 0. -1.
         11    1    3    3    0    0 -0.19522284246E+02  0.34034857460E+02 -0.12870656120E+02  0.41293400123E+02  0.51100000000E-03 0. -1.
        -11    1    3    3    0    0  0.80754239863E+01 -0.42992427685E+01  0.52375259880E+00  0.91635297777E+01  0.51100000000E-03 0.  1.
        -12    1    3    3    0    0  0.11438993561E+02 -0.11210992826E+02  0.15088657662E+02  0.22004647778E+02  0.00000000000E+00 0.  1.
</event>
<event>
 7    1  0.2941727E-013  0.7246146E+02  0.7816164E-02  0.1226708E+00
        -11   -1    0    0    0    0  0.00000000000E+00  0.00000000000E+00  0.45593999997E+02  0.45594000000E+02  0.51100000000E-03 0.  1.
         11   -1    0    0    0    0 -0.00000000000E+00 -0.00000000000E+00 -0.45593999997E+02  0.45594000000E+02  0.51100000000E-03 0. -1.
    9900012    2    1    2    0    0 -0.17893559193E+02  0.19265339324E+01  0.51761356125E+01  0.72461458048E+02  0.69999853778E+02 0.  0.
         12    1    1    2    0    0  0.17893559193E+02 -0.19265339324E+01 -0.51761356125E+01  0.18726541952E+02  0.00000000000E+00 0. -1.
         11    1    3    3    0    0 -0.13540792377E+02  0.25664243423E+02  0.40819672854E+00  0.29020218357E+02  0.51100000000E-03 0. -1.
        -11    1    3    3    0    0 -0.98006421946E+01  0.45210221443E+01  0.93743669381E+01  0.14295838010E+02  0.51100000000E-03 0.  1.
        -12    1    3    3    0    0  0.54478753781E+01 -0.28258731635E+02 -0.46064280541E+01  0.29145401681E+02  0.00000000000E+00 0.  1.
</event>
<event>
 7    1  0.2941727E-013  0.7246155E+02  0.7816164E-02  0.1226708E+00
        -11   -1    0    0    0    0  0.00000000000E+00  0.00000000000E+00  0.45593999997E+02  0.45594000000E+02  0.51100000000E-03 0. -1.
         11   -1    0    0    0    0 -0.00000000000E+00 -0.00000000000E+00 -0.45593999997E+02  0.45594000000E+02  0.51100000000E-03 0.  1.
    9900012    2    1    2    0    0 -0.43308180675E+01  0.11347467236E+02 -0.14253380374E+02  0.72461552129E+02  0.69999976336E+02 0.  0.
         12    1    1    2    0    0  0.43308180675E+01 -0.11347467236E+02  0.14253380374E+02  0.18726447871E+02  0.00000000000E+00 0. -1.
         11    1    3    3    0    0  0.37136981124E+01  0.13147932325E+02 -0.17205204521E+02  0.21969950864E+02  0.51100000000E-03 0. -1.
        -11    1    3    3    0    0 -0.14902148070E+02 -0.11332994025E+02 -0.18319734905E+02  0.26193958424E+02  0.51100000000E-03 0.  1.
         12    1    3    3    0    0  0.68576318897E+01  0.95325289354E+01  0.21271559053E+02  0.24297642840E+02  0.00000000000E+00 0. -1.
</event>
<event>
 7    1  0.2941727E-013  0.7246157E+02  0.7816164E-02  0.1226708E+00
        -11   -1    0    0    0    0  0.00000000000E+00  0.00000000000E+00  0.45593999997E+02  0.45594000000E+02  0.51100000000E-03 0.  1.
         11   -1    0    0    0    0 -0.00000000000E+00 -0.00000000000E+00 -0.45593999997E+02  0.45594000000E+02  0.51100000000E-03 0. -1.
    9900012    2    1    2    0    0 -0.62312319148E+01  0.38930744972E+01  0.17224838711E+02  0.72461565507E+02  0.69999993763E+02 0.  0.
         12    1    1    2    0    0  0.62312319148E+01 -0.38930744972E+01 -0.17224838711E+02  0.18726434493E+02  0.00000000000E+00 0. -1.
         11    1    3    3    0    0  0.17133762519E+02  0.16473874705E+02  0.30904831170E+02  0.38987984761E+02  0.51100000000E-03 0.  1.
        -11    1    3    3    0    0 -0.22355532281E+01 -0.87649713288E+01 -0.47799052779E+01  0.10230831606E+02  0.51100000000E-03 0. -1.
        -12    1    3    3    0    0 -0.21129441206E+02 -0.38158288787E+01 -0.89000871811E+01  0.23242749139E+02  0.00000000000E+00 0.  1.
</event>
<event>
 7    1  0.2941727E-013  0.7246154E+02  0.7816164E-02  0.1226708E+00
        -11   -1    0    0    0    0  0.00000000000E+00  0.00000000000E+00  0.45593999997E+02  0.45594000000E+02  0.51100000000E-03 0. -1.
         11   -1    0    0    0    0 -0.00000000000E+00 -0.00000000000E+00 -0.45593999997E+02  0.45594000000E+02  0.51100000000E-03 0.  1.
    9900012    2    1    2    0    0 -0.15043315659E+02  0.11954262610E+01 -0.11088272825E+02  0.72461543202E+02  0.69999964707E+02 0.  0.
         12    1    1    2    0    0  0.15043315659E+02 -0.11954262610E+01  0.11088272825E+02  0.18726456798E+02  0.00000000000E+00 0. -1.
         11    1    3    3    0    0  0.11314433979E+02  0.79773103341E+01 -0.99951641780E+01  0.17075046227E+02  0.51100000000E-03 0. -1.
        -11    1    3    3    0    0 -0.31665749190E+02  0.22537392594E+01 -0.17249179314E+02  0.36129395230E+02  0.51100000000E-03 0.  1.
         12    1    3    3    0    0  0.53079995520E+01 -0.90356233326E+01  0.16156070667E+02  0.19257101746E+02  0.00000000000E+00 0. -1.
</event>
<event>
 7    1  0.2941727E-013  0.7246156E+02  0.7816164E-02  0.1226708E+00
        -11   -1    0    0    0    0  0.00000000000E+00  0.00000000000E+00  0.45593999997E+02  0.45594000000E+02  0.51100000000E-03 0. -1.
         11   -1    0    0    0    0 -0.00000000000E+00 -0.00000000000E+00 -0.45593999997E+02  0.45594000000E+02  0.51100000000E-03 0.  1.
    9900012    2    1    2    0    0  0.17159899520E+02  0.70321888325E+01  0.26011228108E+01  0.72461556900E+02  0.69999982551E+02 0.  0.
         12    1    1    2    0    0 -0.17159899520E+02 -0.70321888325E+01 -0.26011228108E+01  0.18726443100E+02  0.00000000000E+00 0. -1.
         11    1    3    3    0    0 -0.83177953498E+01 -0.59323165509E+01 -0.72103776475E+00  0.10241972215E+02  0.51100000000E-03 0. -1.
        -11    1    3    3    0    0  0.31090813963E+02  0.14661353096E+02 -0.18906319143E+02  0.39230637151E+02  0.51100000000E-03 0.  1.
         12    1    3    3    0    0 -0.56131190936E+01 -0.16968477123E+01  0.22228479718E+02  0.22988947533E+02  0.00000000000E+00 0. -1.
</event>
<event>
 7    1  0.2941727E-013  0.7246174E+02  0.7816164E-02  0.1226708E+00
        -11   -1    0    0    0    0  0.00000000000E+00  0.00000000000E+00  0.45593999997E+02  0.45594000000E+02  0.51100000000E-03 0. -1.
         11   -1    0    0    0    0 -0.00000000000E+00 -0.00000000000E+00 -0.45593999997E+02  0.45594000000E+02  0.51100000000E-03 0.  1.
    9900012    2    1    2    0    0  0.91033179893E+01 -0.27723025336E+01 -0.16128139951E+02  0.72461736143E+02  0.70000216048E+02 0.  0.
         12    1    1    2    0    0 -0.91033179893E+01  0.27723025336E+01  0.16128139951E+02  0.18726263857E+02  0.00000000000E+00 0. -1.
         11    1    3    3    0    0  0.10351158949E+02  0.21732401108E+02 -0.45502227166E+01  0.24497923923E+02  0.51100000000E-03 0. -1.
        -11    1    3    3    0    0  0.75779112989E+01  0.11868259804E+01  0.10468791455E+02  0.12978015655E+02  0.51100000000E-03 0.  1.
        -12    1    3    3    0    0 -0.88257522587E+01 -0.25691529622E+02 -0.22046708689E+02  0.34985796565E+02  0.00000000000E+00 0.  1.
</event>
<event>
 7    1  0.2941727E-013  0.7246157E+02  0.7816164E-02  0.1226708E+00
        -11   -1    0    0    0    0  0.00000000000E+00  0.00000000000E+00  0.45593999997E+02  0.45594000000E+02  0.51100000000E-03 0.  1.
         11   -1    0    0    0    0 -0.00000000000E+00 -0.00000000000E+00 -0.45593999997E+02  0.45594000000E+02  0.51100000000E-03 0. -1.
    9900012    2    1    2    0    0 -0.45196277343E+01  0.17481839370E+02 -0.49635980578E+01  0.72461573531E+02  0.70000004216E+02 0.  0.
         12    1    1    2    0    0  0.45196277343E+01 -0.17481839370E+02  0.49635980578E+01  0.18726426469E+02  0.00000000000E+00 0. -1.
         11    1    3    3    0    0 -0.18258844059E+02 -0.11139954552E+01  0.12022807779E+02  0.21890049781E+02  0.51100000000E-03 0.  1.
        -11    1    3    3    0    0  0.14901900639E+02  0.28923790784E+02 -0.21751576583E+02  0.39138004549E+02  0.51100000000E-03 0. -1.
         12    1    3    3    0    0 -0.11626843138E+01 -0.10327955958E+02  0.47651707460E+01  0.11433519202E+02  0.00000000000E+00 0. -1.
</event>
<event>
 7    1  0.2941727E-013  0.7246157E+02  0.7816164E-02  0.1226708E+00
        -11   -1    0    0    0    0  0.00000000000E+00  0.00000000000E+00  0.45593999997E+02  0.45594000000E+02  0.51100000000E-03 0.  1.
         11   -1    0    0    0    0 -0.00000000000E+00 -0.00000000000E+00 -0.45593999997E+02  0.45594000000E+02  0.51100000000E-03 0. -1.
    9900012    2    1    2    0    0 -0.92780538841E-01 -0.10104243350E+02  0.15766254891E+02  0.72461571211E+02  0.70000001194E+02 0.  0.
         12    1    1    2    0    0  0.92780538841E-01  0.10104243350E+02 -0.15766254891E+02  0.18726428789E+02  0.00000000000E+00 0. -1.
         11    1    3    3    0    0  0.88631035976E+01  0.13131899853E+02  0.94396787485E+00  0.15871120778E+02  0.51100000000E-03 0. -1.
        -11    1    3    3    0    0  0.70246999055E+01 -0.29656657606E+02 -0.43868446720E+01  0.30791364951E+02  0.51100000000E-03 0.  1.
         12    1    3    3    0    0 -0.15980584042E+02  0.64205144031E+01  0.19209131688E+02  0.25799085483E+02  0.00000000000E+00 0. -1.
</event>
<event>
 7    1  0.2941727E-013  0.7246170E+02  0.7816164E-02  0.1226708E+00
        -11   -1    0    0    0    0  0.00000000000E+00  0.00000000000E+00  0.45593999997E+02  0.45594000000E+02  0.51100000000E-03 0. -1.
         11   -1    0    0    0    0 -0.00000000000E+00 -0.00000000000E+00 -0.45593999997E+02  0.45594000000E+02  0.51100000000E-03 0.  1.
    9900012    2    1    2    0    0  0.17233725526E+02  0.34233884055E+01 -0.64771493919E+01  0.72461699033E+02  0.70000167705E+02 0.  0.
         12    1    1    2    0    0 -0.17233725526E+02 -0.34233884055E+01  0.64771493919E+01  0.18726300967E+02  0.00000000000E+00 0. -1.
         11    1    3    3    0    0 -0.86221465636E+01 -0.10732887505E+02 -0.22811552029E+01  0.13954925829E+02  0.51100000000E-03 0. -1.
        -11    1    3    3    0    0  0.12102777020E+00  0.20433937200E+02 -0.19220312749E+02  0.28053179137E+02  0.51100000000E-03 0.  1.
         12    1    3    3    0    0  0.25734844319E+02 -0.62776612897E+01  0.15024318561E+02  0.30453594067E+02  0.00000000000E+00 0. -1.
</event>
<event>
 7    1  0.2941727E-013  0.7246159E+02  0.7816164E-02  0.1226708E+00
        -11   -1    0    0    0    0  0.00000000000E+00  0.00000000000E+00  0.45593999997E+02  0.45594000000E+02  0.51100000000E-03 0.  1.
         11   -1    0    0    0    0 -0.00000000000E+00 -0.00000000000E+00 -0.45593999997E+02  0.45594000000E+02  0.51100000000E-03 0. -1.
    9900012    2    1    2    0    0  0.65105835024E+01 -0.88589966813E+01  0.15159455173E+02  0.72461585477E+02  0.70000019778E+02 0.  0.
         12    1    1    2    0    0 -0.65105835024E+01  0.88589966813E+01 -0.15159455173E+02  0.18726414523E+02  0.00000000000E+00 0. -1.
         11    1    3    3    0    0 -0.71602410564E+01  0.18758391744E+02  0.58908469466E+01  0.20924827139E+02  0.51100000000E-03 0. -1.
        -11    1    3    3    0    0  0.22684389861E+02 -0.11713232583E+02  0.18040003568E+02  0.31260567652E+02  0.51100000000E-03 0.  1.
         12    1    3    3    0    0 -0.90135653021E+01 -0.15904155842E+02 -0.87713953416E+01  0.20276190686E+02  0.00000000000E+00 0. -1.
</event>
<event>
 7    1  0.2941727E-013  0.7246156E+02  0.7816164E-02  0.1226708E+00
        -11   -1    0    0    0    0  0.00000000000E+00  0.00000000000E+00  0.45593999997E+02  0.45594000000E+02  0.51100000000E-03 0. -1.
         11   -1    0    0    0    0 -0.00000000000E+00 -0.00000000000E+00 -0.45593999997E+02  0.45594000000E+02  0.51100000000E-03 0.  1.
    9900012    2    1    2    0    0 -0.34246688803E+01  0.17975699711E+02 -0.39781127029E+01  0.72461560998E+02  0.69999987889E+02 0.  0.
         12    1    1    2    0    0  0.34246688803E+01 -0.17975699711E+02  0.39781127029E+01  0.18726439002E+02  0.00000000000E+00 0. -1.
         11    1    3    3    0    0  0.78394649903E+01 -0.23468574345E+02 -0.15503384241E+01  0.24791828142E+02  0.51100000000E-03 0. -1.
        -11    1    3    3    0    0 -0.10438107047E+02  0.10408572173E+02 -0.69470791404E+01  0.16295838802E+02  0.51100000000E-03 0.  1.
        -12    1    3    3    0    0 -0.82602682341E+00  0.31035701883E+02  0.45193048615E+01  0.31373894054E+02  0.00000000000E+00 0.  1.
</event>
<event>
 7    1  0.2941727E-013  0.7246151E+02  0.7816164E-02  0.1226708E+00
        -11   -1    0    0    0    0  0.00000000000E+00  0.00000000000E+00  0.45593999997E+02  0.45594000000E+02  0.51100000000E-03 0.  1.
         11   -1    0    0    0    0 -0.00000000000E+00 -0.00000000000E+00 -0.45593999997E+02  0.45594000000E+02  0.51100000000E-03 0. -1.
    9900012    2    1    2    0    0 -0.15110313947E+02  0.10783751348E+02  0.24638801543E+01  0.72461505771E+02  0.69999915947E+02 0.  0.
         12    1    1    2    0    0  0.15110313947E+02 -0.10783751348E+02 -0.24638801543E+01  0.18726494229E+02  0.00000000000E+00 0. -1.
         11    1    3    3    0    0 -0.38835320579E+02  0.24452584639E+01  0.21530561291E+01  0.38971747001E+02  0.51100000000E-03 0. -1.
        -11    1    3    3    0    0 -0.38131801719E+01  0.17564501443E+01  0.28315519845E+01  0.50639063020E+01  0.51100000000E-03 0.  1.
        -12    1    3    3    0    0  0.27538186804E+02  0.65820427394E+01 -0.25207279593E+01  0.28425852468E+02  0.00000000000E+00 0.  1.
</event>
<event>
 7    1  0.2941727E-013  0.7246156E+02  0.7816164E-02  0.1226708E+00
        -11   -1    0    0    0    0  0.00000000000E+00  0.00000000000E+00  0.45593999997E+02  0.45594000000E+02  0.51100000000E-03 0.  1.
         11   -1    0    0    0    0 -0.00000000000E+00 -0.00000000000E+00 -0.45593999997E+02  0.45594000000E+02  0.51100000000E-03 0. -1.
    9900012    2    1    2    0    0 -0.42311406521E+01  0.18200069730E+02  0.12388021765E+01  0.72461555590E+02  0.69999980845E+02 0.  0.
         12    1    1    2    0    0  0.42311406521E+01 -0.18200069730E+02 -0.12388021765E+01  0.18726444410E+02  0.00000000000E+00 0. -1.
         11    1    3    3    0    0 -0.12359356738E+01 -0.12011225285E+01  0.11097452173E+01  0.20498212183E+01  0.51100000000E-03 0. -1.
        -11    1    3    3    0    0  0.79848104229E+01 -0.19431809951E+02  0.16649244092E+02  0.26805778566E+02  0.51100000000E-03 0.  1.
         12    1    3    3    0    0 -0.10980015401E+02  0.38833002209E+02 -0.16520187133E+02  0.43605955806E+02  0.00000000000E+00 0. -1.
</event>
<event>
 7    1  0.2941727E-013  0.7246157E+02  0.7816164E-02  0.1226708E+00
        -11   -1    0    0    0    0  0.00000000000E+00  0.00000000000E+00  0.45593999997E+02  0.45594000000E+02  0.51100000000E-03 0. -1.
         11   -1    0    0    0    0 -0.00000000000E+00 -0.00000000000E+00 -0.45593999997E+02  0.45594000000E+02  0.51100000000E-03 0.  1.
    9900012    2    1    2    0    0 -0.27290814244E+00 -0.10590990336E+02 -0.15441355386E+02  0.72461574519E+02  0.70000005503E+02 0.  0.
         12    1    1    2    0    0  0.27290814244E+00  0.10590990336E+02  0.15441355386E+02  0.18726425481E+02  0.00000000000E+00 0. -1.
         11    1    3    3    0    0 -0.32552902397E+01  0.21316438754E+02  0.21173151464E+01  0.21667267927E+02  0.51100000000E-03 0. -1.
        -11    1    3    3    0    0 -0.12972217207E+02 -0.15283335684E+01 -0.23967487328E+01  0.13280008566E+02  0.51100000000E-03 0.  1.
         12    1    3    3    0    0  0.15954599304E+02 -0.30379095523E+02 -0.15161921799E+02  0.37514298026E+02  0.00000000000E+00 0. -1.
</event>
<event>
 7    1  0.2941727E-013  0.7246179E+02  0.7816164E-02  0.1226707E+00
        -11   -1    0    0    0    0  0.00000000000E+00  0.00000000000E+00  0.45593999997E+02  0.45594000000E+02  0.51100000000E-03 0. -1.
         11   -1    0    0    0    0 -0.00000000000E+00 -0.00000000000E+00 -0.45593999997E+02  0.45594000000E+02  0.51100000000E-03 0.  1.
    9900012    2    1    2    0    0 -0.16508385958E+02  0.29420239270E+01 -0.83359802022E+01  0.72461791690E+02  0.70000288409E+02 0.  0.
         12    1    1    2    0    0  0.16508385958E+02 -0.29420239270E+01  0.83359802022E+01  0.18726208310E+02  0.00000000000E+00 0. -1.
         11    1    3    3    0    0 -0.81234105443E+01  0.32455321452E+02 -0.10986104527E+02  0.35214090680E+02  0.51100000000E-03 0. -1.
        -11    1    3    3    0    0 -0.14659948573E+02 -0.19271881914E+02 -0.21583323102E+01  0.24310037501E+02  0.51100000000E-03 0.  1.
        -12    1    3    3    0    0  0.62749731592E+01 -0.10241415612E+02  0.48084566354E+01  0.12937663510E+02  0.00000000000E+00 0.  1.
</event>
<event>
 7    1  0.2941727E-013  0.7246156E+02  0.7816164E-02  0.1226708E+00
        -11   -1    0    0    0    0  0.00000000000E+00  0.00000000000E+00  0.45593999997E+02  0.45594000000E+02  0.51100000000E-03 0. -1.
         11   -1    0    0    0    0 -0.00000000000E+00 -0.00000000000E+00 -0.45593999997E+02  0.45594000000E+02  0.51100000000E-03 0.  1.
    9900012    2    1    2    0    0 -0.29982064546E+01 -0.60831839663E+01  0.17455229295E+02  0.72461564171E+02  0.69999992023E+02 0.  0.
         12    1    1    2    0    0  0.29982064546E+01  0.60831839663E+01 -0.17455229295E+02  0.18726435829E+02  0.00000000000E+00 0. -1.
         11    1    3    3    0    0  0.93329414363E+01 -0.74067575832E+01  0.26237642623E+02  0.28816275686E+02  0.51100000000E-03 0. -1.
        -11    1    3    3    0    0  0.13704267897E+02  0.78215908172E+01 -0.49594632787E+01  0.16540269580E+02  0.51100000000E-03 0.  1.
        -12    1    3    3    0    0 -0.26035415788E+02 -0.64980172003E+01 -0.38229500486E+01  0.27105018905E+02  0.00000000000E+00 0.  1.
</event>
<event>
 7    1  0.2941727E-013  0.7246156E+02  0.7816164E-02  0.1226708E+00
        -11   -1    0    0    0    0  0.00000000000E+00  0.00000000000E+00  0.45593999997E+02  0.45594000000E+02  0.51100000000E-03 0. -1.
         11   -1    0    0    0    0 -0.00000000000E+00 -0.00000000000E+00 -0.45593999997E+02  0.45594000000E+02  0.51100000000E-03 0.  1.
    9900012    2    1    2    0    0 -0.12575716282E+02  0.11867737584E+02 -0.71894044595E+01  0.72461564892E+02  0.69999992963E+02 0.  0.
         12    1    1    2    0    0  0.12575716282E+02 -0.11867737584E+02  0.71894044595E+01  0.18726435108E+02  0.00000000000E+00 0. -1.
         11    1    3    3    0    0 -0.13140216779E+02  0.10664179494E+02  0.12734215169E+02  0.21179005111E+02  0.51100000000E-03 0. -1.
        -11    1    3    3    0    0 -0.37676465793E+01 -0.15352711286E+02 -0.28157161701E+02  0.32291278387E+02  0.51100000000E-03 0.  1.
         12    1    3    3    0    0  0.43321470759E+01  0.16556269375E+02  0.82335420727E+01  0.18991281394E+02  0.00000000000E+00 0. -1.
</event>
<event>
 7    1  0.2941727E-013  0.7246159E+02  0.7816164E-02  0.1226708E+00
        -11   -1    0    0    0    0  0.00000000000E+00  0.00000000000E+00  0.45593999997E+02  0.45594000000E+02  0.51100000000E-03 0.  1.
         11   -1    0    0    0    0 -0.00000000000E+00 -0.00000000000E+00 -0.45593999997E+02  0.45594000000E+02  0.51100000000E-03 0. -1.
    9900012    2    1    2    0    0 -0.15243788795E+02 -0.52424138625E+01  0.95300706106E+01  0.72461594959E+02  0.70000032130E+02 0.  0.
         12    1    1    2    0    0  0.15243788795E+02  0.52424138625E+01 -0.95300706106E+01  0.18726405041E+02  0.00000000000E+00 0. -1.
         11    1    3    3    0    0  0.23566755704E+02  0.26244628671E+01  0.50992682230E+01  0.24254531874E+02  0.51100000000E-03 0. -1.
        -11    1    3    3    0    0 -0.98466078865E+01  0.97874754605E+01  0.32882068120E+01  0.14267538928E+02  0.51100000000E-03 0.  1.
        -12    1    3    3    0    0 -0.28963936612E+02 -0.17654352190E+02  0.11425955756E+01  0.33939524157E+02  0.00000000000E+00 0.  1.
</event>
<event>
 7    1  0.2941727E-013  0.7246156E+02  0.7816164E-02  0.1226708E+00
        -11   -1    0    0    0    0  0.00000000000E+00  0.00000000000E+00  0.45593999997E+02  0.45594000000E+02  0.51100000000E-03 0.  1.
         11   -1    0    0    0    0 -0.00000000000E+00 -0.00000000000E+00 -0.45593999997E+02  0.45594000000E+02  0.51100000000E-03 0. -1.
    9900012    2    1    2    0    0 -0.14370423073E+02  0.67371404903E+01  0.99388770712E+01  0.72461564175E+02  0.69999992028E+02 0.  0.
         12    1    1    2    0    0  0.14370423073E+02 -0.67371404903E+01 -0.99388770712E+01  0.18726435825E+02  0.00000000000E+00 0. -1.
         11    1    3    3    0    0  0.10278118273E+02 -0.81568150932E+01  0.24376299284E+01  0.13345987698E+02  0.51100000000E-03 0. -1.
        -11    1    3    3    0    0 -0.15492748666E+02 -0.16448595386E+02 -0.66119843101E+01  0.23543574244E+02  0.51100000000E-03 0.  1.
        -12    1    3    3    0    0 -0.91557926796E+01  0.31342550969E+02  0.14113231453E+02  0.35572002234E+02  0.00000000000E+00 0.  1.
</event>
<event>
 7    1  0.2941727E-013  0.7246153E+02  0.7816164E-02  0.1226708E+00
        -11   -1    0    0    0    0  0.00000000000E+00  0.00000000000E+00  0.45593999997E+02  0.45594000000E+02  0.51100000000E-03 0.  1.
         11   -1    0    0    0    0 -0.00000000000E+00 -0.00000000000E+00 -0.45593999997E+02  0.45594000000E+02  0.51100000000E-03 0. -1.
    9900012    2    1    2    0    0  0.10297755581E+02 -0.15139718444E+02  0.39275951395E+01  0.72461525475E+02  0.69999941614E+02 0.  0.
         12    1    1    2    0    0 -0.10297755581E+02  0.15139718444E+02 -0.39275951395E+01  0.18726474525E+02  0.00000000000E+00 0. -1.
         11    1    3    3    0    0 -0.11786713648E+02 -0.13324162266E+02 -0.15964024416E+02  0.23902091844E+02  0.51100000000E-03 0. -1.
        -11    1    3    3    0    0 -0.23378763262E+01 -0.14060240264E+02 -0.81870277547E+00  0.14276774723E+02  0.51100000000E-03 0.  1.
        -12    1    3    3    0    0  0.24422345555E+02  0.12244684085E+02  0.20710322331E+02  0.34282658908E+02  0.00000000000E+00 0.  1.
</event>
<event>
 7    1  0.2941727E-013  0.7246156E+02  0.7816164E-02  0.1226708E+00
        -11   -1    0    0    0    0  0.00000000000E+00  0.00000000000E+00  0.45593999997E+02  0.45594000000E+02  0.51100000000E-03 0.  1.
         11   -1    0    0    0    0 -0.00000000000E+00 -0.00000000000E+00 -0.45593999997E+02  0.45594000000E+02  0.51100000000E-03 0. -1.
    9900012    2    1    2    0    0  0.17802078473E+02  0.58086789968E+01  0.15698192755E+00  0.72461564328E+02  0.69999992227E+02 0.  0.
         12    1    1    2    0    0 -0.17802078473E+02 -0.58086789968E+01 -0.15698192755E+00  0.18726435672E+02  0.00000000000E+00 0. -1.
         11    1    3    3    0    0  0.60008698279E+01 -0.10734697678E+02 -0.14012562800E+01  0.12377709496E+02  0.51100000000E-03 0. -1.
        -11    1    3    3    0    0  0.26607082607E+02  0.93070407794E+01  0.20591214964E+02  0.34907821285E+02  0.51100000000E-03 0.  1.
         12    1    3    3    0    0 -0.14805873961E+02  0.72363358955E+01 -0.19032976756E+02  0.25176033547E+02  0.00000000000E+00 0. -1.
</event>
<event>
 7    1  0.2941727E-013  0.7246156E+02  0.7816164E-02  0.1226708E+00
        -11   -1    0    0    0    0  0.00000000000E+00  0.00000000000E+00  0.45593999997E+02  0.45594000000E+02  0.51100000000E-03 0.  1.
         11   -1    0    0    0    0 -0.00000000000E+00 -0.00000000000E+00 -0.45593999997E+02  0.45594000000E+02  0.51100000000E-03 0. -1.
    9900012    2    1    2    0    0 -0.18227556266E+02 -0.35375440387E+01  0.24334465561E+01  0.72461556467E+02  0.69999981987E+02 0.  0.
         12    1    1    2    0    0  0.18227556266E+02  0.35375440387E+01 -0.24334465561E+01  0.18726443533E+02  0.00000000000E+00 0. -1.
         11    1    3    3    0    0  0.75625919902E+01 -0.98537219643E+01 -0.55281783868E+01  0.13595932873E+02  0.51100000000E-03 0. -1.
        -11    1    3    3    0    0  0.54075428955E+01  0.14456881851E+02 -0.13191124860E+02  0.20303909189E+02  0.51100000000E-03 0.  1.
        -12    1    3    3    0    0 -0.31197691152E+02 -0.81407039254E+01  0.21152749803E+02  0.38561714405E+02  0.00000000000E+00 0.  1.
</event>
<event>
 7    1  0.2941727E-013  0.7246140E+02  0.7816164E-02  0.1226708E+00
        -11   -1    0    0    0    0  0.00000000000E+00  0.00000000000E+00  0.45593999997E+02  0.45594000000E+02  0.51100000000E-03 0.  1.
         11   -1    0    0    0    0 -0.00000000000E+00 -0.00000000000E+00 -0.45593999997E+02  0.45594000000E+02  0.51100000000E-03 0. -1.
    9900012    2    1    2    0    0  0.96901491251E+01  0.36246535358E+01  0.15609245534E+02  0.72461397280E+02  0.69999774616E+02 0.  0.
         12    1    1    2    0    0 -0.96901491251E+01 -0.36246535358E+01 -0.15609245534E+02  0.18726602720E+02  0.00000000000E+00 0. -1.
         11    1    3    3    0    0 -0.10133489370E+02  0.11782476534E+02 -0.13779750899E+02  0.20770072104E+02  0.51100000000E-03 0. -1.
        -11    1    3    3    0    0  0.23247583206E+02  0.14897856097E+01  0.31265233147E+01  0.23504142920E+02  0.51100000000E-03 0.  1.
        -12    1    3    3    0    0 -0.34239447114E+01 -0.96476086083E+01  0.26262473118E+02  0.28187182256E+02  0.00000000000E+00 0.  1.
</event>
<event>
 7    1  0.2941727E-013  0.7246151E+02  0.7816164E-02  0.1226708E+00
        -11   -1    0    0    0    0  0.00000000000E+00  0.00000000000E+00  0.45593999997E+02  0.45594000000E+02  0.51100000000E-03 0. -1.
         11   -1    0    0    0    0 -0.00000000000E+00 -0.00000000000E+00 -0.45593999997E+02  0.45594000000E+02  0.51100000000E-03 0.  1.
    9900012    2    1    2    0    0  0.12244212463E+02  0.98016477134E+01 -0.10231738941E+02  0.72461507576E+02  0.69999918298E+02 0.  0.
         12    1    1    2    0    0 -0.12244212463E+02 -0.98016477134E+01  0.10231738941E+02  0.18726492424E+02  0.00000000000E+00 0. -1.
         11    1    3    3    0    0  0.57942296379E+01  0.18149995716E+02  0.77584987321E+01  0.20571576129E+02  0.51100000000E-03 0.  1.
        -11    1    3    3    0    0  0.97389232663E+00 -0.21765895857E+02  0.70998373092E+01  0.22915287011E+02  0.51100000000E-03 0. -1.
         12    1    3    3    0    0  0.54760904988E+01  0.13417547855E+02 -0.25090074983E+02  0.28974644436E+02  0.00000000000E+00 0. -1.
</event>
<event>
 7    1  0.2941727E-013  0.7246165E+02  0.7816164E-02  0.1226708E+00
        -11   -1    0    0    0    0  0.00000000000E+00  0.00000000000E+00  0.45593999997E+02  0.45594000000E+02  0.51100000000E-03 0.  1.
         11   -1    0    0    0    0 -0.00000000000E+00 -0.00000000000E+00 -0.45593999997E+02  0.45594000000E+02  0.51100000000E-03 0. -1.
    9900012    2    1    2    0    0 -0.79120480152E+01 -0.15272175490E+02 -0.74051680614E+01  0.72461645256E+02  0.70000097651E+02 0.  0.
         12    1    1    2    0    0  0.79120480152E+01  0.15272175490E+02  0.74051680614E+01  0.18726354744E+02  0.00000000000E+00 0. -1.
         11    1    3    3    0    0  0.14946128728E+02  0.95663517475E+01  0.13336671981E+02  0.22198393399E+02  0.51100000000E-03 0. -1.
        -11    1    3    3    0    0 -0.10683597495E+02 -0.29257487183E+01  0.68189193600E+01  0.13007571737E+02  0.51100000000E-03 0.  1.
         12    1    3    3    0    0 -0.12174579248E+02 -0.21912778519E+02 -0.27560759403E+02  0.37255680119E+02  0.00000000000E+00 0. -1.
</event>
<event>
 7    1  0.2941727E-013  0.7246158E+02  0.7816164E-02  0.1226708E+00
        -11   -1    0    0    0    0  0.00000000000E+00  0.00000000000E+00  0.45593999997E+02  0.45594000000E+02  0.51100000000E-03 0.  1.
         11   -1    0    0    0    0 -0.00000000000E+00 -0.00000000000E+00 -0.45593999997E+02  0.45594000000E+02  0.51100000000E-03 0. -1.
    9900012    2    1    2    0    0  0.14854697545E+02 -0.11194407035E+02  0.21684389608E+01  0.72461577076E+02  0.70000008834E+02 0.  0.
         12    1    1    2    0    0 -0.14854697545E+02  0.11194407035E+02 -0.21684389608E+01  0.18726422924E+02  0.00000000000E+00 0. -1.
         11    1    3    3    0    0  0.13787227321E+02 -0.39629130251E+01  0.82161470941E+01  0.16531708628E+02  0.51100000000E-03 0. -1.
        -11    1    3    3    0    0  0.21012943704E+02 -0.80799945643E+01  0.14896752937E+02  0.26995247056E+02  0.51100000000E-03 0.  1.
         12    1    3    3    0    0 -0.19945473480E+02  0.84850055431E+00 -0.20944461071E+02  0.28934621392E+02  0.00000000000E+00 0. -1.
</event>
<event>
 7    1  0.2941727E-013  0.7246159E+02  0.7816164E-02  0.1226708E+00
        -11   -1    0    0    0    0  0.00000000000E+00  0.00000000000E+00  0.45593999997E+02  0.45594000000E+02  0.51100000000E-03 0. -1.
         11   -1    0    0    0    0 -0.00000000000E+00 -0.00000000000E+00 -0.45593999997E+02  0.45594000000E+02  0.51100000000E-03 0.  1.
    9900012    2    1    2    0    0  0.26735023899E+01  0.14337956180E+02 -0.11745369443E+02  0.72461593356E+02  0.70000030042E+02 0.  0.
         12    1    1    2    0    0 -0.26735023899E+01 -0.14337956180E+02  0.11745369443E+02  0.18726406644E+02  0.00000000000E+00 0. -1.
         11    1    3    3    0    0  0.95434808084E+00 -0.34586236312E+00  0.15017446096E+02  0.15051713808E+02  0.51100000000E-03 0. -1.
        -11    1    3    3    0    0  0.98090402831E+01  0.92714436420E+01 -0.39291170806E+02  0.41544831712E+02  0.51100000000E-03 0.  1.
         12    1    3    3    0    0 -0.80898859741E+01  0.54123749013E+01  0.12528355267E+02  0.15865047836E+02  0.00000000000E+00 0. -1.
</event>
<event>
 7    1  0.2941727E-013  0.7246161E+02  0.7816164E-02  0.1226708E+00
        -11   -1    0    0    0    0  0.00000000000E+00  0.00000000000E+00  0.45593999997E+02  0.45594000000E+02  0.51100000000E-03 0.  1.
         11   -1    0    0    0    0 -0.00000000000E+00 -0.00000000000E+00 -0.45593999997E+02  0.45594000000E+02  0.51100000000E-03 0. -1.
    9900012    2    1    2    0    0 -0.17384475990E+02 -0.48019679771E+01  0.50397077719E+01  0.72461613367E+02  0.70000056110E+02 0.  0.
         12    1    1    2    0    0  0.17384475990E+02  0.48019679771E+01 -0.50397077719E+01  0.18726386633E+02  0.00000000000E+00 0. -1.
         11    1    3    3    0    0 -0.10278155731E+02 -0.13571356038E+01 -0.14197873973E+02  0.17580157220E+02  0.51100000000E-03 0. -1.
        -11    1    3    3    0    0 -0.25755556469E+02  0.10803823321E+02  0.10488918976E+02  0.29834354508E+02  0.51100000000E-03 0.  1.
        -12    1    3    3    0    0  0.18649236209E+02 -0.14248655694E+02  0.87486627688E+01  0.25047101639E+02  0.00000000000E+00 0.  1.
</event>
<event>
 7    1  0.2941727E-013  0.7246161E+02  0.7816164E-02  0.1226708E+00
        -11   -1    0    0    0    0  0.00000000000E+00  0.00000000000E+00  0.45593999997E+02  0.45594000000E+02  0.51100000000E-03 0.  1.
         11   -1    0    0    0    0 -0.00000000000E+00 -0.00000000000E+00 -0.45593999997E+02  0.45594000000E+02  0.51100000000E-03 0. -1.
    9900012    2    1    2    0    0  0.55512650412E+01 -0.17021005265E+00  0.17883847437E+02  0.72461614493E+02  0.70000057577E+02 0.  0.
         12    1    1    2    0    0 -0.55512650412E+01  0.17021005265E+00 -0.17883847437E+02  0.18726385507E+02  0.00000000000E+00 0. -1.
         11    1    3    3    0    0 -0.12660095189E+02  0.16812197823E+02  0.30791964702E+01  0.21269919064E+02  0.51100000000E-03 0. -1.
        -11    1    3    3    0    0 -0.83189617107E+01 -0.17613088051E+02  0.15109642883E+02  0.24652125729E+02  0.51100000000E-03 0.  1.
        -12    1    3    3    0    0  0.26530321941E+02  0.63068017514E+00 -0.30499191650E+00  0.26539569700E+02  0.00000000000E+00 0.  1.
</event>
<event>
 7    1  0.2941727E-013  0.7246158E+02  0.7816164E-02  0.1226708E+00
        -11   -1    0    0    0    0  0.00000000000E+00  0.00000000000E+00  0.45593999997E+02  0.45594000000E+02  0.51100000000E-03 0.  1.
         11   -1    0    0    0    0 -0.00000000000E+00 -0.00000000000E+00 -0.45593999997E+02  0.45594000000E+02  0.51100000000E-03 0. -1.
    9900012    2    1    2    0    0 -0.37352793372E+01 -0.31310794613E+01  0.18081012394E+02  0.72461575367E+02  0.70000006609E+02 0.  0.
         12    1    1    2    0    0  0.37352793372E+01  0.31310794613E+01 -0.18081012394E+02  0.18726424633E+02  0.00000000000E+00 0. -1.
         11    1    3    3    0    0  0.53706953787E+01 -0.20734000687E+02  0.14140822644E+02  0.25665268724E+02  0.51100000000E-03 0. -1.
        -11    1    3    3    0    0  0.25504389243E+01 -0.12966751544E+02  0.48229826525E+01  0.14067783984E+02  0.51100000000E-03 0.  1.
        -12    1    3    3    0    0 -0.11656413640E+02  0.30569672769E+02 -0.88279290252E+00  0.32728522660E+02  0.00000000000E+00 0.  1.
</event>
<event>
 7    1  0.2941727E-013  0.7246181E+02  0.7816164E-02  0.1226707E+00
        -11   -1    0    0    0    0  0.00000000000E+00  0.00000000000E+00  0.45593999997E+02  0.45594000000E+02  0.51100000000E-03 0.  1.
         11   -1    0    0    0    0 -0.00000000000E+00 -0.00000000000E+00 -0.45593999997E+02  0.45594000000E+02  0.51100000000E-03 0. -1.
    9900012    2    1    2    0    0  0.83735840764E+01 -0.35745226138E+01  0.16363866121E+02  0.72461808807E+02  0.70000310706E+02 0.  0.
         12    1    1    2    0    0 -0.83735840764E+01  0.35745226138E+01 -0.16363866121E+02  0.18726191193E+02  0.00000000000E+00 0. -1.
         11    1    3    3    0    0  0.44250783605E+00  0.18997018962E+02 -0.14836868385E+02  0.24108405305E+02  0.51100000000E-03 0. -1.
        -11    1    3    3    0    0 -0.60084868790E+00  0.49721930930E+01  0.13786405196E+02  0.14667947771E+02  0.51100000000E-03 0.  1.
        -12    1    3    3    0    0  0.85319249283E+01 -0.27543734669E+02  0.17414329309E+02  0.33685455731E+02  0.00000000000E+00 0.  1.
</event>
<event>
 7    1  0.2941727E-013  0.7246146E+02  0.7816164E-02  0.1226708E+00
        -11   -1    0    0    0    0  0.00000000000E+00  0.00000000000E+00  0.45593999997E+02  0.45594000000E+02  0.51100000000E-03 0.  1.
         11   -1    0    0    0    0 -0.00000000000E+00 -0.00000000000E+00 -0.45593999997E+02  0.45594000000E+02  0.51100000000E-03 0. -1.
    9900012    2    1    2    0    0 -0.11270489271E+02 -0.40543731650E+01 -0.14395192800E+02  0.72461456113E+02  0.69999851258E+02 0.  0.
         12    1    1    2    0    0  0.11270489271E+02  0.40543731650E+01  0.14395192800E+02  0.18726543887E+02  0.00000000000E+00 0. -1.
         11    1    3    3    0    0 -0.77648063251E+01 -0.28829019303E+02 -0.26740232727E+02  0.40080476766E+02  0.51100000000E-03 0. -1.
        -11    1    3    3    0    0 -0.63843886029E+01  0.93729053329E+01 -0.15408633648E+01  0.11444912948E+02  0.51100000000E-03 0.  1.
        -12    1    3    3    0    0  0.28787056567E+01  0.15401740805E+02  0.13885903292E+02  0.20936066400E+02  0.00000000000E+00 0.  1.
</event>
<event>
 7    1  0.2941727E-013  0.7246152E+02  0.7816164E-02  0.1226708E+00
        -11   -1    0    0    0    0  0.00000000000E+00  0.00000000000E+00  0.45593999997E+02  0.45594000000E+02  0.51100000000E-03 0. -1.
         11   -1    0    0    0    0 -0.00000000000E+00 -0.00000000000E+00 -0.45593999997E+02  0.45594000000E+02  0.51100000000E-03 0.  1.
    9900012    2    1    2    0    0 -0.50301776357E+01  0.17226145474E+02 -0.53514875712E+01  0.72461516236E+02  0.69999929579E+02 0.  0.
         12    1    1    2    0    0  0.50301776357E+01 -0.17226145474E+02  0.53514875712E+01  0.18726483764E+02  0.00000000000E+00 0. -1.
         11    1    3    3    0    0 -0.20762873098E+02  0.43242852617E+01  0.77745318340E+01  0.22588485735E+02  0.51100000000E-03 0.  1.
        -11    1    3    3    0    0  0.35056518064E+01  0.35095240167E+01  0.16090555650E+02  0.16837824527E+02  0.51100000000E-03 0. -1.
        -12    1    3    3    0    0  0.12227043656E+02  0.93923361957E+01 -0.29216575055E+02  0.33035205974E+02  0.00000000000E+00 0.  1.
</event>
<event>
 7    1  0.2941727E-013  0.7246191E+02  0.7816164E-02  0.1226707E+00
        -11   -1    0    0    0    0  0.00000000000E+00  0.00000000000E+00  0.45593999997E+02  0.45594000000E+02  0.51100000000E-03 0.  1.
         11   -1    0    0    0    0 -0.00000000000E+00 -0.00000000000E+00 -0.45593999997E+02  0.45594000000E+02  0.51100000000E-03 0. -1.
    9900012    2    1    2    0    0  0.24017772715E+01  0.18060307851E+02  0.43270210231E+01  0.72461912190E+02  0.70000445381E+02 0.  0.
         12    1    1    2    0    0 -0.24017772715E+01 -0.18060307851E+02 -0.43270210231E+01  0.18726087810E+02  0.00000000000E+00 0. -1.
         11    1    3    3    0    0 -0.10850005851E+02 -0.14561415822E+02  0.17423398679E+01  0.18242620596E+02  0.51100000000E-03 0. -1.
        -11    1    3    3    0    0  0.12123963102E+02 -0.45872639369E+01  0.98629546160E+01  0.16288380697E+02  0.51100000000E-03 0.  1.
        -12    1    3    3    0    0  0.11278200214E+01  0.37208987610E+02 -0.72782734608E+01  0.37930910897E+02  0.00000000000E+00 0.  1.
</event>
<event>
 7    1  0.2941727E-013  0.7246155E+02  0.7816164E-02  0.1226708E+00
        -11   -1    0    0    0    0  0.00000000000E+00  0.00000000000E+00  0.45593999997E+02  0.45594000000E+02  0.51100000000E-03 0. -1.
         11   -1    0    0    0    0 -0.00000000000E+00 -0.00000000000E+00 -0.45593999997E+02  0.45594000000E+02  0.51100000000E-03 0.  1.
    9900012    2    1    2    0    0 -0.10322402362E+02 -0.87325894639E+01 -0.12956465602E+02  0.72461545179E+02  0.69999967283E+02 0.  0.
         12    1    1    2    0    0  0.10322402362E+02  0.87325894639E+01  0.12956465602E+02  0.18726454821E+02  0.00000000000E+00 0. -1.
         11    1    3    3    0    0 -0.61122428996E+00 -0.78020689527E+00  0.18579897200E+02  0.18606313395E+02  0.51100000000E-03 0. -1.
        -11    1    3    3    0    0  0.45059676096E+01  0.15446183763E+02 -0.93045166619E+01  0.18586617969E+02  0.51100000000E-03 0.  1.
        -12    1    3    3    0    0 -0.14217145682E+02 -0.23398566332E+02 -0.22231846140E+02  0.35268613816E+02  0.00000000000E+00 0.  1.
</event>
<event>
 7    1  0.2941727E-013  0.7246164E+02  0.7816164E-02  0.1226708E+00
        -11   -1    0    0    0    0  0.00000000000E+00  0.00000000000E+00  0.45593999997E+02  0.45594000000E+02  0.51100000000E-03 0.  1.
         11   -1    0    0    0    0 -0.00000000000E+00 -0.00000000000E+00 -0.45593999997E+02  0.45594000000E+02  0.51100000000E-03 0. -1.
    9900012    2    1    2    0    0 -0.83826792966E+01  0.91520424156E+01  0.14023095725E+02  0.72461644074E+02  0.70000096112E+02 0.  0.
         12    1    1    2    0    0  0.83826792966E+01 -0.91520424156E+01 -0.14023095725E+02  0.18726355926E+02  0.00000000000E+00 0. -1.
         11    1    3    3    0    0 -0.35326738281E+01  0.14563592230E+02  0.42831858413E+01  0.15586009246E+02  0.51100000000E-03 0. -1.
        -11    1    3    3    0    0  0.10871401267E+01  0.24015808916E+02  0.11808807821E+02  0.26784116449E+02  0.51100000000E-03 0.  1.
         12    1    3    3    0    0 -0.59371455952E+01 -0.29427358730E+02 -0.20688979375E+01  0.30091518379E+02  0.00000000000E+00 0. -1.
</event>
<event>
 7    1  0.2941727E-013  0.7246157E+02  0.7816164E-02  0.1226708E+00
        -11   -1    0    0    0    0  0.00000000000E+00  0.00000000000E+00  0.45593999997E+02  0.45594000000E+02  0.51100000000E-03 0. -1.
         11   -1    0    0    0    0 -0.00000000000E+00 -0.00000000000E+00 -0.45593999997E+02  0.45594000000E+02  0.51100000000E-03 0.  1.
    9900012    2    1    2    0    0 -0.74220361996E+01 -0.16895119899E+02  0.31855002453E+01  0.72461571895E+02  0.70000002085E+02 0.  0.
         12    1    1    2    0    0  0.74220361996E+01  0.16895119899E+02 -0.31855002453E+01  0.18726428105E+02  0.00000000000E+00 0. -1.
         11    1    3    3    0    0  0.15298667984E+00 -0.46743800407E+01  0.16857250831E+01  0.49714085535E+01  0.51100000000E-03 0. -1.
        -11    1    3    3    0    0 -0.20363699138E+02 -0.26479951424E+02 -0.19810390997E+02  0.38837091313E+02  0.51100000000E-03 0.  1.
         12    1    3    3    0    0  0.12788676258E+02  0.14259211565E+02  0.21310166160E+02  0.28653072028E+02  0.00000000000E+00 0. -1.
</event>
<event>
 7    1  0.2941727E-013  0.7246161E+02  0.7816164E-02  0.1226708E+00
        -11   -1    0    0    0    0  0.00000000000E+00  0.00000000000E+00  0.45593999997E+02  0.45594000000E+02  0.51100000000E-03 0. -1.
         11   -1    0    0    0    0 -0.00000000000E+00 -0.00000000000E+00 -0.45593999997E+02  0.45594000000E+02  0.51100000000E-03 0.  1.
    9900012    2    1    2    0    0  0.35487689317E+01 -0.13280282444E+02 -0.12716846401E+02  0.72461605657E+02  0.70000046066E+02 0.  0.
         12    1    1    2    0    0 -0.35487689317E+01  0.13280282444E+02  0.12716846401E+02  0.18726394343E+02  0.00000000000E+00 0. -1.
         11    1    3    3    0    0 -0.36449521182E+01 -0.25829205640E+01 -0.66223610218E+01  0.79882927055E+01  0.51100000000E-03 0. -1.
        -11    1    3    3    0    0 -0.25528349915E+01 -0.11901065056E+01 -0.33634064791E+02  0.33751794539E+02  0.51100000000E-03 0.  1.
         12    1    3    3    0    0  0.97465560413E+01 -0.95072553740E+01  0.27539579412E+02  0.30721518413E+02  0.00000000000E+00 0. -1.
</event>
<event>
 7    1  0.2941727E-013  0.7246157E+02  0.7816164E-02  0.1226708E+00
        -11   -1    0    0    0    0  0.00000000000E+00  0.00000000000E+00  0.45593999997E+02  0.45594000000E+02  0.51100000000E-03 0.  1.
         11   -1    0    0    0    0 -0.00000000000E+00 -0.00000000000E+00 -0.45593999997E+02  0.45594000000E+02  0.51100000000E-03 0. -1.
    9900012    2    1    2    0    0 -0.45849622115E-02  0.15865485964E+02  0.99481453202E+01  0.72461567847E+02  0.69999996811E+02 0.  0.
         12    1    1    2    0    0  0.45849622115E-02 -0.15865485964E+02 -0.99481453202E+01  0.18726432153E+02  0.00000000000E+00 0. -1.
         11    1    3    3    0    0 -0.70552061344E+01  0.23517343532E+02 -0.47124329044E+01  0.25000968072E+02  0.51100000000E-03 0. -1.
        -11    1    3    3    0    0  0.36218407762E+01  0.57802289887E+01  0.27640451508E+02  0.28469691561E+02  0.51100000000E-03 0.  1.
         12    1    3    3    0    0  0.34287803960E+01 -0.13432086558E+02 -0.12979873284E+02  0.18990908213E+02  0.00000000000E+00 0. -1.
</event>
<event>
 7    1  0.2941727E-013  0.7246157E+02  0.7816164E-02  0.1226708E+00
        -11   -1    0    0    0    0  0.00000000000E+00  0.00000000000E+00  0.45593999997E+02  0.45594000000E+02  0.51100000000E-03 0.  1.
         11   -1    0    0    0    0 -0.00000000000E+00 -0.00000000000E+00 -0.45593999997E+02  0.45594000000E+02  0.51100000000E-03 0. -1.
    9900012    2    1    2    0    0 -0.17457224772E+02  0.61141994676E+01  0.29225192873E+01  0.72461568123E+02  0.69999997171E+02 0.  0.
         12    1    1    2    0    0  0.17457224772E+02 -0.61141994676E+01 -0.29225192873E+01  0.18726431877E+02  0.00000000000E+00 0. -1.
         11    1    3    3    0    0 -0.16034851619E+02 -0.31191778295E+01 -0.58027136918E+01  0.17335432594E+02  0.51100000000E-03 0. -1.
        -11    1    3    3    0    0 -0.69679858005E+00  0.22218855941E+02 -0.15863564879E+02  0.27309627945E+02  0.51100000000E-03 0.  1.
        -12    1    3    3    0    0 -0.72557457331E+00 -0.12985478643E+02  0.24588797858E+02  0.27816507584E+02  0.00000000000E+00 0.  1.
</event>
<event>
 7    1  0.2941727E-013  0.7246156E+02  0.7816164E-02  0.1226708E+00
        -11   -1    0    0    0    0  0.00000000000E+00  0.00000000000E+00  0.45593999997E+02  0.45594000000E+02  0.51100000000E-03 0.  1.
         11   -1    0    0    0    0 -0.00000000000E+00 -0.00000000000E+00 -0.45593999997E+02  0.45594000000E+02  0.51100000000E-03 0. -1.
    9900012    2    1    2    0    0 -0.11983400000E+02 -0.39533746330E+00  0.14384763722E+02  0.72461558944E+02  0.69999985214E+02 0.  0.
         12    1    1    2    0    0  0.11983400000E+02  0.39533746330E+00 -0.14384763722E+02  0.18726441056E+02  0.00000000000E+00 0. -1.
         11    1    3    3    0    0  0.13877447016E+02  0.18414536224E+02  0.18965824371E+02  0.29856007341E+02  0.51100000000E-03 0. -1.
        -11    1    3    3    0    0 -0.21203864188E+02 -0.61803806641E+01  0.86605185853E+01  0.23723523012E+02  0.51100000000E-03 0.  1.
        -12    1    3    3    0    0 -0.46569828272E+01 -0.12629493023E+02 -0.13241579235E+02  0.18882028591E+02  0.00000000000E+00 0.  1.
</event>
<event>
 7    1  0.2941727E-013  0.7246161E+02  0.7816164E-02  0.1226708E+00
        -11   -1    0    0    0    0  0.00000000000E+00  0.00000000000E+00  0.45593999997E+02  0.45594000000E+02  0.51100000000E-03 0.  1.
         11   -1    0    0    0    0 -0.00000000000E+00 -0.00000000000E+00 -0.45593999997E+02  0.45594000000E+02  0.51100000000E-03 0. -1.
    9900012    2    1    2    0    0 -0.14885741749E+02  0.10490355066E+02  0.43640436774E+01  0.72461608622E+02  0.70000049929E+02 0.  0.
         12    1    1    2    0    0  0.14885741749E+02 -0.10490355066E+02 -0.43640436774E+01  0.18726391378E+02  0.00000000000E+00 0. -1.
         11    1    3    3    0    0  0.52566419772E+01 -0.12491970812E+02  0.17491628420E+02  0.22127780835E+02  0.51100000000E-03 0. -1.
        -11    1    3    3    0    0 -0.44579320748E+01  0.19577289312E+01  0.12651570810E+02  0.13556109515E+02  0.51100000000E-03 0.  1.
         12    1    3    3    0    0 -0.15684451651E+02  0.21024596946E+02 -0.25779155552E+02  0.36777718273E+02  0.00000000000E+00 0. -1.
</event>
<event>
 7    1  0.2941727E-013  0.7246157E+02  0.7816164E-02  0.1226708E+00
        -11   -1    0    0    0    0  0.00000000000E+00  0.00000000000E+00  0.45593999997E+02  0.45594000000E+02  0.51100000000E-03 0. -1.
         11   -1    0    0    0    0 -0.00000000000E+00 -0.00000000000E+00 -0.45593999997E+02  0.45594000000E+02  0.51100000000E-03 0.  1.
    9900012    2    1    2    0    0  0.16616587428E+02 -0.48901064526E+01  0.71172359406E+01  0.72461570380E+02  0.70000000112E+02 0.  0.
         12    1    1    2    0    0 -0.16616587428E+02  0.48901064526E+01 -0.71172359406E+01  0.18726429620E+02  0.00000000000E+00 0. -1.
         11    1    3    3    0    0 -0.19892648668E+01 -0.19695515001E+02  0.83773111967E+01  0.21495344357E+02  0.51100000000E-03 0. -1.
        -11    1    3    3    0    0  0.23333135565E+02  0.66185125267E+01 -0.19036546977E+02  0.30832288991E+02  0.51100000000E-03 0.  1.
         12    1    3    3    0    0 -0.47272832700E+01  0.81868960216E+01  0.17776471721E+02  0.20133937032E+02  0.00000000000E+00 0. -1.
</event>
<event>
 7    1  0.2941727E-013  0.7246160E+02  0.7816164E-02  0.1226708E+00
        -11   -1    0    0    0    0  0.00000000000E+00  0.00000000000E+00  0.45593999997E+02  0.45594000000E+02  0.51100000000E-03 0.  1.
         11   -1    0    0    0    0 -0.00000000000E+00 -0.00000000000E+00 -0.45593999997E+02  0.45594000000E+02  0.51100000000E-03 0. -1.
    9900012    2    1    2    0    0 -0.16344913157E+02 -0.90505048956E+01 -0.12688890492E+01  0.72461604074E+02  0.70000044004E+02 0.  0.
         12    1    1    2    0    0  0.16344913157E+02  0.90505048956E+01  0.12688890492E+01  0.18726395926E+02  0.00000000000E+00 0. -1.
         11    1    3    3    0    0 -0.24071215795E+02  0.75211905755E+01 -0.64505629920E+01  0.26030779871E+02  0.51100000000E-03 0. -1.
        -11    1    3    3    0    0 -0.13711486897E+02 -0.12110296690E+02  0.13783056563E+02  0.22904951590E+02  0.51100000000E-03 0.  1.
        -12    1    3    3    0    0  0.21437789535E+02 -0.44613987808E+01 -0.86013826205E+01  0.23525872613E+02  0.00000000000E+00 0.  1.
</event>
<event>
 7    1  0.2941727E-013  0.7246156E+02  0.7816164E-02  0.1226708E+00
        -11   -1    0    0    0    0  0.00000000000E+00  0.00000000000E+00  0.45593999997E+02  0.45594000000E+02  0.51100000000E-03 0.  1.
         11   -1    0    0    0    0 -0.00000000000E+00 -0.00000000000E+00 -0.45593999997E+02  0.45594000000E+02  0.51100000000E-03 0. -1.
    9900012    2    1    2    0    0  0.10524489924E+02 -0.19186175929E+01  0.15369886036E+02  0.72461564717E+02  0.69999992735E+02 0.  0.
         12    1    1    2    0    0 -0.10524489924E+02  0.19186175929E+01 -0.15369886036E+02  0.18726435283E+02  0.00000000000E+00 0. -1.
         11    1    3    3    0    0 -0.18801822510E+02  0.72298466635E+01  0.10195284669E+02  0.22577046800E+02  0.51100000000E-03 0. -1.
        -11    1    3    3    0    0  0.66893008383E+01  0.70381891765E+01  0.17055379707E+02  0.19625718581E+02  0.51100000000E-03 0.  1.
        -12    1    3    3    0    0  0.22637011596E+02 -0.16186653433E+02 -0.11880778340E+02  0.30258799337E+02  0.00000000000E+00 0.  1.
</event>
<event>
 7    1  0.2941727E-013  0.7246151E+02  0.7816164E-02  0.1226708E+00
        -11   -1    0    0    0    0  0.00000000000E+00  0.00000000000E+00  0.45593999997E+02  0.45594000000E+02  0.51100000000E-03 0.  1.
         11   -1    0    0    0    0 -0.00000000000E+00 -0.00000000000E+00 -0.45593999997E+02  0.45594000000E+02  0.51100000000E-03 0. -1.
    9900012    2    1    2    0    0  0.11349080464E+01 -0.83619814953E+01  0.16717375139E+02  0.72461511212E+02  0.69999923034E+02 0.  0.
         12    1    1    2    0    0 -0.11349080464E+01  0.83619814953E+01 -0.16717375139E+02  0.18726488788E+02  0.00000000000E+00 0. -1.
         11    1    3    3    0    0  0.15126191621E+02  0.29369392425E+01 -0.22599385496E+02  0.27352504641E+02  0.51100000000E-03 0. -1.
        -11    1    3    3    0    0 -0.27262112605E+01 -0.92941640447E+01  0.11528370170E+02  0.15057125628E+02  0.51100000000E-03 0.  1.
        -12    1    3    3    0    0 -0.11265072314E+02 -0.20047566931E+01  0.27788390464E+02  0.30051880943E+02  0.00000000000E+00 0.  1.
</event>
<event>
 7    1  0.2941727E-013  0.7246160E+02  0.7816164E-02  0.1226708E+00
        -11   -1    0    0    0    0  0.00000000000E+00  0.00000000000E+00  0.45593999997E+02  0.45594000000E+02  0.51100000000E-03 0. -1.
         11   -1    0    0    0    0 -0.00000000000E+00 -0.00000000000E+00 -0.45593999997E+02  0.45594000000E+02  0.51100000000E-03 0.  1.
    9900012    2    1    2    0    0  0.36526224452E+00  0.16876635562E+02 -0.81070302637E+01  0.72461596605E+02  0.70000034275E+02 0.  0.
         12    1    1    2    0    0 -0.36526224452E+00 -0.16876635562E+02  0.81070302637E+01  0.18726403395E+02  0.00000000000E+00 0. -1.
         11    1    3    3    0    0 -0.15220026597E+02  0.13318984428E+02 -0.69501554902E+01  0.21385724618E+02  0.51100000000E-03 0. -1.
        -11    1    3    3    0    0 -0.19353207129E+01  0.15397226201E+02 -0.18199293613E+02  0.23917239164E+02  0.51100000000E-03 0.  1.
         12    1    3    3    0    0  0.17520609555E+02 -0.11839575067E+02  0.17042418840E+02  0.27158632824E+02  0.00000000000E+00 0. -1.
</event>
<event>
 7    1  0.2941727E-013  0.7246153E+02  0.7816164E-02  0.1226708E+00
        -11   -1    0    0    0    0  0.00000000000E+00  0.00000000000E+00  0.45593999997E+02  0.45594000000E+02  0.51100000000E-03 0. -1.
         11   -1    0    0    0    0 -0.00000000000E+00 -0.00000000000E+00 -0.45593999997E+02  0.45594000000E+02  0.51100000000E-03 0.  1.
    9900012    2    1    2    0    0 -0.13115466044E+02  0.13324801581E+02  0.10559666311E+01  0.72461525365E+02  0.69999941471E+02 0.  0.
         12    1    1    2    0    0  0.13115466044E+02 -0.13324801581E+02 -0.10559666311E+01  0.18726474635E+02  0.00000000000E+00 0. -1.
         11    1    3    3    0    0 -0.12931742392E+01 -0.15681184924E+02  0.11309002084E+02  0.19376929288E+02  0.51100000000E-03 0. -1.
        -11    1    3    3    0    0 -0.23805046962E+02  0.71541736378E+01  0.26907362590E+01  0.25002050380E+02  0.51100000000E-03 0.  1.
        -12    1    3    3    0    0  0.11982755158E+02  0.21851812866E+02 -0.12943771712E+02  0.28082545698E+02  0.00000000000E+00 0.  1.
</event>
<event>
 7    1  0.2941727E-013  0.7246145E+02  0.7816164E-02  0.1226708E+00
        -11   -1    0    0    0    0  0.00000000000E+00  0.00000000000E+00  0.45593999997E+02  0.45594000000E+02  0.51100000000E-03 0.  1.
         11   -1    0    0    0    0 -0.00000000000E+00 -0.00000000000E+00 -0.45593999997E+02  0.45594000000E+02  0.51100000000E-03 0. -1.
    9900012    2    1    2    0    0  0.12077640768E+02 -0.88497610604E+01 -0.11247035967E+02  0.72461454793E+02  0.69999849538E+02 0.  0.
         12    1    1    2    0    0 -0.12077640768E+02  0.88497610604E+01  0.11247035967E+02  0.18726545207E+02  0.00000000000E+00 0. -1.
         11    1    3    3    0    0  0.43470741571E+01 -0.14329832184E+02  0.18573973931E+01  0.15089435691E+02  0.51100000000E-03 0. -1.
        -11    1    3    3    0    0 -0.20354123991E+02  0.15455596254E+02 -0.98563193000E+01  0.27391839103E+02  0.51100000000E-03 0.  1.
         12    1    3    3    0    0  0.28084690602E+02 -0.99755251308E+01 -0.32481140603E+01  0.29980179999E+02  0.00000000000E+00 0. -1.
</event>
<event>
 7    1  0.2941727E-013  0.7246206E+02  0.7816164E-02  0.1226707E+00
        -11   -1    0    0    0    0  0.00000000000E+00  0.00000000000E+00  0.45593999997E+02  0.45594000000E+02  0.51100000000E-03 0. -1.
         11   -1    0    0    0    0 -0.00000000000E+00 -0.00000000000E+00 -0.45593999997E+02  0.45594000000E+02  0.51100000000E-03 0.  1.
    9900012    2    1    2    0    0 -0.40539282370E+01 -0.14497378633E+02 -0.11137890541E+02  0.72462057378E+02  0.70000634514E+02 0.  0.
         12    1    1    2    0    0  0.40539282370E+01  0.14497378633E+02  0.11137890541E+02  0.18725942622E+02  0.00000000000E+00 0. -1.
         11    1    3    3    0    0 -0.15921199569E+02 -0.90768798439E+01 -0.44698036611E+01  0.18864079316E+02  0.51100000000E-03 0. -1.
        -11    1    3    3    0    0  0.11142368413E+02 -0.21858562383E+02  0.13152515504E+02  0.27837704425E+02  0.51100000000E-03 0.  1.
         12    1    3    3    0    0  0.72490291862E+00  0.16438063594E+02 -0.19820602384E+02  0.25760273637E+02  0.00000000000E+00 0. -1.
</event>
<event>
 7    1  0.2941727E-013  0.7246158E+02  0.7816164E-02  0.1226708E+00
        -11   -1    0    0    0    0  0.00000000000E+00  0.00000000000E+00  0.45593999997E+02  0.45594000000E+02  0.51100000000E-03 0. -1.
         11   -1    0    0    0    0 -0.00000000000E+00 -0.00000000000E+00 -0.45593999997E+02  0.45594000000E+02  0.51100000000E-03 0.  1.
    9900012    2    1    2    0    0  0.11572061029E+02 -0.48601401403E+01 -0.13897669770E+02  0.72461580596E+02  0.70000013420E+02 0.  0.
         12    1    1    2    0    0 -0.11572061029E+02  0.48601401403E+01  0.13897669770E+02  0.18726419404E+02  0.00000000000E+00 0. -1.
         11    1    3    3    0    0  0.20558712359E+02 -0.11248817008E+01 -0.42675222874E+01  0.21027072061E+02  0.51100000000E-03 0. -1.
        -11    1    3    3    0    0  0.14193887725E+02 -0.10600092407E+02  0.99554074227E+01  0.20320889375E+02  0.51100000000E-03 0.  1.
         12    1    3    3    0    0 -0.23180539055E+02  0.68648339677E+01 -0.19585554905E+02  0.31113619160E+02  0.00000000000E+00 0. -1.
</event>
<event>
 7    1  0.3185190E-013  0.7246153E+02  0.7816164E-02  0.1226708E+00
        -11   -1    0    0    0    0  0.00000000000E+00  0.00000000000E+00  0.45593999997E+02  0.45594000000E+02  0.51100000000E-03 0. -1.
         11   -1    0    0    0    0 -0.00000000000E+00 -0.00000000000E+00 -0.45593999997E+02  0.45594000000E+02  0.51100000000E-03 0.  1.
    9900012    2    1    2    0    0 -0.57744693314E+01  0.65183119986E+00 -0.17802007781E+02  0.72461525131E+02  0.69999941167E+02 0.  0.
         12    1    1    2    0    0  0.57744693314E+01 -0.65183119986E+00  0.17802007781E+02  0.18726474869E+02  0.00000000000E+00 0. -1.
         11    1    3    3    0    0 -0.98086413728E+01 -0.20320358224E+01 -0.52743126694E+01  0.11320644397E+02  0.51100000000E-03 0. -1.
        -11    1    3    3    0    0  0.52059073011E+01  0.16293514687E+02 -0.32627131368E+02  0.36838971121E+02  0.51100000000E-03 0.  1.
         12    1    3    3    0    0 -0.11717352597E+01 -0.13609647665E+02  0.20099436256E+02  0.24301909614E+02  0.00000000000E+00 0. -1.
</event>
<event>
 7    1  0.2941727E-013  0.7246154E+02  0.7816164E-02  0.1226708E+00
        -11   -1    0    0    0    0  0.00000000000E+00  0.00000000000E+00  0.45593999997E+02  0.45594000000E+02  0.51100000000E-03 0.  1.
         11   -1    0    0    0    0 -0.00000000000E+00 -0.00000000000E+00 -0.45593999997E+02  0.45594000000E+02  0.51100000000E-03 0. -1.
    9900012    2    1    2    0    0  0.17261528033E+01 -0.11406059686E+02 -0.14751352520E+02  0.72461542721E+02  0.69999964081E+02 0.  0.
         12    1    1    2    0    0 -0.17261528033E+01  0.11406059686E+02  0.14751352520E+02  0.18726457279E+02  0.00000000000E+00 0. -1.
         11    1    3    3    0    0  0.51472492297E+01  0.91627869099E+01 -0.21798478530E+02  0.24199679855E+02  0.51100000000E-03 0. -1.
        -11    1    3    3    0    0 -0.21091703587E+02 -0.50821654161E+01 -0.43814151823E+01  0.22133349606E+02  0.51100000000E-03 0.  1.
        -12    1    3    3    0    0  0.17670607161E+02 -0.15486681180E+02  0.11428541193E+02  0.26128513260E+02  0.00000000000E+00 0.  1.
</event>
<event>
 7    1  0.2941727E-013  0.7246161E+02  0.7816164E-02  0.1226708E+00
        -11   -1    0    0    0    0  0.00000000000E+00  0.00000000000E+00  0.45593999997E+02  0.45594000000E+02  0.51100000000E-03 0.  1.
         11   -1    0    0    0    0 -0.00000000000E+00 -0.00000000000E+00 -0.45593999997E+02  0.45594000000E+02  0.51100000000E-03 0. -1.
    9900012    2    1    2    0    0  0.85782054184E+01 -0.16599634004E+02  0.12426307576E+01  0.72461612509E+02  0.70000054993E+02 0.  0.
         12    1    1    2    0    0 -0.85782054184E+01  0.16599634004E+02 -0.12426307576E+01  0.18726387491E+02  0.00000000000E+00 0. -1.
         11    1    3    3    0    0  0.30425768725E+02 -0.19748488220E+02 -0.25434962025E+01  0.36362062134E+02  0.51100000000E-03 0. -1.
        -11    1    3    3    0    0 -0.18177607826E+01  0.32616444927E+01  0.13379358566E+02  0.13890637673E+02  0.51100000000E-03 0.  1.
        -12    1    3    3    0    0 -0.20029802524E+02 -0.11279027681E+00 -0.95932316058E+01  0.22208912702E+02  0.00000000000E+00 0.  1.
</event>
<event>
 7    1  0.2941727E-013  0.7246157E+02  0.7816164E-02  0.1226708E+00
        -11   -1    0    0    0    0  0.00000000000E+00  0.00000000000E+00  0.45593999997E+02  0.45594000000E+02  0.51100000000E-03 0.  1.
         11   -1    0    0    0    0 -0.00000000000E+00 -0.00000000000E+00 -0.45593999997E+02  0.45594000000E+02  0.51100000000E-03 0. -1.
    9900012    2    1    2    0    0  0.10019944740E+02 -0.10553821964E+02 -0.11785444894E+02  0.72461570495E+02  0.70000000261E+02 0.  0.
         12    1    1    2    0    0 -0.10019944740E+02  0.10553821964E+02  0.11785444894E+02  0.18726429505E+02  0.00000000000E+00 0. -1.
         11    1    3    3    0    0 -0.63095876731E+01  0.78521626468E+01 -0.13153272883E+02  0.16567315493E+02  0.51100000000E-03 0. -1.
        -11    1    3    3    0    0 -0.15706594499E+02 -0.10900084899E+02  0.10412749498E+02  0.21770032474E+02  0.51100000000E-03 0.  1.
        -12    1    3    3    0    0  0.32036126912E+02 -0.75058997123E+01 -0.90449215086E+01  0.34124222528E+02  0.00000000000E+00 0.  1.
</event>
<event>
 7    1  0.2941727E-013  0.7246162E+02  0.7816164E-02  0.1226708E+00
        -11   -1    0    0    0    0  0.00000000000E+00  0.00000000000E+00  0.45593999997E+02  0.45594000000E+02  0.51100000000E-03 0.  1.
         11   -1    0    0    0    0 -0.00000000000E+00 -0.00000000000E+00 -0.45593999997E+02  0.45594000000E+02  0.51100000000E-03 0. -1.
    9900012    2    1    2    0    0 -0.10035176698E+02 -0.13649670907E+02  0.79786626743E+01  0.72461619001E+02  0.70000063450E+02 0.  0.
         12    1    1    2    0    0  0.10035176698E+02  0.13649670907E+02 -0.79786626743E+01  0.18726380999E+02  0.00000000000E+00 0. -1.
         11    1    3    3    0    0  0.87614237579E+01 -0.25932789526E+00 -0.24735844577E+01  0.91076021846E+01  0.51100000000E-03 0. -1.
        -11    1    3    3    0    0  0.87151055822E+01  0.18015041105E+02 -0.10724377100E+01  0.20041080166E+02  0.51100000000E-03 0.  1.
        -12    1    3    3    0    0 -0.27511706038E+02 -0.31405384116E+02  0.11524684842E+02  0.43312936651E+02  0.00000000000E+00 0.  1.
</event>
<event>
 7    1  0.2941727E-013  0.7246158E+02  0.7816164E-02  0.1226708E+00
        -11   -1    0    0    0    0  0.00000000000E+00  0.00000000000E+00  0.45593999997E+02  0.45594000000E+02  0.51100000000E-03 0. -1.
         11   -1    0    0    0    0 -0.00000000000E+00 -0.00000000000E+00 -0.45593999997E+02  0.45594000000E+02  0.51100000000E-03 0.  1.
    9900012    2    1    2    0    0 -0.16778120269E+02  0.53321830005E+01 -0.63828974766E+01  0.72461578144E+02  0.70000010226E+02 0.  0.
         12    1    1    2    0    0  0.16778120269E+02 -0.53321830005E+01  0.63828974766E+01  0.18726421856E+02  0.00000000000E+00 0. -1.
         11    1    3    3    0    0 -0.30603423188E+01  0.26878454166E+02  0.58538551244E+01  0.27678233570E+02  0.51100000000E-03 0. -1.
        -11    1    3    3    0    0  0.27823921615E+00 -0.19803136520E+02  0.69334662307E+01  0.20983674304E+02  0.51100000000E-03 0.  1.
        -12    1    3    3    0    0 -0.13996017167E+02 -0.17431346457E+01 -0.19170218832E+02  0.23799670270E+02  0.00000000000E+00 0.  1.
</event>
<event>
 7    1  0.2941727E-013  0.7246099E+02  0.7816164E-02  0.1226710E+00
        -11   -1    0    0    0    0  0.00000000000E+00  0.00000000000E+00  0.45593999997E+02  0.45594000000E+02  0.51100000000E-03 0. -1.
         11   -1    0    0    0    0 -0.00000000000E+00 -0.00000000000E+00 -0.45593999997E+02  0.45594000000E+02  0.51100000000E-03 0.  1.
    9900012    2    1    2    0    0 -0.59396476361E+01  0.72719378029E+00 -0.17745216414E+02  0.72460989282E+02  0.69999243120E+02 0.  0.
         12    1    1    2    0    0  0.59396476361E+01 -0.72719378029E+00  0.17745216414E+02  0.18727010718E+02  0.00000000000E+00 0. -1.
         11    1    3    3    0    0 -0.71221621752E+01  0.32438995036E+02 -0.46423424187E+01  0.33534533490E+02  0.51100000000E-03 0. -1.
        -11    1    3    3    0    0 -0.27272720023E+01 -0.14770846814E+02 -0.15253598002E+02  0.21407666394E+02  0.51100000000E-03 0.  1.
        -12    1    3    3    0    0  0.39097865414E+01 -0.16940954442E+02  0.21507240069E+01  0.17518789398E+02  0.00000000000E+00 0.  1.
</event>
<event>
 7    1  0.2941727E-013  0.7246160E+02  0.7816164E-02  0.1226708E+00
        -11   -1    0    0    0    0  0.00000000000E+00  0.00000000000E+00  0.45593999997E+02  0.45594000000E+02  0.51100000000E-03 0. -1.
         11   -1    0    0    0    0 -0.00000000000E+00 -0.00000000000E+00 -0.45593999997E+02  0.45594000000E+02  0.51100000000E-03 0.  1.
    9900012    2    1    2    0    0  0.14589129524E+02  0.40019973478E+01 -0.11037178378E+02  0.72461601799E+02  0.70000041040E+02 0.  0.
         12    1    1    2    0    0 -0.14589129524E+02 -0.40019973478E+01  0.11037178378E+02  0.18726398201E+02  0.00000000000E+00 0. -1.
         11    1    3    3    0    0  0.22784488627E+01  0.12400700819E+02 -0.14314912185E+02  0.19075781010E+02  0.51100000000E-03 0. -1.
        -11    1    3    3    0    0  0.10372457558E+02  0.10438077897E+02 -0.19074293217E+02  0.24090869805E+02  0.51100000000E-03 0.  1.
         12    1    3    3    0    0  0.19382231031E+01 -0.18836781368E+02  0.22352027023E+02  0.29294950984E+02  0.00000000000E+00 0. -1.
</event>
<event>
 7    1  0.2941727E-013  0.7246195E+02  0.7816164E-02  0.1226707E+00
        -11   -1    0    0    0    0  0.00000000000E+00  0.00000000000E+00  0.45593999997E+02  0.45594000000E+02  0.51100000000E-03 0. -1.
         11   -1    0    0    0    0 -0.00000000000E+00 -0.00000000000E+00 -0.45593999997E+02  0.45594000000E+02  0.51100000000E-03 0.  1.
    9900012    2    1    2    0    0  0.37742820343E+01  0.11080385786E+02 -0.14616598815E+02  0.72461945558E+02  0.70000488849E+02 0.  0.
         12    1    1    2    0    0 -0.37742820343E+01 -0.11080385786E+02  0.14616598815E+02  0.18726054442E+02  0.00000000000E+00 0. -1.
         11    1    3    3    0    0  0.74889708855E+01 -0.10127593663E+01 -0.18379172671E+01  0.77774228765E+01  0.51100000000E-03 0. -1.
        -11    1    3    3    0    0  0.60630419759E+01 -0.14391326667E+02 -0.28406439010E+02  0.32415992021E+02  0.51100000000E-03 0.  1.
        -12    1    3    3    0    0 -0.97777308272E+01  0.26484471819E+02  0.15627757462E+02  0.32268530660E+02  0.00000000000E+00 0.  1.
</event>
<event>
 7    1  0.2941727E-013  0.7246157E+02  0.7816164E-02  0.1226708E+00
        -11   -1    0    0    0    0  0.00000000000E+00  0.00000000000E+00  0.45593999997E+02  0.45594000000E+02  0.51100000000E-03 0.  1.
         11   -1    0    0    0    0 -0.00000000000E+00 -0.00000000000E+00 -0.45593999997E+02  0.45594000000E+02  0.51100000000E-03 0. -1.
    9900012    2    1    2    0    0  0.11840537541E+02  0.80715660192E+01 -0.12055317163E+02  0.72461570037E+02  0.69999999665E+02 0.  0.
         12    1    1    2    0    0 -0.11840537541E+02 -0.80715660192E+01  0.12055317163E+02  0.18726429963E+02  0.00000000000E+00 0. -1.
         11    1    3    3    0    0  0.10440421674E+02 -0.64274184510E+01 -0.35439305753E+01  0.12762192479E+02  0.51100000000E-03 0. -1.
        -11    1    3    3    0    0 -0.25758183209E+02  0.11124167646E+02  0.60454892420E+01  0.28701551325E+02  0.51100000000E-03 0.  1.
         12    1    3    3    0    0  0.27158299075E+02  0.33748168239E+01 -0.14556875830E+02  0.30997826233E+02  0.00000000000E+00 0. -1.
</event>
<event>
 7    1  0.2941727E-013  0.7246153E+02  0.7816164E-02  0.1226708E+00
        -11   -1    0    0    0    0  0.00000000000E+00  0.00000000000E+00  0.45593999997E+02  0.45594000000E+02  0.51100000000E-03 0.  1.
         11   -1    0    0    0    0 -0.00000000000E+00 -0.00000000000E+00 -0.45593999997E+02  0.45594000000E+02  0.51100000000E-03 0. -1.
    9900012    2    1    2    0    0 -0.11264402087E+02  0.29433543844E+01  0.14667335881E+02  0.72461525926E+02  0.69999942202E+02 0.  0.
         12    1    1    2    0    0  0.11264402087E+02 -0.29433543844E+01 -0.14667335881E+02  0.18726474074E+02  0.00000000000E+00 0. -1.
         11    1    3    3    0    0  0.25125339506E+02  0.68179679789E+01 -0.59669684186E+01  0.26709026284E+02  0.51100000000E-03 0. -1.
        -11    1    3    3    0    0 -0.13900272750E+02 -0.73735621577E+01  0.16163335402E+02  0.22557491283E+02  0.51100000000E-03 0.  1.
        -12    1    3    3    0    0 -0.22489468843E+02  0.34989485632E+01  0.44709688976E+01  0.23195008359E+02  0.00000000000E+00 0.  1.
</event>
<event>
 7    1  0.2941727E-013  0.7246148E+02  0.7816164E-02  0.1226708E+00
        -11   -1    0    0    0    0  0.00000000000E+00  0.00000000000E+00  0.45593999997E+02  0.45594000000E+02  0.51100000000E-03 0. -1.
         11   -1    0    0    0    0 -0.00000000000E+00 -0.00000000000E+00 -0.45593999997E+02  0.45594000000E+02  0.51100000000E-03 0.  1.
    9900012    2    1    2    0    0  0.43529715213E+01  0.51821391664E+01  0.17460803000E+02  0.72461479533E+02  0.69999881766E+02 0.  0.
         12    1    1    2    0    0 -0.43529715213E+01 -0.51821391664E+01 -0.17460803000E+02  0.18726520467E+02  0.00000000000E+00 0. -1.
         11    1    3    3    0    0  0.25322117703E+01  0.18886190396E+02  0.17009323657E+02  0.25542462208E+02  0.51100000000E-03 0. -1.
        -11    1    3    3    0    0  0.14861757067E+02  0.59686600138E+01  0.12595865887E+02  0.20375292959E+02  0.51100000000E-03 0.  1.
        -12    1    3    3    0    0 -0.13040997316E+02 -0.19672711243E+02 -0.12144386543E+02  0.26543724365E+02  0.00000000000E+00 0.  1.
</event>
<event>
 7    1  0.2941727E-013  0.7246170E+02  0.7816164E-02  0.1226708E+00
        -11   -1    0    0    0    0  0.00000000000E+00  0.00000000000E+00  0.45593999997E+02  0.45594000000E+02  0.51100000000E-03 0. -1.
         11   -1    0    0    0    0 -0.00000000000E+00 -0.00000000000E+00 -0.45593999997E+02  0.45594000000E+02  0.51100000000E-03 0.  1.
    9900012    2    1    2    0    0 -0.51326554177E+01  0.16905085743E+02 -0.62087105533E+01  0.72461703987E+02  0.70000174160E+02 0.  0.
         12    1    1    2    0    0  0.51326554177E+01 -0.16905085743E+02  0.62087105533E+01  0.18726296013E+02  0.00000000000E+00 0. -1.
         11    1    3    3    0    0  0.46921214300E+01 -0.58020428521E+01 -0.18173734166E+02  0.19645974615E+02  0.51100000000E-03 0. -1.
        -11    1    3    3    0    0 -0.19879828661E+02  0.70661572805E+01 -0.10571508994E+02  0.23598622183E+02  0.51100000000E-03 0.  1.
         12    1    3    3    0    0  0.10055051813E+02  0.15640971315E+02  0.22536532606E+02  0.29217107189E+02  0.00000000000E+00 0. -1.
</event>
<event>
 7    1  0.2941727E-013  0.7246150E+02  0.7816164E-02  0.1226708E+00
        -11   -1    0    0    0    0  0.00000000000E+00  0.00000000000E+00  0.45593999997E+02  0.45594000000E+02  0.51100000000E-03 0. -1.
         11   -1    0    0    0    0 -0.00000000000E+00 -0.00000000000E+00 -0.45593999997E+02  0.45594000000E+02  0.51100000000E-03 0.  1.
    9900012    2    1    2    0    0 -0.13941284386E+02  0.19052295651E-01  0.12502882924E+02  0.72461498599E+02  0.69999906603E+02 0.  0.
         12    1    1    2    0    0  0.13941284386E+02 -0.19052295651E-01 -0.12502882924E+02  0.18726501401E+02  0.00000000000E+00 0. -1.
         11    1    3    3    0    0  0.47603191373E+01  0.27995679919E+02  0.55674763847E+01  0.28938132731E+02  0.51100000000E-03 0. -1.
        -11    1    3    3    0    0 -0.83291833438E+01 -0.10400120625E+02 -0.10275475856E+02  0.16826265436E+02  0.51100000000E-03 0.  1.
        -12    1    3    3    0    0 -0.10372420180E+02 -0.17576506998E+02  0.17210882395E+02  0.26697100432E+02  0.00000000000E+00 0.  1.
</event>
<event>
 7    1  0.2941727E-013  0.7246164E+02  0.7816164E-02  0.1226708E+00
        -11   -1    0    0    0    0  0.00000000000E+00  0.00000000000E+00  0.45593999997E+02  0.45594000000E+02  0.51100000000E-03 0.  1.
         11   -1    0    0    0    0 -0.00000000000E+00 -0.00000000000E+00 -0.45593999997E+02  0.45594000000E+02  0.51100000000E-03 0. -1.
    9900012    2    1    2    0    0 -0.16086364587E+02  0.59937432633E+01 -0.74819988130E+01  0.72461644504E+02  0.70000096671E+02 0.  0.
         12    1    1    2    0    0  0.16086364587E+02 -0.59937432633E+01  0.74819988130E+01  0.18726355496E+02  0.00000000000E+00 0. -1.
         11    1    3    3    0    0  0.18314455039E+02 -0.10760204241E+02  0.86728691807E+01  0.22943842721E+02  0.51100000000E-03 0.  1.
        -11    1    3    3    0    0 -0.54525879517E+01  0.17054782456E+01 -0.15895230410E+02  0.16890758463E+02  0.51100000000E-03 0. -1.
         12    1    3    3    0    0 -0.28948231675E+02  0.15048469259E+02 -0.25963758403E+00  0.32627043320E+02  0.00000000000E+00 0. -1.
</event>
<event>
 7    1  0.2941727E-013  0.7246152E+02  0.7816164E-02  0.1226708E+00
        -11   -1    0    0    0    0  0.00000000000E+00  0.00000000000E+00  0.45593999997E+02  0.45594000000E+02  0.51100000000E-03 0. -1.
         11   -1    0    0    0    0 -0.00000000000E+00 -0.00000000000E+00 -0.45593999997E+02  0.45594000000E+02  0.51100000000E-03 0.  1.
    9900012    2    1    2    0    0 -0.41671508763E+01  0.45378506982E+01 -0.17683998850E+02  0.72461520066E+02  0.69999934568E+02 0.  0.
         12    1    1    2    0    0  0.41671508763E+01 -0.45378506982E+01  0.17683998850E+02  0.18726479934E+02  0.00000000000E+00 0. -1.
         11    1    3    3    0    0 -0.13274389983E+02  0.41213325969E+01 -0.21770378138E+02  0.25829134255E+02  0.51100000000E-03 0. -1.
        -11    1    3    3    0    0  0.14253367990E+02 -0.12974265008E+02 -0.13799100533E+02  0.23704540226E+02  0.51100000000E-03 0.  1.
         12    1    3    3    0    0 -0.51461288827E+01  0.13390783109E+02  0.17885479821E+02  0.22927845585E+02  0.00000000000E+00 0. -1.
</event>
<event>
 7    1  0.2941727E-013  0.7246162E+02  0.7816164E-02  0.1226708E+00
        -11   -1    0    0    0    0  0.00000000000E+00  0.00000000000E+00  0.45593999997E+02  0.45594000000E+02  0.51100000000E-03 0. -1.
         11   -1    0    0    0    0 -0.00000000000E+00 -0.00000000000E+00 -0.45593999997E+02  0.45594000000E+02  0.51100000000E-03 0.  1.
    9900012    2    1    2    0    0  0.41514752613E+01 -0.96836845077E+01 -0.15481244616E+02  0.72461616810E+02  0.70000060596E+02 0.  0.
         12    1    1    2    0    0 -0.41514752613E+01  0.96836845077E+01  0.15481244616E+02  0.18726383190E+02  0.00000000000E+00 0. -1.
         11    1    3    3    0    0  0.23414599650E+02  0.50210161913E+00 -0.44467500305E+01  0.23838396945E+02  0.51100000000E-03 0. -1.
        -11    1    3    3    0    0  0.12604642189E+02 -0.16587511156E+01 -0.89905952843E+01  0.15571103487E+02  0.51100000000E-03 0.  1.
        -12    1    3    3    0    0 -0.31867766578E+02 -0.85270350113E+01 -0.20438993017E+01  0.33052116378E+02  0.00000000000E+00 0.  1.
</event>
<event>
 7    1  0.2941727E-013  0.7246161E+02  0.7816164E-02  0.1226708E+00
        -11   -1    0    0    0    0  0.00000000000E+00  0.00000000000E+00  0.45593999997E+02  0.45594000000E+02  0.51100000000E-03 0.  1.
         11   -1    0    0    0    0 -0.00000000000E+00 -0.00000000000E+00 -0.45593999997E+02  0.45594000000E+02  0.51100000000E-03 0. -1.
    9900012    2    1    2    0    0 -0.51290897831E+01  0.17158203778E+02 -0.54741303353E+01  0.72461611618E+02  0.70000053832E+02 0.  0.
         12    1    1    2    0    0  0.51290897831E+01 -0.17158203778E+02  0.54741303353E+01  0.18726388382E+02  0.00000000000E+00 0. -1.
         11    1    3    3    0    0 -0.10965105797E+02 -0.19266399514E+02  0.12855163950E+01  0.22205410333E+02  0.51100000000E-03 0. -1.
        -11    1    3    3    0    0 -0.99317192831E+01  0.21356534717E+02  0.68741958121E+01  0.24535590300E+02  0.51100000000E-03 0.  1.
        -12    1    3    3    0    0  0.15767735297E+02  0.15068068575E+02 -0.13633842542E+02  0.25720610985E+02  0.00000000000E+00 0.  1.
</event>
<event>
 7    1  0.2941727E-013  0.7246160E+02  0.7816164E-02  0.1226708E+00
        -11   -1    0    0    0    0  0.00000000000E+00  0.00000000000E+00  0.45593999997E+02  0.45594000000E+02  0.51100000000E-03 0.  1.
         11   -1    0    0    0    0 -0.00000000000E+00 -0.00000000000E+00 -0.45593999997E+02  0.45594000000E+02  0.51100000000E-03 0. -1.
    9900012    2    1    2    0    0 -0.13405085757E+02  0.40590341817E+01  0.12430036557E+02  0.72461604420E+02  0.70000044455E+02 0.  0.
         12    1    1    2    0    0  0.13405085757E+02 -0.40590341817E+01 -0.12430036557E+02  0.18726395580E+02  0.00000000000E+00 0. -1.
         11    1    3    3    0    0  0.74784923904E+01  0.68013127599E+01 -0.24118277301E+01  0.10392430753E+02  0.51100000000E-03 0. -1.
        -11    1    3    3    0    0  0.17661483242E+02  0.22219515871E-01 -0.53683439405E+01  0.18459349960E+02  0.51100000000E-03 0.  1.
        -12    1    3    3    0    0 -0.38545061389E+02 -0.27644980941E+01  0.20210208227E+02  0.43609823707E+02  0.00000000000E+00 0.  1.
</event>
<event>
 7    1  0.2941727E-013  0.7246157E+02  0.7816164E-02  0.1226708E+00
        -11   -1    0    0    0    0  0.00000000000E+00  0.00000000000E+00  0.45593999997E+02  0.45594000000E+02  0.51100000000E-03 0.  1.
         11   -1    0    0    0    0 -0.00000000000E+00 -0.00000000000E+00 -0.45593999997E+02  0.45594000000E+02  0.51100000000E-03 0. -1.
    9900012    2    1    2    0    0  0.69660860705E+01  0.89587737577E+01  0.14896084917E+02  0.72461566056E+02  0.69999994479E+02 0.  0.
         12    1    1    2    0    0 -0.69660860705E+01 -0.89587737577E+01 -0.14896084917E+02  0.18726433944E+02  0.00000000000E+00 0. -1.
         11    1    3    3    0    0  0.17875822398E+02  0.34326445698E+01 -0.84280491370E+01  0.20058915416E+02  0.51100000000E-03 0. -1.
        -11    1    3    3    0    0  0.10145603348E+02 -0.10543500264E+00  0.28285029231E+02  0.30049746466E+02  0.51100000000E-03 0.  1.
         12    1    3    3    0    0 -0.21055339675E+02  0.56315641905E+01 -0.49608951768E+01  0.22352904174E+02  0.00000000000E+00 0. -1.
</event>
<event>
 7    1  0.2941727E-013  0.7246162E+02  0.7816164E-02  0.1226708E+00
        -11   -1    0    0    0    0  0.00000000000E+00  0.00000000000E+00  0.45593999997E+02  0.45594000000E+02  0.51100000000E-03 0. -1.
         11   -1    0    0    0    0 -0.00000000000E+00 -0.00000000000E+00 -0.45593999997E+02  0.45594000000E+02  0.51100000000E-03 0.  1.
    9900012    2    1    2    0    0  0.10420407863E+02 -0.78110650298E+01 -0.13456579607E+02  0.72461623638E+02  0.70000069490E+02 0.  0.
         12    1    1    2    0    0 -0.10420407863E+02  0.78110650298E+01  0.13456579607E+02  0.18726376362E+02  0.00000000000E+00 0. -1.
         11    1    3    3    0    0 -0.12233635759E+02  0.11876532907E+02 -0.13658095961E+02  0.21846223090E+02  0.51100000000E-03 0. -1.
        -11    1    3    3    0    0  0.15492721088E+02 -0.18274427607E+02 -0.18675106113E+02  0.30376614355E+02  0.51100000000E-03 0.  1.
         12    1    3    3    0    0  0.71613225336E+01 -0.14131703294E+01  0.18876622466E+02  0.20238786193E+02  0.00000000000E+00 0. -1.
</event>
<event>
 7    1  0.2941727E-013  0.7246158E+02  0.7816164E-02  0.1226708E+00
        -11   -1    0    0    0    0  0.00000000000E+00  0.00000000000E+00  0.45593999997E+02  0.45594000000E+02  0.51100000000E-03 0. -1.
         11   -1    0    0    0    0 -0.00000000000E+00 -0.00000000000E+00 -0.45593999997E+02  0.45594000000E+02  0.51100000000E-03 0.  1.
    9900012    2    1    2    0    0 -0.33506114490E+01  0.16659126067E+02 -0.78692822615E+01  0.72461583319E+02  0.70000016967E+02 0.  0.
         12    1    1    2    0    0  0.33506114490E+01 -0.16659126067E+02  0.78692822615E+01  0.18726416681E+02  0.00000000000E+00 0. -1.
         11    1    3    3    0    0  0.58895807205E+01 -0.90687316603E+01  0.78268255278E+01  0.13348717283E+02  0.51100000000E-03 0. -1.
        -11    1    3    3    0    0 -0.29113674210E+02  0.11234030160E+02 -0.27769864393E+01  0.31329237360E+02  0.51100000000E-03 0.  1.
        -12    1    3    3    0    0  0.19873482041E+02  0.14493827567E+02 -0.12919121350E+02  0.27783628676E+02  0.00000000000E+00 0.  1.
</event>
<event>
 7    1  0.2941727E-013  0.7246156E+02  0.7816164E-02  0.1226708E+00
        -11   -1    0    0    0    0  0.00000000000E+00  0.00000000000E+00  0.45593999997E+02  0.45594000000E+02  0.51100000000E-03 0.  1.
         11   -1    0    0    0    0 -0.00000000000E+00 -0.00000000000E+00 -0.45593999997E+02  0.45594000000E+02  0.51100000000E-03 0. -1.
    9900012    2    1    2    0    0  0.26556428289E+01 -0.18338344804E+02  0.27077991037E+01  0.72461561338E+02  0.69999988332E+02 0.  0.
         12    1    1    2    0    0 -0.26556428289E+01  0.18338344804E+02 -0.27077991037E+01  0.18726438662E+02  0.00000000000E+00 0. -1.
         11    1    3    3    0    0  0.69593977620E+01  0.12470574625E+02 -0.13687968183E+01  0.14346499702E+02  0.51100000000E-03 0. -1.
        -11    1    3    3    0    0  0.74120273039E+01 -0.27353752207E+02 -0.17509363553E+02  0.33312816165E+02  0.51100000000E-03 0.  1.
        -12    1    3    3    0    0 -0.11715782237E+02 -0.34551672222E+01  0.21585959475E+02  0.24802245471E+02  0.00000000000E+00 0.  1.
</event>
<event>
 7    1  0.2941727E-013  0.7246156E+02  0.7816164E-02  0.1226708E+00
        -11   -1    0    0    0    0  0.00000000000E+00  0.00000000000E+00  0.45593999997E+02  0.45594000000E+02  0.51100000000E-03 0.  1.
         11   -1    0    0    0    0 -0.00000000000E+00 -0.00000000000E+00 -0.45593999997E+02  0.45594000000E+02  0.51100000000E-03 0. -1.
    9900012    2    1    2    0    0  0.13225010626E+02 -0.10645196877E+02  0.79030577768E+01  0.72461562944E+02  0.69999990424E+02 0.  0.
         12    1    1    2    0    0 -0.13225010626E+02  0.10645196877E+02 -0.79030577768E+01  0.18726437056E+02  0.00000000000E+00 0. -1.
         11    1    3    3    0    0 -0.11486694229E+02 -0.29860467983E+01  0.71403065507E+01  0.13850797727E+02  0.51100000000E-03 0. -1.
        -11    1    3    3    0    0  0.36841341282E+02 -0.67875607551E+01  0.14584920292E+02  0.40200439160E+02  0.51100000000E-03 0.  1.
         12    1    3    3    0    0 -0.12129636428E+02 -0.87158932395E+00 -0.13822169066E+02  0.18410326057E+02  0.00000000000E+00 0. -1.
</event>
<event>
 7    1  0.2941727E-013  0.7246162E+02  0.7816164E-02  0.1226708E+00
        -11   -1    0    0    0    0  0.00000000000E+00  0.00000000000E+00  0.45593999997E+02  0.45594000000E+02  0.51100000000E-03 0.  1.
         11   -1    0    0    0    0 -0.00000000000E+00 -0.00000000000E+00 -0.45593999997E+02  0.45594000000E+02  0.51100000000E-03 0. -1.
    9900012    2    1    2    0    0 -0.77680644073E+01  0.15643119624E+02  0.67547900621E+01  0.72461622747E+02  0.70000068330E+02 0.  0.
         12    1    1    2    0    0  0.77680644073E+01 -0.15643119624E+02 -0.67547900621E+01  0.18726377253E+02  0.00000000000E+00 0. -1.
         11    1    3    3    0    0 -0.82160647843E+01  0.31374642014E+02 -0.99106876665E+00  0.32447713319E+02  0.51100000000E-03 0. -1.
        -11    1    3    3    0    0 -0.63216603281E+01  0.80219976974E+01  0.11104472188E+02  0.15087250883E+02  0.51100000000E-03 0.  1.
        -12    1    3    3    0    0  0.67696607051E+01 -0.23753520087E+02 -0.33586133593E+01  0.24926658546E+02  0.00000000000E+00 0.  1.
</event>
<event>
 7    1  0.2941727E-013  0.7246151E+02  0.7816164E-02  0.1226708E+00
        -11   -1    0    0    0    0  0.00000000000E+00  0.00000000000E+00  0.45593999997E+02  0.45594000000E+02  0.51100000000E-03 0. -1.
         11   -1    0    0    0    0 -0.00000000000E+00 -0.00000000000E+00 -0.45593999997E+02  0.45594000000E+02  0.51100000000E-03 0.  1.
    9900012    2    1    2    0    0 -0.49097571826E+01  0.51200906876E+01 -0.17330912725E+02  0.72461505931E+02  0.69999916155E+02 0.  0.
         12    1    1    2    0    0  0.49097571826E+01 -0.51200906876E+01  0.17330912725E+02  0.18726494069E+02  0.00000000000E+00 0. -1.
         11    1    3    3    0    0 -0.18296396106E+02  0.48904728975E+01 -0.20310698303E+02  0.27770475354E+02  0.51100000000E-03 0. -1.
        -11    1    3    3    0    0 -0.12694375054E+02 -0.57554304091E+01  0.98462178547E+01  0.17065173410E+02  0.51100000000E-03 0.  1.
         12    1    3    3    0    0  0.26081013977E+02  0.59850481992E+01 -0.68664322768E+01  0.27625857167E+02  0.00000000000E+00 0. -1.
</event>
<event>
 7    1  0.2941727E-013  0.7246158E+02  0.7816164E-02  0.1226708E+00
        -11   -1    0    0    0    0  0.00000000000E+00  0.00000000000E+00  0.45593999997E+02  0.45594000000E+02  0.51100000000E-03 0. -1.
         11   -1    0    0    0    0 -0.00000000000E+00 -0.00000000000E+00 -0.45593999997E+02  0.45594000000E+02  0.51100000000E-03 0.  1.
    9900012    2    1    2    0    0 -0.78887853717E+01 -0.14907322495E+00 -0.16983039254E+02  0.72461580701E+02  0.70000013557E+02 0.  0.
         12    1    1    2    0    0  0.78887853717E+01  0.14907322495E+00  0.16983039254E+02  0.18726419299E+02  0.00000000000E+00 0. -1.
         11    1    3    3    0    0 -0.26539093330E+01  0.20252700893E+02 -0.23690591554E+02  0.31280333385E+02  0.51100000000E-03 0. -1.
        -11    1    3    3    0    0 -0.14081489672E+02 -0.20250724884E+00 -0.64638184887E+01  0.15495493225E+02  0.51100000000E-03 0.  1.
         12    1    3    3    0    0  0.88466136329E+01 -0.20199266869E+02  0.13171370789E+02  0.25685754092E+02  0.00000000000E+00 0. -1.
</event>
<event>
 7    1  0.2941727E-013  0.7246154E+02  0.7816164E-02  0.1226708E+00
        -11   -1    0    0    0    0  0.00000000000E+00  0.00000000000E+00  0.45593999997E+02  0.45594000000E+02  0.51100000000E-03 0. -1.
         11   -1    0    0    0    0 -0.00000000000E+00 -0.00000000000E+00 -0.45593999997E+02  0.45594000000E+02  0.51100000000E-03 0.  1.
    9900012    2    1    2    0    0 -0.11249813594E+02  0.82349579169E+00 -0.14948035682E+02  0.72461542193E+02  0.69999963393E+02 0.  0.
         12    1    1    2    0    0  0.11249813594E+02 -0.82349579169E+00  0.14948035682E+02  0.18726457807E+02  0.00000000000E+00 0. -1.
         11    1    3    3    0    0 -0.79962311467E+01  0.15087288726E+02  0.20011282142E+02  0.26306223729E+02  0.51100000000E-03 0. -1.
        -11    1    3    3    0    0  0.44480590607E+01  0.52474358309E+01 -0.21381383153E+01  0.72036412961E+01  0.51100000000E-03 0.  1.
        -12    1    3    3    0    0 -0.77016415082E+01 -0.19511228765E+02 -0.32821179509E+02  0.38951677168E+02  0.00000000000E+00 0.  1.
</event>
<event>
 7    1  0.2941727E-013  0.7246155E+02  0.7816164E-02  0.1226708E+00
        -11   -1    0    0    0    0  0.00000000000E+00  0.00000000000E+00  0.45593999997E+02  0.45594000000E+02  0.51100000000E-03 0. -1.
         11   -1    0    0    0    0 -0.00000000000E+00 -0.00000000000E+00 -0.45593999997E+02  0.45594000000E+02  0.51100000000E-03 0.  1.
    9900012    2    1    2    0    0 -0.15749806248E+02 -0.10016543192E+02  0.15140820387E+01  0.72461548687E+02  0.69999971853E+02 0.  0.
         12    1    1    2    0    0  0.15749806248E+02  0.10016543192E+02 -0.15140820387E+01  0.18726451313E+02  0.00000000000E+00 0. -1.
         11    1    3    3    0    0 -0.11773370501E+02 -0.42068142083E+01  0.64266203808E+01  0.14057417562E+02  0.51100000000E-03 0. -1.
        -11    1    3    3    0    0  0.63798864649E+00  0.23908273344E+02 -0.13054161230E+02  0.27247452899E+02  0.51100000000E-03 0.  1.
         12    1    3    3    0    0 -0.46144243926E+01 -0.29718002327E+02  0.81416228880E+01  0.31156678226E+02  0.00000000000E+00 0. -1.
</event>
<event>
 7    1  0.2941727E-013  0.7246154E+02  0.7816164E-02  0.1226708E+00
        -11   -1    0    0    0    0  0.00000000000E+00  0.00000000000E+00  0.45593999997E+02  0.45594000000E+02  0.51100000000E-03 0.  1.
         11   -1    0    0    0    0 -0.00000000000E+00 -0.00000000000E+00 -0.45593999997E+02  0.45594000000E+02  0.51100000000E-03 0. -1.
    9900012    2    1    2    0    0 -0.80812530632E+00  0.18696890050E+02  0.67340214332E+00  0.72461541860E+02  0.69999962959E+02 0.  0.
         12    1    1    2    0    0  0.80812530632E+00 -0.18696890050E+02 -0.67340214332E+00  0.18726458140E+02  0.00000000000E+00 0. -1.
         11    1    3    3    0    0 -0.76027929191E+00 -0.55996463384E+01  0.17445810252E+01  0.59141886114E+01  0.51100000000E-03 0. -1.
        -11    1    3    3    0    0  0.17391642706E+02  0.13540188485E+01 -0.24035257760E+02  0.29698421152E+02  0.51100000000E-03 0.  1.
        -12    1    3    3    0    0 -0.17439488721E+02  0.22942517539E+02  0.22964078878E+02  0.36848932096E+02  0.00000000000E+00 0.  1.
</event>
<event>
 7    1  0.2941727E-013  0.7246156E+02  0.7816164E-02  0.1226708E+00
        -11   -1    0    0    0    0  0.00000000000E+00  0.00000000000E+00  0.45593999997E+02  0.45594000000E+02  0.51100000000E-03 0. -1.
         11   -1    0    0    0    0 -0.00000000000E+00 -0.00000000000E+00 -0.45593999997E+02  0.45594000000E+02  0.51100000000E-03 0.  1.
    9900012    2    1    2    0    0  0.61312355212E+01 -0.17417210868E+01 -0.17608345687E+02  0.72461562026E+02  0.69999989228E+02 0.  0.
         12    1    1    2    0    0 -0.61312355212E+01  0.17417210868E+01  0.17608345687E+02  0.18726437974E+02  0.00000000000E+00 0. -1.
         11    1    3    3    0    0 -0.81674243331E+01 -0.11762809921E+01 -0.71555880113E+01  0.10922128788E+02  0.51100000000E-03 0. -1.
        -11    1    3    3    0    0 -0.91248525375E+01 -0.19401858014E+02  0.11489282832E+02  0.24324856598E+02  0.51100000000E-03 0.  1.
         12    1    3    3    0    0  0.23423512392E+02  0.18836417920E+02 -0.21942040508E+02  0.37214576640E+02  0.00000000000E+00 0. -1.
</event>
<event>
 7    1  0.2941727E-013  0.7246154E+02  0.7816164E-02  0.1226708E+00
        -11   -1    0    0    0    0  0.00000000000E+00  0.00000000000E+00  0.45593999997E+02  0.45594000000E+02  0.51100000000E-03 0.  1.
         11   -1    0    0    0    0 -0.00000000000E+00 -0.00000000000E+00 -0.45593999997E+02  0.45594000000E+02  0.51100000000E-03 0. -1.
    9900012    2    1    2    0    0  0.13295592631E+02  0.82025287809E+01  0.10325982847E+02  0.72461543219E+02  0.69999964729E+02 0.  0.
         12    1    1    2    0    0 -0.13295592631E+02 -0.82025287809E+01 -0.10325982847E+02  0.18726456781E+02  0.00000000000E+00 0. -1.
         11    1    3    3    0    0  0.13411046045E+02 -0.10073418102E+02  0.80002615751E+01  0.18583166947E+02  0.51100000000E-03 0.  1.
        -11    1    3    3    0    0 -0.12192571076E+02  0.58034712145E+01 -0.20898900105E+02  0.24881782361E+02  0.51100000000E-03 0. -1.
         12    1    3    3    0    0  0.12077117663E+02  0.12472475668E+02  0.23224621377E+02  0.28996593911E+02  0.00000000000E+00 0. -1.
</event>
<event>
 7    1  0.2941727E-013  0.7246160E+02  0.7816164E-02  0.1226708E+00
        -11   -1    0    0    0    0  0.00000000000E+00  0.00000000000E+00  0.45593999997E+02  0.45594000000E+02  0.51100000000E-03 0.  1.
         11   -1    0    0    0    0 -0.00000000000E+00 -0.00000000000E+00 -0.45593999997E+02  0.45594000000E+02  0.51100000000E-03 0. -1.
    9900012    2    1    2    0    0  0.16199676209E+02 -0.76027158647E+01  0.55179091424E+01  0.72461598341E+02  0.70000036536E+02 0.  0.
         12    1    1    2    0    0 -0.16199676209E+02  0.76027158647E+01 -0.55179091424E+01  0.18726401659E+02  0.00000000000E+00 0. -1.
         11    1    3    3    0    0  0.10078906468E+02  0.31166413997E+01 -0.25816516980E+02  0.27888893102E+02  0.51100000000E-03 0. -1.
        -11    1    3    3    0    0  0.41119124263E+01  0.91771266250E+00 -0.49001544364E+01  0.64623164650E+01  0.51100000000E-03 0.  1.
        -12    1    3    3    0    0  0.20088573147E+01 -0.11637069927E+02  0.36234580559E+02  0.38110388774E+02  0.00000000000E+00 0.  1.
</event>
<event>
 7    1  0.2941727E-013  0.7246157E+02  0.7816164E-02  0.1226708E+00
        -11   -1    0    0    0    0  0.00000000000E+00  0.00000000000E+00  0.45593999997E+02  0.45594000000E+02  0.51100000000E-03 0.  1.
         11   -1    0    0    0    0 -0.00000000000E+00 -0.00000000000E+00 -0.45593999997E+02  0.45594000000E+02  0.51100000000E-03 0. -1.
    9900012    2    1    2    0    0  0.22869892802E+01  0.42028998199E+01  0.18104821081E+02  0.72461568593E+02  0.69999997784E+02 0.  0.
         12    1    1    2    0    0 -0.22869892802E+01 -0.42028998199E+01 -0.18104821081E+02  0.18726431407E+02  0.00000000000E+00 0. -1.
         11    1    3    3    0    0  0.97875760657E+01 -0.12645207085E+02 -0.55360100614E+01  0.16921740901E+02  0.51100000000E-03 0. -1.
        -11    1    3    3    0    0  0.19791604142E+02  0.55587515587E+01  0.11926811563E+02  0.23766702500E+02  0.51100000000E-03 0.  1.
         12    1    3    3    0    0 -0.27292190928E+02  0.11289355346E+02  0.11714019579E+02  0.31773125192E+02  0.00000000000E+00 0. -1.
</event>
<event>
 7    1  0.2941727E-013  0.7246158E+02  0.7816164E-02  0.1226708E+00
        -11   -1    0    0    0    0  0.00000000000E+00  0.00000000000E+00  0.45593999997E+02  0.45594000000E+02  0.51100000000E-03 0.  1.
         11   -1    0    0    0    0 -0.00000000000E+00 -0.00000000000E+00 -0.45593999997E+02  0.45594000000E+02  0.51100000000E-03 0. -1.
    9900012    2    1    2    0    0 -0.49415833289E+01 -0.16467241779E+02  0.74222230111E+01  0.72461583043E+02  0.70000016608E+02 0.  0.
         12    1    1    2    0    0  0.49415833289E+01  0.16467241779E+02 -0.74222230111E+01  0.18726416957E+02  0.00000000000E+00 0. -1.
         11    1    3    3    0    0 -0.12700525675E+02 -0.28738647100E+01  0.12440948736E+01  0.13080910637E+02  0.51100000000E-03 0. -1.
        -11    1    3    3    0    0  0.83384606399E+01 -0.35840344779E+02  0.34283152859E+01  0.36956915262E+02  0.51100000000E-03 0.  1.
         12    1    3    3    0    0 -0.57951829398E+00  0.22246967710E+02  0.27498128516E+01  0.22423757144E+02  0.00000000000E+00 0. -1.
</event>
<event>
 7    1  0.2941727E-013  0.7246156E+02  0.7816164E-02  0.1226708E+00
        -11   -1    0    0    0    0  0.00000000000E+00  0.00000000000E+00  0.45593999997E+02  0.45594000000E+02  0.51100000000E-03 0.  1.
         11   -1    0    0    0    0 -0.00000000000E+00 -0.00000000000E+00 -0.45593999997E+02  0.45594000000E+02  0.51100000000E-03 0. -1.
    9900012    2    1    2    0    0  0.97907382484E+01 -0.35702011943E+01  0.15558743569E+02  0.72461564315E+02  0.69999992210E+02 0.  0.
         12    1    1    2    0    0 -0.97907382484E+01  0.35702011943E+01 -0.15558743569E+02  0.18726435685E+02  0.00000000000E+00 0. -1.
         11    1    3    3    0    0  0.14013825944E+02 -0.11526934722E+01  0.75109821733E+01  0.15941482782E+02  0.51100000000E-03 0. -1.
        -11    1    3    3    0    0  0.22304713739E+02  0.74208699620E+01 -0.69296728465E+01  0.24506936406E+02  0.51100000000E-03 0.  1.
        -12    1    3    3    0    0 -0.26527801435E+02 -0.98383776841E+01  0.14977434243E+02  0.32013145127E+02  0.00000000000E+00 0.  1.
</event>
<event>
 7    1  0.2941727E-013  0.7246156E+02  0.7816164E-02  0.1226708E+00
        -11   -1    0    0    0    0  0.00000000000E+00  0.00000000000E+00  0.45593999997E+02  0.45594000000E+02  0.51100000000E-03 0.  1.
         11   -1    0    0    0    0 -0.00000000000E+00 -0.00000000000E+00 -0.45593999997E+02  0.45594000000E+02  0.51100000000E-03 0. -1.
    9900012    2    1    2    0    0 -0.72936910759E+01  0.14557890486E+02  0.92492974373E+01  0.72461558587E+02  0.69999984749E+02 0.  0.
         12    1    1    2    0    0  0.72936910759E+01 -0.14557890486E+02 -0.92492974373E+01  0.18726441413E+02  0.00000000000E+00 0. -1.
         11    1    3    3    0    0  0.76200285557E+01  0.43202197245E+01 -0.14262187194E+02  0.16737356944E+02  0.51100000000E-03 0. -1.
        -11    1    3    3    0    0  0.11674395312E+02  0.18779381650E+02  0.66001987824E+01  0.23076379813E+02  0.51100000000E-03 0.  1.
        -12    1    3    3    0    0 -0.26588114943E+02 -0.85417108877E+01  0.16911285849E+02  0.32647821829E+02  0.00000000000E+00 0.  1.
</event>
<event>
 7    1  0.2941727E-013  0.7246158E+02  0.7816164E-02  0.1226708E+00
        -11   -1    0    0    0    0  0.00000000000E+00  0.00000000000E+00  0.45593999997E+02  0.45594000000E+02  0.51100000000E-03 0.  1.
         11   -1    0    0    0    0 -0.00000000000E+00 -0.00000000000E+00 -0.45593999997E+02  0.45594000000E+02  0.51100000000E-03 0. -1.
    9900012    2    1    2    0    0  0.16060398334E+02 -0.11492797472E+00  0.96296095139E+01  0.72461575289E+02  0.70000006506E+02 0.  0.
         12    1    1    2    0    0 -0.16060398334E+02  0.11492797472E+00 -0.96296095139E+01  0.18726424711E+02  0.00000000000E+00 0. -1.
         11    1    3    3    0    0  0.46885253899E+01  0.25438154249E+02 -0.54439598691E+00  0.25872346805E+02  0.51100000000E-03 0. -1.
        -11    1    3    3    0    0 -0.28447433338E+01 -0.96354014912E+01 -0.12109248234E+02  0.15734275312E+02  0.51100000000E-03 0.  1.
        -12    1    3    3    0    0  0.14216616278E+02 -0.15917680732E+02  0.22283253735E+02  0.30854953173E+02  0.00000000000E+00 0.  1.
</event>
<event>
 7    1  0.2941727E-013  0.7246151E+02  0.7816164E-02  0.1226708E+00
        -11   -1    0    0    0    0  0.00000000000E+00  0.00000000000E+00  0.45593999997E+02  0.45594000000E+02  0.51100000000E-03 0. -1.
         11   -1    0    0    0    0 -0.00000000000E+00 -0.00000000000E+00 -0.45593999997E+02  0.45594000000E+02  0.51100000000E-03 0.  1.
    9900012    2    1    2    0    0 -0.12200194436E+02  0.10690571404E+02  0.93567255252E+01  0.72461511440E+02  0.69999923332E+02 0.  0.
         12    1    1    2    0    0  0.12200194436E+02 -0.10690571404E+02 -0.93567255252E+01  0.18726488560E+02  0.00000000000E+00 0. -1.
         11    1    3    3    0    0  0.10257262967E+02 -0.24427929684E+01 -0.98401630276E+01  0.14422464759E+02  0.51100000000E-03 0.  1.
        -11    1    3    3    0    0  0.12770781964E+02 -0.45495089085E+01  0.11716532330E+02  0.17918371393E+02  0.51100000000E-03 0. -1.
        -12    1    3    3    0    0 -0.35228239367E+02  0.17682873281E+02  0.74803562230E+01  0.40120675288E+02  0.00000000000E+00 0.  1.
</event>
<event>
 7    1  0.2941727E-013  0.7246157E+02  0.7816164E-02  0.1226708E+00
        -11   -1    0    0    0    0  0.00000000000E+00  0.00000000000E+00  0.45593999997E+02  0.45594000000E+02  0.51100000000E-03 0.  1.
         11   -1    0    0    0    0 -0.00000000000E+00 -0.00000000000E+00 -0.45593999997E+02  0.45594000000E+02  0.51100000000E-03 0. -1.
    9900012    2    1    2    0    0  0.14117726291E+02  0.70547308035E+01  0.10079667179E+02  0.72461571809E+02  0.70000001973E+02 0.  0.
         12    1    1    2    0    0 -0.14117726291E+02 -0.70547308035E+01 -0.10079667179E+02  0.18726428191E+02  0.00000000000E+00 0. -1.
         11    1    3    3    0    0  0.56052153284E+01  0.95394053040E+00 -0.23122652511E+02  0.23811457343E+02  0.51100000000E-03 0. -1.
        -11    1    3    3    0    0  0.52226762837E+01 -0.13027883385E+02  0.60747501870E+01  0.15293942695E+02  0.51100000000E-03 0.  1.
        -12    1    3    3    0    0  0.32898346792E+01  0.19128673658E+02  0.27127569503E+02  0.33356171771E+02  0.00000000000E+00 0.  1.
</event>
<event>
 7    1  0.2941727E-013  0.7246151E+02  0.7816164E-02  0.1226708E+00
        -11   -1    0    0    0    0  0.00000000000E+00  0.00000000000E+00  0.45593999997E+02  0.45594000000E+02  0.51100000000E-03 0.  1.
         11   -1    0    0    0    0 -0.00000000000E+00 -0.00000000000E+00 -0.45593999997E+02  0.45594000000E+02  0.51100000000E-03 0. -1.
    9900012    2    1    2    0    0  0.12714270451E+02  0.12741958818E+02  0.51644060660E+01  0.72461514007E+02  0.69999926675E+02 0.  0.
         12    1    1    2    0    0 -0.12714270451E+02 -0.12741958818E+02 -0.51644060660E+01  0.18726485993E+02  0.00000000000E+00 0. -1.
         11    1    3    3    0    0  0.96376212839E+01 -0.21833213389E+01 -0.16811673854E+02  0.19500846498E+02  0.51100000000E-03 0. -1.
        -11    1    3    3    0    0  0.15348924145E+02 -0.50609406971E+01  0.24522741754E+02  0.29369498745E+02  0.51100000000E-03 0.  1.
         12    1    3    3    0    0 -0.12272274978E+02  0.19986220854E+02 -0.25466618335E+01  0.23591168764E+02  0.00000000000E+00 0. -1.
</event>
<event>
 7    1  0.2941727E-013  0.7246156E+02  0.7816164E-02  0.1226708E+00
        -11   -1    0    0    0    0  0.00000000000E+00  0.00000000000E+00  0.45593999997E+02  0.45594000000E+02  0.51100000000E-03 0. -1.
         11   -1    0    0    0    0 -0.00000000000E+00 -0.00000000000E+00 -0.45593999997E+02  0.45594000000E+02  0.51100000000E-03 0.  1.
    9900012    2    1    2    0    0  0.12922399895E+02 -0.38556762962E+01 -0.12993262466E+02  0.72461560716E+02  0.69999987523E+02 0.  0.
         12    1    1    2    0    0 -0.12922399895E+02  0.38556762962E+01  0.12993262466E+02  0.18726439284E+02  0.00000000000E+00 0. -1.
         11    1    3    3    0    0 -0.20387062573E+02 -0.19818237084E+01 -0.13622882882E+02  0.24599652108E+02  0.51100000000E-03 0. -1.
        -11    1    3    3    0    0 -0.50204325862E+00 -0.60830807474E+01 -0.10391298878E+02  0.12051348947E+02  0.51100000000E-03 0.  1.
         12    1    3    3    0    0  0.33811505726E+02  0.42092281596E+01  0.11020919294E+02  0.35810559661E+02  0.00000000000E+00 0. -1.
</event>
<event>
 7    1  0.2941727E-013  0.7246153E+02  0.7816164E-02  0.1226708E+00
        -11   -1    0    0    0    0  0.00000000000E+00  0.00000000000E+00  0.45593999997E+02  0.45594000000E+02  0.51100000000E-03 0.  1.
         11   -1    0    0    0    0 -0.00000000000E+00 -0.00000000000E+00 -0.45593999997E+02  0.45594000000E+02  0.51100000000E-03 0. -1.
    9900012    2    1    2    0    0 -0.17052369634E+02 -0.41629006606E+01  0.65243986029E+01  0.72461525981E+02  0.69999942274E+02 0.  0.
         12    1    1    2    0    0  0.17052369634E+02  0.41629006606E+01 -0.65243986029E+01  0.18726474019E+02  0.00000000000E+00 0. -1.
         11    1    3    3    0    0  0.82414123880E-01  0.70638444916E+01 -0.11295331859E+02  0.13322507765E+02  0.51100000000E-03 0. -1.
        -11    1    3    3    0    0  0.72356816847E+01  0.52784223632E+00 -0.14965116249E+02  0.16630947401E+02  0.51100000000E-03 0.  1.
        -12    1    3    3    0    0 -0.24370465443E+02 -0.11754587389E+02  0.32784846710E+02  0.42508070815E+02  0.00000000000E+00 0.  1.
</event>
<event>
 7    1  0.2941727E-013  0.7246142E+02  0.7816164E-02  0.1226708E+00
        -11   -1    0    0    0    0  0.00000000000E+00  0.00000000000E+00  0.45593999997E+02  0.45594000000E+02  0.51100000000E-03 0.  1.
         11   -1    0    0    0    0 -0.00000000000E+00 -0.00000000000E+00 -0.45593999997E+02  0.45594000000E+02  0.51100000000E-03 0. -1.
    9900012    2    1    2    0    0  0.17744157741E+02 -0.27501509962E+01 -0.53166134502E+01  0.72461418812E+02  0.69999802665E+02 0.  0.
         12    1    1    2    0    0 -0.17744157741E+02  0.27501509962E+01  0.53166134502E+01  0.18726581188E+02  0.00000000000E+00 0. -1.
         11    1    3    3    0    0 -0.52517615302E+01  0.82543719457E+01 -0.18868441920E+02  0.21254029175E+02  0.51100000000E-03 0. -1.
        -11    1    3    3    0    0  0.90568963904E+01 -0.23471209123E+02 -0.41020094464E+01  0.25490223845E+02  0.51100000000E-03 0.  1.
        -12    1    3    3    0    0  0.13939022881E+02  0.12466686181E+02  0.17653837917E+02  0.25717165792E+02  0.00000000000E+00 0.  1.
</event>
<event>
 7    1  0.2941727E-013  0.7246158E+02  0.7816164E-02  0.1226708E+00
        -11   -1    0    0    0    0  0.00000000000E+00  0.00000000000E+00  0.45593999997E+02  0.45594000000E+02  0.51100000000E-03 0. -1.
         11   -1    0    0    0    0 -0.00000000000E+00 -0.00000000000E+00 -0.45593999997E+02  0.45594000000E+02  0.51100000000E-03 0.  1.
    9900012    2    1    2    0    0 -0.15434667701E+02 -0.81823106845E+01  0.67453285759E+01  0.72461584626E+02  0.70000018670E+02 0.  0.
         12    1    1    2    0    0  0.15434667701E+02  0.81823106845E+01 -0.67453285759E+01  0.18726415374E+02  0.00000000000E+00 0. -1.
         11    1    3    3    0    0  0.56391160767E+01 -0.24937391337E+01  0.16594361667E+02  0.17702858650E+02  0.51100000000E-03 0. -1.
        -11    1    3    3    0    0  0.57470073410E+01  0.10705947523E+01  0.15917600939E+02  0.16957130843E+02  0.51100000000E-03 0.  1.
        -12    1    3    3    0    0 -0.26820791118E+02 -0.67591663031E+01 -0.25766634030E+02  0.37801595133E+02  0.00000000000E+00 0.  1.
</event>
<event>
 7    1  0.2941727E-013  0.7246161E+02  0.7816164E-02  0.1226708E+00
        -11   -1    0    0    0    0  0.00000000000E+00  0.00000000000E+00  0.45593999997E+02  0.45594000000E+02  0.51100000000E-03 0.  1.
         11   -1    0    0    0    0 -0.00000000000E+00 -0.00000000000E+00 -0.45593999997E+02  0.45594000000E+02  0.51100000000E-03 0. -1.
    9900012    2    1    2    0    0 -0.11057341244E+02  0.14971574083E+02 -0.20651273916E+01  0.72461612814E+02  0.70000055389E+02 0.  0.
         12    1    1    2    0    0  0.11057341244E+02 -0.14971574083E+02  0.20651273916E+01  0.18726387186E+02  0.00000000000E+00 0. -1.
         11    1    3    3    0    0 -0.94919600320E+01 -0.18193536718E+02  0.49364498983E+01  0.21106174960E+02  0.51100000000E-03 0. -1.
        -11    1    3    3    0    0 -0.27792697501E+01 -0.77467705481E+01  0.37390468664E+01  0.90397602844E+01  0.51100000000E-03 0.  1.
         12    1    3    3    0    0  0.12138885381E+01  0.40911881349E+02 -0.10740624156E+02  0.42315677570E+02  0.00000000000E+00 0. -1.
</event>
<event>
 7    1  0.2941727E-013  0.7246160E+02  0.7816164E-02  0.1226708E+00
        -11   -1    0    0    0    0  0.00000000000E+00  0.00000000000E+00  0.45593999997E+02  0.45594000000E+02  0.51100000000E-03 0. -1.
         11   -1    0    0    0    0 -0.00000000000E+00 -0.00000000000E+00 -0.45593999997E+02  0.45594000000E+02  0.51100000000E-03 0.  1.
    9900012    2    1    2    0    0  0.93246449667E+01 -0.10586135865E+02 -0.12315139932E+02  0.72461602913E+02  0.70000042492E+02 0.  0.
         12    1    1    2    0    0 -0.93246449667E+01  0.10586135865E+02  0.12315139932E+02  0.18726397087E+02  0.00000000000E+00 0. -1.
         11    1    3    3    0    0  0.31860005997E+01 -0.16165192635E+02 -0.24160157144E+02  0.29243413724E+02  0.51100000000E-03 0. -1.
        -11    1    3    3    0    0 -0.17047058473E+02  0.13271604315E+01  0.62061229121E+00  0.17109901147E+02  0.51100000000E-03 0.  1.
        -12    1    3    3    0    0  0.23185702840E+02  0.42518963391E+01  0.11224404921E+02  0.26108288042E+02  0.00000000000E+00 0.  1.
</event>
<event>
 7    1  0.2941727E-013  0.7246158E+02  0.7816164E-02  0.1226708E+00
        -11   -1    0    0    0    0  0.00000000000E+00  0.00000000000E+00  0.45593999997E+02  0.45594000000E+02  0.51100000000E-03 0.  1.
         11   -1    0    0    0    0 -0.00000000000E+00 -0.00000000000E+00 -0.45593999997E+02  0.45594000000E+02  0.51100000000E-03 0. -1.
    9900012    2    1    2    0    0 -0.15694203148E+02  0.99689411149E+01 -0.22340827139E+01  0.72461576823E+02  0.70000008505E+02 0.  0.
         12    1    1    2    0    0  0.15694203148E+02 -0.99689411149E+01  0.22340827139E+01  0.18726423177E+02  0.00000000000E+00 0. -1.
         11    1    3    3    0    0 -0.26242408805E+02  0.36422251230E+01 -0.82690087258E+00  0.26506859283E+02  0.51100000000E-03 0. -1.
        -11    1    3    3    0    0  0.16928328714E+02  0.13241269673E+02  0.15573948408E+02  0.26541428087E+02  0.51100000000E-03 0.  1.
         12    1    3    3    0    0 -0.63801230569E+01 -0.69145536814E+01 -0.16981130250E+02  0.19413289453E+02  0.00000000000E+00 0. -1.
</event>
<event>
 7    1  0.2941727E-013  0.7246125E+02  0.7816164E-02  0.1226709E+00
        -11   -1    0    0    0    0  0.00000000000E+00  0.00000000000E+00  0.45593999997E+02  0.45594000000E+02  0.51100000000E-03 0.  1.
         11   -1    0    0    0    0 -0.00000000000E+00 -0.00000000000E+00 -0.45593999997E+02  0.45594000000E+02  0.51100000000E-03 0. -1.
    9900012    2    1    2    0    0  0.60040939693E+01 -0.24248585627E+01 -0.17571625194E+02  0.72461251873E+02  0.69999585196E+02 0.  0.
         12    1    1    2    0    0 -0.60040939693E+01  0.24248585627E+01  0.17571625194E+02  0.18726748127E+02  0.00000000000E+00 0. -1.
         11    1    3    3    0    0  0.44659941078E+01 -0.13933994547E+02 -0.40355087977E+02  0.42925917967E+02  0.51100000000E-03 0. -1.
        -11    1    3    3    0    0  0.33916505923E+00 -0.71923046833E+00 -0.18466409332E+01  0.20105741472E+01  0.51100000000E-03 0.  1.
        -12    1    3    3    0    0  0.11989348023E+01  0.12228366453E+02  0.24630103715E+02  0.27524759759E+02  0.00000000000E+00 0.  1.
</event>
<event>
 7    1  0.2941727E-013  0.7246158E+02  0.7816164E-02  0.1226708E+00
        -11   -1    0    0    0    0  0.00000000000E+00  0.00000000000E+00  0.45593999997E+02  0.45594000000E+02  0.51100000000E-03 0.  1.
         11   -1    0    0    0    0 -0.00000000000E+00 -0.00000000000E+00 -0.45593999997E+02  0.45594000000E+02  0.51100000000E-03 0. -1.
    9900012    2    1    2    0    0 -0.46464323510E+01 -0.10743493906E+02  0.14617350547E+02  0.72461576639E+02  0.70000008265E+02 0.  0.
         12    1    1    2    0    0  0.46464323510E+01  0.10743493906E+02 -0.14617350547E+02  0.18726423361E+02  0.00000000000E+00 0. -1.
         11    1    3    3    0    0 -0.11206779848E+01 -0.32661508600E+01 -0.17162503429E+02  0.17506432669E+02  0.51100000000E-03 0. -1.
        -11    1    3    3    0    0  0.17357891357E+02 -0.51578203533E+01  0.15965156953E+01  0.18178238798E+02  0.51100000000E-03 0.  1.
         12    1    3    3    0    0 -0.20883645724E+02 -0.23195226927E+01  0.30183338280E+02  0.36776905171E+02  0.00000000000E+00 0. -1.
</event>
<event>
 7    1  0.2941727E-013  0.7246157E+02  0.7816164E-02  0.1226708E+00
        -11   -1    0    0    0    0  0.00000000000E+00  0.00000000000E+00  0.45593999997E+02  0.45594000000E+02  0.51100000000E-03 0.  1.
         11   -1    0    0    0    0 -0.00000000000E+00 -0.00000000000E+00 -0.45593999997E+02  0.45594000000E+02  0.51100000000E-03 0. -1.
    9900012    2    1    2    0    0  0.50797553498E+01 -0.16594170807E+02  0.70362568533E+01  0.72461566017E+02  0.69999994429E+02 0.  0.
         12    1    1    2    0    0 -0.50797553498E+01  0.16594170807E+02 -0.70362568533E+01  0.18726433983E+02  0.00000000000E+00 0. -1.
         11    1    3    3    0    0 -0.32132706470E+01 -0.13775162010E+01 -0.26220025081E+02  0.26452076944E+02  0.51100000000E-03 0. -1.
        -11    1    3    3    0    0 -0.70666690545E+01 -0.14183108181E+02  0.12584824836E+02  0.20235517923E+02  0.51100000000E-03 0.  1.
        -12    1    3    3    0    0  0.15359695051E+02 -0.10335464254E+01  0.20671457099E+02  0.25773971150E+02  0.00000000000E+00 0.  1.
</event>
<event>
 7    1  0.2941727E-013  0.7246154E+02  0.7816164E-02  0.1226708E+00
        -11   -1    0    0    0    0  0.00000000000E+00  0.00000000000E+00  0.45593999997E+02  0.45594000000E+02  0.51100000000E-03 0. -1.
         11   -1    0    0    0    0 -0.00000000000E+00 -0.00000000000E+00 -0.45593999997E+02  0.45594000000E+02  0.51100000000E-03 0.  1.
    9900012    2    1    2    0    0  0.11152500415E+02  0.10189312788E+02  0.11067064622E+02  0.72461540646E+02  0.69999961377E+02 0.  0.
         12    1    1    2    0    0 -0.11152500415E+02 -0.10189312788E+02 -0.11067064622E+02  0.18726459354E+02  0.00000000000E+00 0. -1.
         11    1    3    3    0    0  0.20594955117E+02  0.11861702447E+02  0.16235724544E+02  0.28782823228E+02  0.51100000000E-03 0. -1.
        -11    1    3    3    0    0  0.75605366229E+01 -0.68205720516E+01  0.14150359423E+02  0.17433146279E+02  0.51100000000E-03 0.  1.
        -12    1    3    3    0    0 -0.17002991325E+02  0.51481823921E+01 -0.19319019345E+02  0.26245571139E+02  0.00000000000E+00 0.  1.
</event>
<event>
 7    1  0.2941727E-013  0.7246158E+02  0.7816164E-02  0.1226708E+00
        -11   -1    0    0    0    0  0.00000000000E+00  0.00000000000E+00  0.45593999997E+02  0.45594000000E+02  0.51100000000E-03 0.  1.
         11   -1    0    0    0    0 -0.00000000000E+00 -0.00000000000E+00 -0.45593999997E+02  0.45594000000E+02  0.51100000000E-03 0. -1.
    9900012    2    1    2    0    0  0.10366689872E+02 -0.15593465661E+02  0.23356621764E+00  0.72461575264E+02  0.70000006474E+02 0.  0.
         12    1    1    2    0    0 -0.10366689872E+02  0.15593465661E+02 -0.23356621764E+00  0.18726424736E+02  0.00000000000E+00 0. -1.
         11    1    3    3    0    0 -0.20701188923E+01  0.12833093914E+02 -0.11472394627E+01  0.13049515328E+02  0.51100000000E-03 0. -1.
        -11    1    3    3    0    0  0.13628103647E+02  0.13675664271E+01  0.20013269174E+02  0.24251317288E+02  0.51100000000E-03 0.  1.
         12    1    3    3    0    0 -0.11912948829E+01 -0.29794126002E+02 -0.18632463493E+02  0.35160742648E+02  0.00000000000E+00 0. -1.
</event>
<event>
 7    1  0.2941727E-013  0.7246157E+02  0.7816164E-02  0.1226708E+00
        -11   -1    0    0    0    0  0.00000000000E+00  0.00000000000E+00  0.45593999997E+02  0.45594000000E+02  0.51100000000E-03 0.  1.
         11   -1    0    0    0    0 -0.00000000000E+00 -0.00000000000E+00 -0.45593999997E+02  0.45594000000E+02  0.51100000000E-03 0. -1.
    9900012    2    1    2    0    0 -0.13316846122E+01 -0.18306086185E+02 -0.37139103778E+01  0.72461566660E+02  0.69999995266E+02 0.  0.
         12    1    1    2    0    0  0.13316846122E+01  0.18306086185E+02  0.37139103778E+01  0.18726433340E+02  0.00000000000E+00 0. -1.
         11    1    3    3    0    0  0.12625656252E+02 -0.57913880653E+01 -0.27069360720E+01  0.14151850574E+02  0.51100000000E-03 0. -1.
        -11    1    3    3    0    0  0.10674859869E+01  0.11479650737E+02  0.19980650570E+02  0.23068339880E+02  0.51100000000E-03 0.  1.
         12    1    3    3    0    0 -0.15024826851E+02 -0.23994348857E+02 -0.20987624875E+02  0.35241376206E+02  0.00000000000E+00 0. -1.
</event>
<event>
 7    1  0.2941727E-013  0.7246151E+02  0.7816164E-02  0.1226708E+00
        -11   -1    0    0    0    0  0.00000000000E+00  0.00000000000E+00  0.45593999997E+02  0.45594000000E+02  0.51100000000E-03 0. -1.
         11   -1    0    0    0    0 -0.00000000000E+00 -0.00000000000E+00 -0.45593999997E+02  0.45594000000E+02  0.51100000000E-03 0.  1.
    9900012    2    1    2    0    0  0.81359381155E-01  0.88682825628E+01 -0.16493284141E+02  0.72461508692E+02  0.69999919751E+02 0.  0.
         12    1    1    2    0    0 -0.81359381155E-01 -0.88682825628E+01  0.16493284141E+02  0.18726491308E+02  0.00000000000E+00 0. -1.
         11    1    3    3    0    0  0.23209310453E+01  0.11505085081E+01 -0.29958873279E+01  0.39605216685E+01  0.51100000000E-03 0. -1.
        -11    1    3    3    0    0  0.15080587420E+01 -0.79023676726E+01 -0.38198302898E+02  0.39036290815E+02  0.51100000000E-03 0.  1.
         12    1    3    3    0    0 -0.37476304061E+01  0.15620141727E+02  0.24700906085E+02  0.29464696209E+02  0.00000000000E+00 0. -1.
</event>
<event>
 7    1  0.2941727E-013  0.7246161E+02  0.7816164E-02  0.1226708E+00
        -11   -1    0    0    0    0  0.00000000000E+00  0.00000000000E+00  0.45593999997E+02  0.45594000000E+02  0.51100000000E-03 0.  1.
         11   -1    0    0    0    0 -0.00000000000E+00 -0.00000000000E+00 -0.45593999997E+02  0.45594000000E+02  0.51100000000E-03 0. -1.
    9900012    2    1    2    0    0 -0.97903460767E+01  0.88975224012E+01  0.13253709289E+02  0.72461612439E+02  0.70000054901E+02 0.  0.
         12    1    1    2    0    0  0.97903460767E+01 -0.88975224012E+01 -0.13253709289E+02  0.18726387561E+02  0.00000000000E+00 0. -1.
         11    1    3    3    0    0  0.23572520280E+01 -0.59113985139E+01 -0.98826829777E+01  0.11754517966E+02  0.51100000000E-03 0. -1.
        -11    1    3    3    0    0 -0.61503401812E+01 -0.10233610611E+02 -0.12142969859E+02  0.17029538683E+02  0.51100000000E-03 0.  1.
        -12    1    3    3    0    0 -0.59972579234E+01  0.25042531526E+02  0.35279362125E+02  0.43677555790E+02  0.00000000000E+00 0.  1.
</event>
<event>
 7    1  0.2941727E-013  0.7246163E+02  0.7816164E-02  0.1226708E+00
        -11   -1    0    0    0    0  0.00000000000E+00  0.00000000000E+00  0.45593999997E+02  0.45594000000E+02  0.51100000000E-03 0.  1.
         11   -1    0    0    0    0 -0.00000000000E+00 -0.00000000000E+00 -0.45593999997E+02  0.45594000000E+02  0.51100000000E-03 0. -1.
    9900012    2    1    2    0    0 -0.26748091300E+01 -0.28948670575E+01  0.18306884867E+02  0.72461631086E+02  0.70000079192E+02 0.  0.
         12    1    1    2    0    0  0.26748091300E+01  0.28948670575E+01 -0.18306884867E+02  0.18726368914E+02  0.00000000000E+00 0. -1.
         11    1    3    3    0    0  0.15362699394E+02 -0.21099975003E+01 -0.40323483347E+01  0.16022623240E+02  0.51100000000E-03 0. -1.
        -11    1    3    3    0    0  0.88703138348E+01 -0.17797799088E+02  0.10378927698E+02  0.22431367777E+02  0.51100000000E-03 0.  1.
         12    1    3    3    0    0 -0.26907822359E+02  0.17012929531E+02  0.11960305503E+02  0.34007640069E+02  0.00000000000E+00 0. -1.
</event>
<event>
 7    1  0.2941727E-013  0.7246152E+02  0.7816164E-02  0.1226708E+00
        -11   -1    0    0    0    0  0.00000000000E+00  0.00000000000E+00  0.45593999997E+02  0.45594000000E+02  0.51100000000E-03 0.  1.
         11   -1    0    0    0    0 -0.00000000000E+00 -0.00000000000E+00 -0.45593999997E+02  0.45594000000E+02  0.51100000000E-03 0. -1.
    9900012    2    1    2    0    0  0.17481571070E+02 -0.66767379350E+01 -0.70485067043E+00  0.72461522195E+02  0.69999937341E+02 0.  0.
         12    1    1    2    0    0 -0.17481571070E+02  0.66767379350E+01  0.70485067043E+00  0.18726477805E+02  0.00000000000E+00 0. -1.
         11    1    3    3    0    0 -0.48561487149E+01  0.41254965442E+01 -0.79388989506E+01  0.10179784815E+02  0.51100000000E-03 0. -1.
        -11    1    3    3    0    0  0.39228077874E+02  0.22260897437E+01 -0.12852263024E+01  0.39312203909E+02  0.51100000000E-03 0.  1.
         12    1    3    3    0    0 -0.16890358089E+02 -0.13028324223E+02  0.85192745825E+01  0.22969533471E+02  0.00000000000E+00 0. -1.
</event>
<event>
 7    1  0.2941727E-013  0.7246133E+02  0.7816164E-02  0.1226709E+00
        -11   -1    0    0    0    0  0.00000000000E+00  0.00000000000E+00  0.45593999997E+02  0.45594000000E+02  0.51100000000E-03 0. -1.
         11   -1    0    0    0    0 -0.00000000000E+00 -0.00000000000E+00 -0.45593999997E+02  0.45594000000E+02  0.51100000000E-03 0.  1.
    9900012    2    1    2    0    0  0.92707037192E+01  0.12044805375E+02 -0.10939149306E+02  0.72461327271E+02  0.69999683416E+02 0.  0.
         12    1    1    2    0    0 -0.92707037192E+01 -0.12044805375E+02  0.10939149306E+02  0.18726672729E+02  0.00000000000E+00 0. -1.
         11    1    3    3    0    0  0.10502313325E+02 -0.26023045885E-01  0.18183882285E+01  0.10658602084E+02  0.51100000000E-03 0. -1.
        -11    1    3    3    0    0  0.68640574570E+01 -0.14406272778E+02 -0.26468298412E+02  0.30906743620E+02  0.51100000000E-03 0.  1.
         12    1    3    3    0    0 -0.80956670631E+01  0.26477101199E+02  0.13710760877E+02  0.30895981566E+02  0.00000000000E+00 0. -1.
</event>
<event>
 7    1  0.2941727E-013  0.7246154E+02  0.7816164E-02  0.1226708E+00
        -11   -1    0    0    0    0  0.00000000000E+00  0.00000000000E+00  0.45593999997E+02  0.45594000000E+02  0.51100000000E-03 0.  1.
         11   -1    0    0    0    0 -0.00000000000E+00 -0.00000000000E+00 -0.45593999997E+02  0.45594000000E+02  0.51100000000E-03 0. -1.
    9900012    2    1    2    0    0  0.43070897484E+01 -0.39701739583E+01  0.17786711356E+02  0.72461537327E+02  0.69999957054E+02 0.  0.
         12    1    1    2    0    0 -0.43070897484E+01  0.39701739583E+01 -0.17786711356E+02  0.18726462673E+02  0.00000000000E+00 0. -1.
         11    1    3    3    0    0 -0.17186924237E+01 -0.35616586683E+01  0.40765268267E+01  0.56795587282E+01  0.51100000000E-03 0. -1.
        -11    1    3    3    0    0  0.12070919830E+02 -0.23674262765E+02  0.28172808299E+02  0.38728348154E+02  0.51100000000E-03 0.  1.
         12    1    3    3    0    0 -0.60451376580E+01  0.23265747475E+02 -0.14462623769E+02  0.28053630445E+02  0.00000000000E+00 0. -1.
</event>
<event>
 7    1  0.2941727E-013  0.7246164E+02  0.7816164E-02  0.1226708E+00
        -11   -1    0    0    0    0  0.00000000000E+00  0.00000000000E+00  0.45593999997E+02  0.45594000000E+02  0.51100000000E-03 0.  1.
         11   -1    0    0    0    0 -0.00000000000E+00 -0.00000000000E+00 -0.45593999997E+02  0.45594000000E+02  0.51100000000E-03 0. -1.
    9900012    2    1    2    0    0 -0.49564831036E+00 -0.28983553173E+01  0.18494068380E+02  0.72461636337E+02  0.70000086032E+02 0.  0.
         12    1    1    2    0    0  0.49564831036E+00  0.28983553173E+01 -0.18494068380E+02  0.18726363663E+02  0.00000000000E+00 0. -1.
         11    1    3    3    0    0  0.45493486958E+01  0.50798639965E+01 -0.20755815864E+02  0.21847322129E+02  0.51100000000E-03 0. -1.
        -11    1    3    3    0    0 -0.27800618257E+00  0.21011248171E+01 -0.47618506050E+01  0.52122197171E+01  0.51100000000E-03 0.  1.
        -12    1    3    3    0    0 -0.47669908236E+01 -0.10079344131E+02  0.44011734850E+02  0.45402094490E+02  0.00000000000E+00 0.  1.
</event>
<event>
 7    1  0.2941727E-013  0.7246156E+02  0.7816164E-02  0.1226708E+00
        -11   -1    0    0    0    0  0.00000000000E+00  0.00000000000E+00  0.45593999997E+02  0.45594000000E+02  0.51100000000E-03 0. -1.
         11   -1    0    0    0    0 -0.00000000000E+00 -0.00000000000E+00 -0.45593999997E+02  0.45594000000E+02  0.51100000000E-03 0.  1.
    9900012    2    1    2    0    0  0.11559199450E+02  0.11834734645E+02 -0.87751667357E+01  0.72461559140E+02  0.69999985469E+02 0.  0.
         12    1    1    2    0    0 -0.11559199450E+02 -0.11834734645E+02  0.87751667357E+01  0.18726440860E+02  0.00000000000E+00 0. -1.
         11    1    3    3    0    0  0.26190357791E+01  0.31599206867E+02  0.10980588586E+02  0.33555067412E+02  0.51100000000E-03 0. -1.
        -11    1    3    3    0    0  0.58618022171E+01  0.54755180670E+01 -0.58263425109E+01  0.99140451204E+01  0.51100000000E-03 0.  1.
        -12    1    3    3    0    0  0.30783614539E+01 -0.25239990290E+02 -0.13929412811E+02  0.28992446608E+02  0.00000000000E+00 0.  1.
</event>
<event>
 7    1  0.2941727E-013  0.7246162E+02  0.7816164E-02  0.1226708E+00
        -11   -1    0    0    0    0  0.00000000000E+00  0.00000000000E+00  0.45593999997E+02  0.45594000000E+02  0.51100000000E-03 0.  1.
         11   -1    0    0    0    0 -0.00000000000E+00 -0.00000000000E+00 -0.45593999997E+02  0.45594000000E+02  0.51100000000E-03 0. -1.
    9900012    2    1    2    0    0 -0.16983512574E+02  0.35585271177E+01 -0.70409274996E+01  0.72461615548E+02  0.70000058951E+02 0.  0.
         12    1    1    2    0    0  0.16983512574E+02 -0.35585271177E+01  0.70409274996E+01  0.18726384452E+02  0.00000000000E+00 0. -1.
         11    1    3    3    0    0  0.71648398544E+01  0.14488728849E+02  0.39772856030E+01  0.16645629902E+02  0.51100000000E-03 0. -1.
        -11    1    3    3    0    0 -0.90938942912E+01  0.16551478117E+02  0.64310754780E+01  0.19950164743E+02  0.51100000000E-03 0.  1.
         12    1    3    3    0    0 -0.15054458137E+02 -0.27481679848E+02 -0.17449288581E+02  0.35865820903E+02  0.00000000000E+00 0. -1.
</event>
<event>
 7    1  0.2941727E-013  0.7246160E+02  0.7816164E-02  0.1226708E+00
        -11   -1    0    0    0    0  0.00000000000E+00  0.00000000000E+00  0.45593999997E+02  0.45594000000E+02  0.51100000000E-03 0.  1.
         11   -1    0    0    0    0 -0.00000000000E+00 -0.00000000000E+00 -0.45593999997E+02  0.45594000000E+02  0.51100000000E-03 0. -1.
    9900012    2    1    2    0    0  0.18250480426E+02 -0.64473432568E+00  0.41451537011E+01  0.72461601058E+02  0.70000040076E+02 0.  0.
         12    1    1    2    0    0 -0.18250480426E+02  0.64473432568E+00 -0.41451537011E+01  0.18726398942E+02  0.00000000000E+00 0. -1.
         11    1    3    3    0    0  0.27489659339E+01 -0.12380861935E+02  0.18521201680E+01  0.12816899209E+02  0.51100000000E-03 0. -1.
        -11    1    3    3    0    0 -0.21239956414E+02  0.52353337466E+01  0.42359608800E+01  0.22282006928E+02  0.51100000000E-03 0.  1.
        -12    1    3    3    0    0  0.36741470905E+02  0.65007938624E+01 -0.19429273468E+01  0.37362694922E+02  0.00000000000E+00 0.  1.
</event>
<event>
 7    1  0.2941727E-013  0.7246156E+02  0.7816164E-02  0.1226708E+00
        -11   -1    0    0    0    0  0.00000000000E+00  0.00000000000E+00  0.45593999997E+02  0.45594000000E+02  0.51100000000E-03 0.  1.
         11   -1    0    0    0    0 -0.00000000000E+00 -0.00000000000E+00 -0.45593999997E+02  0.45594000000E+02  0.51100000000E-03 0. -1.
    9900012    2    1    2    0    0  0.14420053347E+02 -0.42193477910E+01 -0.11177593192E+02  0.72461563503E+02  0.69999991153E+02 0.  0.
         12    1    1    2    0    0 -0.14420053347E+02  0.42193477910E+01  0.11177593192E+02  0.18726436497E+02  0.00000000000E+00 0. -1.
         11    1    3    3    0    0  0.10876977587E+02 -0.56968317022E+01  0.32562060487E+01  0.12702968589E+02  0.51100000000E-03 0. -1.
        -11    1    3    3    0    0  0.16579492827E+02  0.24727315441E+02 -0.71402136896E+00  0.29779683311E+02  0.51100000000E-03 0.  1.
         12    1    3    3    0    0 -0.13036417068E+02 -0.23249831529E+02 -0.13719777872E+02  0.29978911604E+02  0.00000000000E+00 0. -1.
</event>
<event>
 7    1  0.2941727E-013  0.7246156E+02  0.7816164E-02  0.1226708E+00
        -11   -1    0    0    0    0  0.00000000000E+00  0.00000000000E+00  0.45593999997E+02  0.45594000000E+02  0.51100000000E-03 0.  1.
         11   -1    0    0    0    0 -0.00000000000E+00 -0.00000000000E+00 -0.45593999997E+02  0.45594000000E+02  0.51100000000E-03 0. -1.
    9900012    2    1    2    0    0  0.12968046378E+02 -0.68685155152E+01  0.11633262901E+02  0.72461560457E+02  0.69999987185E+02 0.  0.
         12    1    1    2    0    0 -0.12968046378E+02  0.68685155152E+01 -0.11633262901E+02  0.18726439543E+02  0.00000000000E+00 0. -1.
         11    1    3    3    0    0  0.23466719328E+02  0.23843199158E+02  0.10453751644E+02  0.35049479109E+02  0.51100000000E-03 0. -1.
        -11    1    3    3    0    0 -0.24191508938E+01 -0.43818958585E+00  0.52678957171E+01  0.58133490096E+01  0.51100000000E-03 0.  1.
        -12    1    3    3    0    0 -0.80795220562E+01 -0.30273525088E+02 -0.40883844601E+01  0.31598732338E+02  0.00000000000E+00 0.  1.
</event>
<event>
 7    1  0.2941727E-013  0.7246158E+02  0.7816164E-02  0.1226708E+00
        -11   -1    0    0    0    0  0.00000000000E+00  0.00000000000E+00  0.45593999997E+02  0.45594000000E+02  0.51100000000E-03 0.  1.
         11   -1    0    0    0    0 -0.00000000000E+00 -0.00000000000E+00 -0.45593999997E+02  0.45594000000E+02  0.51100000000E-03 0. -1.
    9900012    2    1    2    0    0 -0.40374582592E-01  0.26155981413E+01  0.18542811182E+02  0.72461579352E+02  0.70000011799E+02 0.  0.
         12    1    1    2    0    0  0.40374582592E-01 -0.26155981413E+01 -0.18542811182E+02  0.18726420648E+02  0.00000000000E+00 0. -1.
         11    1    3    3    0    0  0.21375320216E+02 -0.13447748128E+02 -0.79048552980E+01  0.26461915683E+02  0.51100000000E-03 0. -1.
        -11    1    3    3    0    0 -0.95433502376E+01  0.10088892080E+02 -0.25330918599E+01  0.14116580032E+02  0.51100000000E-03 0.  1.
        -12    1    3    3    0    0 -0.11872344561E+02  0.59744541890E+01  0.28980758340E+02  0.31883083637E+02  0.00000000000E+00 0.  1.
</event>
<event>
 7    1  0.2941727E-013  0.7246156E+02  0.7816164E-02  0.1226708E+00
        -11   -1    0    0    0    0  0.00000000000E+00  0.00000000000E+00  0.45593999997E+02  0.45594000000E+02  0.51100000000E-03 0. -1.
         11   -1    0    0    0    0 -0.00000000000E+00 -0.00000000000E+00 -0.45593999997E+02  0.45594000000E+02  0.51100000000E-03 0.  1.
    9900012    2    1    2    0    0  0.14920217796E+02 -0.22167003743E+01 -0.11097435041E+02  0.72461555487E+02  0.69999980710E+02 0.  0.
         12    1    1    2    0    0 -0.14920217796E+02  0.22167003743E+01  0.11097435041E+02  0.18726444513E+02  0.00000000000E+00 0. -1.
         11    1    3    3    0    0  0.47664599426E+01 -0.18917166368E+02 -0.31120390599E+02  0.36729511773E+02  0.51100000000E-03 0. -1.
        -11    1    3    3    0    0 -0.32076908342E+01  0.14252839222E+02  0.49117957432E+01  0.15412931066E+02  0.51100000000E-03 0.  1.
        -12    1    3    3    0    0  0.13361448688E+02  0.24476267721E+01  0.15111159815E+02  0.20319112648E+02  0.00000000000E+00 0.  1.
</event>
<event>
 7    1  0.2941727E-013  0.7246155E+02  0.7816164E-02  0.1226708E+00
        -11   -1    0    0    0    0  0.00000000000E+00  0.00000000000E+00  0.45593999997E+02  0.45594000000E+02  0.51100000000E-03 0.  1.
         11   -1    0    0    0    0 -0.00000000000E+00 -0.00000000000E+00 -0.45593999997E+02  0.45594000000E+02  0.51100000000E-03 0. -1.
    9900012    2    1    2    0    0 -0.14339875893E+02  0.10198587630E+02  0.64059785085E+01  0.72461553703E+02  0.69999978386E+02 0.  0.
         12    1    1    2    0    0  0.14339875893E+02 -0.10198587630E+02 -0.64059785085E+01  0.18726446297E+02  0.00000000000E+00 0. -1.
         11    1    3    3    0    0  0.19282128195E+02 -0.10826447620E+02 -0.16349569574E+01  0.22173982960E+02  0.51100000000E-03 0. -1.
        -11    1    3    3    0    0 -0.13725255993E+01 -0.67242319507E+01 -0.54744319243E+00  0.68846798152E+01  0.51100000000E-03 0.  1.
         12    1    3    3    0    0 -0.32249478489E+02  0.27749267200E+02  0.85883786584E+01  0.43402890928E+02  0.00000000000E+00 0. -1.
</event>
<event>
 7    1  0.2941727E-013  0.7246155E+02  0.7816164E-02  0.1226708E+00
        -11   -1    0    0    0    0  0.00000000000E+00  0.00000000000E+00  0.45593999997E+02  0.45594000000E+02  0.51100000000E-03 0. -1.
         11   -1    0    0    0    0 -0.00000000000E+00 -0.00000000000E+00 -0.45593999997E+02  0.45594000000E+02  0.51100000000E-03 0.  1.
    9900012    2    1    2    0    0 -0.17713186478E+02 -0.56144324189E+01  0.23240025971E+01  0.72461553069E+02  0.69999977561E+02 0.  0.
         12    1    1    2    0    0  0.17713186478E+02  0.56144324189E+01 -0.23240025971E+01  0.18726446931E+02  0.00000000000E+00 0. -1.
         11    1    3    3    0    0  0.11026606128E+02 -0.48830217512E+01  0.11527049860E+02  0.16682410583E+02  0.51100000000E-03 0. -1.
        -11    1    3    3    0    0 -0.16296711536E+02 -0.56129431717E+01  0.18337435583E+02  0.25166435623E+02  0.51100000000E-03 0.  1.
         12    1    3    3    0    0 -0.12443081070E+02  0.48815325040E+01 -0.27540482846E+02  0.30612706863E+02  0.00000000000E+00 0. -1.
</event>
<event>
 7    1  0.2941727E-013  0.7246156E+02  0.7816164E-02  0.1226708E+00
        -11   -1    0    0    0    0  0.00000000000E+00  0.00000000000E+00  0.45593999997E+02  0.45594000000E+02  0.51100000000E-03 0.  1.
         11   -1    0    0    0    0 -0.00000000000E+00 -0.00000000000E+00 -0.45593999997E+02  0.45594000000E+02  0.51100000000E-03 0. -1.
    9900012    2    1    2    0    0  0.13094501221E+02 -0.13219948688E+02  0.21086419877E+01  0.72461564766E+02  0.69999992798E+02 0.  0.
         12    1    1    2    0    0 -0.13094501221E+02  0.13219948688E+02 -0.21086419877E+01  0.18726435234E+02  0.00000000000E+00 0. -1.
         11    1    3    3    0    0  0.40073786625E+01 -0.27657194942E+01  0.45704349027E+01  0.66781107752E+01  0.51100000000E-03 0. -1.
        -11    1    3    3    0    0 -0.18207211119E+02  0.17768947688E+02  0.47053545514E+01  0.25872348181E+02  0.51100000000E-03 0.  1.
         12    1    3    3    0    0  0.27294333677E+02 -0.28223176882E+02 -0.71671474663E+01  0.39911105810E+02  0.00000000000E+00 0. -1.
</event>
<event>
 7    1  0.2941727E-013  0.7246151E+02  0.7816164E-02  0.1226708E+00
        -11   -1    0    0    0    0  0.00000000000E+00  0.00000000000E+00  0.45593999997E+02  0.45594000000E+02  0.51100000000E-03 0. -1.
         11   -1    0    0    0    0 -0.00000000000E+00 -0.00000000000E+00 -0.45593999997E+02  0.45594000000E+02  0.51100000000E-03 0.  1.
    9900012    2    1    2    0    0 -0.30439337389E+01 -0.16716209240E+02 -0.78729962251E+01  0.72461514651E+02  0.69999927514E+02 0.  0.
         12    1    1    2    0    0  0.30439337389E+01  0.16716209240E+02  0.78729962251E+01  0.18726485349E+02  0.00000000000E+00 0. -1.
         11    1    3    3    0    0  0.36525407531E+01  0.53863523854E+01  0.15514442995E+02  0.16824143000E+02  0.51100000000E-03 0. -1.
        -11    1    3    3    0    0  0.52016232051E-01  0.81997610431E+01  0.80245202872E+01  0.11473086462E+02  0.51100000000E-03 0.  1.
         12    1    3    3    0    0 -0.67484907240E+01 -0.30302322669E+02 -0.31411959508E+02  0.44164285189E+02  0.00000000000E+00 0. -1.
</event>
<event>
 7    1  0.2941727E-013  0.7246155E+02  0.7816164E-02  0.1226708E+00
        -11   -1    0    0    0    0  0.00000000000E+00  0.00000000000E+00  0.45593999997E+02  0.45594000000E+02  0.51100000000E-03 0. -1.
         11   -1    0    0    0    0 -0.00000000000E+00 -0.00000000000E+00 -0.45593999997E+02  0.45594000000E+02  0.51100000000E-03 0.  1.
    9900012    2    1    2    0    0  0.62591031895E+00  0.12645043542E+01 -0.18673223894E+02  0.72461547437E+02  0.69999970224E+02 0.  0.
         12    1    1    2    0    0 -0.62591031895E+00 -0.12645043542E+01  0.18673223894E+02  0.18726452563E+02  0.00000000000E+00 0. -1.
         11    1    3    3    0    0  0.37426626889E+01 -0.46079224218E+01  0.38178614340E+00  0.59486329495E+01  0.51100000000E-03 0. -1.
        -11    1    3    3    0    0  0.99622716042E+00 -0.23871801868E+02  0.88909822280E+01  0.25493233577E+02  0.51100000000E-03 0.  1.
        -12    1    3    3    0    0 -0.41129795303E+01  0.29744228644E+02 -0.27945992266E+02  0.41019680910E+02  0.00000000000E+00 0.  1.
</event>
<event>
 7    1  0.2941727E-013  0.7246157E+02  0.7816164E-02  0.1226708E+00
        -11   -1    0    0    0    0  0.00000000000E+00  0.00000000000E+00  0.45593999997E+02  0.45594000000E+02  0.51100000000E-03 0. -1.
         11   -1    0    0    0    0 -0.00000000000E+00 -0.00000000000E+00 -0.45593999997E+02  0.45594000000E+02  0.51100000000E-03 0.  1.
    9900012    2    1    2    0    0 -0.64055205844E+01 -0.17568327066E+02  0.10012022778E+01  0.72461569057E+02  0.69999998389E+02 0.  0.
         12    1    1    2    0    0  0.64055205844E+01  0.17568327066E+02 -0.10012022778E+01  0.18726430943E+02  0.00000000000E+00 0. -1.
         11    1    3    3    0    0  0.12179255043E+02  0.20102691412E+02  0.76392807353E+01  0.24714592164E+02  0.51100000000E-03 0. -1.
        -11    1    3    3    0    0  0.46316675464E+01 -0.29024998773E+01 -0.45471739622E+00  0.54848535049E+01  0.51100000000E-03 0.  1.
        -12    1    3    3    0    0 -0.23216443174E+02 -0.34768518601E+02 -0.61833610613E+01  0.42262123389E+02  0.00000000000E+00 0.  1.
</event>
<event>
 7    1  0.2941727E-013  0.7246163E+02  0.7816164E-02  0.1226708E+00
        -11   -1    0    0    0    0  0.00000000000E+00  0.00000000000E+00  0.45593999997E+02  0.45594000000E+02  0.51100000000E-03 0. -1.
         11   -1    0    0    0    0 -0.00000000000E+00 -0.00000000000E+00 -0.45593999997E+02  0.45594000000E+02  0.51100000000E-03 0.  1.
    9900012    2    1    2    0    0  0.74840579803E+01  0.10774291027E+02  0.13363398791E+02  0.72461630938E+02  0.70000079000E+02 0.  0.
         12    1    1    2    0    0 -0.74840579803E+01 -0.10774291027E+02 -0.13363398791E+02  0.18726369062E+02  0.00000000000E+00 0. -1.
         11    1    3    3    0    0  0.61528859691E+01 -0.17155161967E+01  0.11712236025E+02  0.13340819860E+02  0.51100000000E-03 0. -1.
        -11    1    3    3    0    0  0.60751973540E+01 -0.67389541967E+01  0.26114244040E+02  0.27645528908E+02  0.51100000000E-03 0.  1.
        -12    1    3    3    0    0 -0.47440253427E+01  0.19228761421E+02 -0.24463081275E+02  0.31475282170E+02  0.00000000000E+00 0.  1.
</event>
<event>
 7    1  0.2941727E-013  0.7246159E+02  0.7816164E-02  0.1226708E+00
        -11   -1    0    0    0    0  0.00000000000E+00  0.00000000000E+00  0.45593999997E+02  0.45594000000E+02  0.51100000000E-03 0.  1.
         11   -1    0    0    0    0 -0.00000000000E+00 -0.00000000000E+00 -0.45593999997E+02  0.45594000000E+02  0.51100000000E-03 0. -1.
    9900012    2    1    2    0    0 -0.53268057734E+01  0.14433377675E+02  0.10676205079E+02  0.72461585347E+02  0.70000019609E+02 0.  0.
         12    1    1    2    0    0  0.53268057734E+01 -0.14433377675E+02 -0.10676205079E+02  0.18726414653E+02  0.00000000000E+00 0. -1.
         11    1    3    3    0    0 -0.12746708152E+02 -0.11295667527E+02 -0.84314091729E+01  0.19004192551E+02  0.51100000000E-03 0. -1.
        -11    1    3    3    0    0 -0.16930870003E+02  0.14617011112E+02  0.40022143264E+01  0.22722875977E+02  0.51100000000E-03 0.  1.
        -12    1    3    3    0    0  0.24350772382E+02  0.11112034090E+02  0.15105399926E+02  0.30734516819E+02  0.00000000000E+00 0.  1.
</event>
<event>
 7    1  0.2941727E-013  0.7246159E+02  0.7816164E-02  0.1226708E+00
        -11   -1    0    0    0    0  0.00000000000E+00  0.00000000000E+00  0.45593999997E+02  0.45594000000E+02  0.51100000000E-03 0. -1.
         11   -1    0    0    0    0 -0.00000000000E+00 -0.00000000000E+00 -0.45593999997E+02  0.45594000000E+02  0.51100000000E-03 0.  1.
    9900012    2    1    2    0    0 -0.18338726375E+02  0.35097021079E+01 -0.14322714764E+01  0.72461593630E+02  0.70000030399E+02 0.  0.
         12    1    1    2    0    0  0.18338726375E+02 -0.35097021079E+01  0.14322714764E+01  0.18726406370E+02  0.00000000000E+00 0. -1.
         11    1    3    3    0    0  0.47585978400E+01 -0.49351587766E+00  0.22849222969E+01  0.53017621117E+01  0.51100000000E-03 0. -1.
        -11    1    3    3    0    0 -0.41003643966E+01  0.32239668747E+02 -0.60108428753E+01  0.33050559169E+02  0.51100000000E-03 0.  1.
         12    1    3    3    0    0 -0.18996959819E+02 -0.28236450761E+02  0.22936491019E+01  0.34109272349E+02  0.00000000000E+00 0. -1.
</event>
<event>
 7    1  0.2941727E-013  0.7246137E+02  0.7816164E-02  0.1226709E+00
        -11   -1    0    0    0    0  0.00000000000E+00  0.00000000000E+00  0.45593999997E+02  0.45594000000E+02  0.51100000000E-03 0. -1.
         11   -1    0    0    0    0 -0.00000000000E+00 -0.00000000000E+00 -0.45593999997E+02  0.45594000000E+02  0.51100000000E-03 0.  1.
    9900012    2    1    2    0    0  0.12626237060E+02 -0.11433642470E+02  0.77805219071E+01  0.72461372873E+02  0.69999742821E+02 0.  0.
         12    1    1    2    0    0 -0.12626237060E+02  0.11433642470E+02 -0.77805219071E+01  0.18726627127E+02  0.00000000000E+00 0. -1.
         11    1    3    3    0    0 -0.15817794966E+01  0.63385554505E+01  0.15182614494E+02  0.16528493419E+02  0.51100000000E-03 0. -1.
        -11    1    3    3    0    0  0.67541334472E+01  0.15398547835E+02  0.79858231632E+01  0.18614697578E+02  0.51100000000E-03 0.  1.
         12    1    3    3    0    0  0.74538831094E+01 -0.33170745756E+02 -0.15387915750E+02  0.37318181876E+02  0.00000000000E+00 0. -1.
</event>
<event>
 7    1  0.2941727E-013  0.7246158E+02  0.7816164E-02  0.1226708E+00
        -11   -1    0    0    0    0  0.00000000000E+00  0.00000000000E+00  0.45593999997E+02  0.45594000000E+02  0.51100000000E-03 0. -1.
         11   -1    0    0    0    0 -0.00000000000E+00 -0.00000000000E+00 -0.45593999997E+02  0.45594000000E+02  0.51100000000E-03 0.  1.
    9900012    2    1    2    0    0  0.16978435237E+01  0.15628464075E+02 -0.10175814580E+02  0.72461581113E+02  0.70000014094E+02 0.  0.
         12    1    1    2    0    0 -0.16978435237E+01 -0.15628464075E+02  0.10175814580E+02  0.18726418887E+02  0.00000000000E+00 0. -1.
         11    1    3    3    0    0 -0.77299508420E+01  0.84524302940E+01  0.11819581341E+02  0.16458986033E+02  0.51100000000E-03 0.  1.
        -11    1    3    3    0    0  0.36711358014E+01  0.24113632537E+02  0.37234093327E+01  0.24674040802E+02  0.51100000000E-03 0. -1.
        -12    1    3    3    0    0  0.57566585642E+01 -0.16937598756E+02 -0.25718805254E+02  0.31328554278E+02  0.00000000000E+00 0.  1.
</event>
<event>
 7    1  0.2941727E-013  0.7246156E+02  0.7816164E-02  0.1226708E+00
        -11   -1    0    0    0    0  0.00000000000E+00  0.00000000000E+00  0.45593999997E+02  0.45594000000E+02  0.51100000000E-03 0.  1.
         11   -1    0    0    0    0 -0.00000000000E+00 -0.00000000000E+00 -0.45593999997E+02  0.45594000000E+02  0.51100000000E-03 0. -1.
    9900012    2    1    2    0    0 -0.23515866845E+01  0.18031840668E+02 -0.44723959757E+01  0.72461559773E+02  0.69999986295E+02 0.  0.
         12    1    1    2    0    0  0.23515866845E+01 -0.18031840668E+02  0.44723959757E+01  0.18726440227E+02  0.00000000000E+00 0. -1.
         11    1    3    3    0    0 -0.12120395704E+01  0.24766733806E+02 -0.26426581937E+02  0.36238437831E+02  0.51100000000E-03 0. -1.
        -11    1    3    3    0    0 -0.97086146704E+01  0.63009820479E+00 -0.18224139028E+01  0.98982531419E+01  0.51100000000E-03 0.  1.
        -12    1    3    3    0    0  0.85690675563E+01 -0.73649913431E+01  0.23776599864E+02  0.26324868800E+02  0.00000000000E+00 0.  1.
</event>
<event>
 7    1  0.2941727E-013  0.7246154E+02  0.7816164E-02  0.1226708E+00
        -11   -1    0    0    0    0  0.00000000000E+00  0.00000000000E+00  0.45593999997E+02  0.45594000000E+02  0.51100000000E-03 0. -1.
         11   -1    0    0    0    0 -0.00000000000E+00 -0.00000000000E+00 -0.45593999997E+02  0.45594000000E+02  0.51100000000E-03 0.  1.
    9900012    2    1    2    0    0 -0.15193010008E+02 -0.94017240588E+01 -0.56089676363E+01  0.72461535135E+02  0.69999954199E+02 0.  0.
         12    1    1    2    0    0  0.15193010008E+02  0.94017240588E+01  0.56089676363E+01  0.18726464865E+02  0.00000000000E+00 0. -1.
         11    1    3    3    0    0 -0.11927790381E+02 -0.11266290913E+02  0.34074695418E+01  0.16757456347E+02  0.51100000000E-03 0. -1.
        -11    1    3    3    0    0 -0.24320263544E+02  0.42708937572E+01 -0.20053846657E+02  0.31809943702E+02  0.51100000000E-03 0.  1.
         12    1    3    3    0    0  0.21055043916E+02 -0.24063269031E+01  0.11037409479E+02  0.23894135085E+02  0.00000000000E+00 0. -1.
</event>
<event>
 7    1  0.2941727E-013  0.7246124E+02  0.7816164E-02  0.1226709E+00
        -11   -1    0    0    0    0  0.00000000000E+00  0.00000000000E+00  0.45593999997E+02  0.45594000000E+02  0.51100000000E-03 0.  1.
         11   -1    0    0    0    0 -0.00000000000E+00 -0.00000000000E+00 -0.45593999997E+02  0.45594000000E+02  0.51100000000E-03 0. -1.
    9900012    2    1    2    0    0  0.14091272869E+02 -0.12170040985E+02 -0.20044339126E+01  0.72461237762E+02  0.69999566813E+02 0.  0.
         12    1    1    2    0    0 -0.14091272869E+02  0.12170040985E+02  0.20044339126E+01  0.18726762238E+02  0.00000000000E+00 0. -1.
         11    1    3    3    0    0 -0.70688695697E+01  0.92961570298E-01 -0.17916330155E+02  0.19260644988E+02  0.51100000000E-03 0. -1.
        -11    1    3    3    0    0 -0.12333114600E+02 -0.76549901416E+01 -0.24598804884E+01  0.14722622120E+02  0.51100000000E-03 0.  1.
        -12    1    3    3    0    0  0.33493257038E+02 -0.46080124134E+01  0.18371776731E+02  0.38477970654E+02  0.00000000000E+00 0.  1.
</event>
<event>
 7    1  0.2941727E-013  0.7246189E+02  0.7816164E-02  0.1226707E+00
        -11   -1    0    0    0    0  0.00000000000E+00  0.00000000000E+00  0.45593999997E+02  0.45594000000E+02  0.51100000000E-03 0. -1.
         11   -1    0    0    0    0 -0.00000000000E+00 -0.00000000000E+00 -0.45593999997E+02  0.45594000000E+02  0.51100000000E-03 0.  1.
    9900012    2    1    2    0    0 -0.15673197495E+02  0.91734790551E+01 -0.45678413961E+01  0.72461894886E+02  0.70000422840E+02 0.  0.
         12    1    1    2    0    0  0.15673197495E+02 -0.91734790551E+01  0.45678413961E+01  0.18726105114E+02  0.00000000000E+00 0. -1.
         11    1    3    3    0    0 -0.94012062492E+01 -0.19154019936E+02  0.12025970880E+02  0.24492511805E+02  0.51100000000E-03 0. -1.
        -11    1    3    3    0    0  0.12979190105E+02  0.65791399746E+01 -0.66576691602E-01  0.14551594116E+02  0.51100000000E-03 0.  1.
        -12    1    3    3    0    0 -0.19251181351E+02  0.21748359016E+02 -0.16527235584E+02  0.33417788966E+02  0.00000000000E+00 0.  1.
</event>
<event>
 7    1  0.2941727E-013  0.7246158E+02  0.7816164E-02  0.1226708E+00
        -11   -1    0    0    0    0  0.00000000000E+00  0.00000000000E+00  0.45593999997E+02  0.45594000000E+02  0.51100000000E-03 0.  1.
         11   -1    0    0    0    0 -0.00000000000E+00 -0.00000000000E+00 -0.45593999997E+02  0.45594000000E+02  0.51100000000E-03 0. -1.
    9900012    2    1    2    0    0 -0.97670868694E+01 -0.87565380992E+00  0.15953562881E+02  0.72461576847E+02  0.70000008536E+02 0.  0.
         12    1    1    2    0    0  0.97670868694E+01  0.87565380992E+00 -0.15953562881E+02  0.18726423153E+02  0.00000000000E+00 0. -1.
         11    1    3    3    0    0 -0.12804903922E+02  0.74528752427E+01 -0.49622790868E+01  0.15624824089E+02  0.51100000000E-03 0. -1.
        -11    1    3    3    0    0 -0.92905995133E+01 -0.24725886470E+02 -0.14925410556E+01  0.26455857198E+02  0.51100000000E-03 0.  1.
         12    1    3    3    0    0  0.12328416566E+02  0.16397357417E+02  0.22408383023E+02  0.30380895560E+02  0.00000000000E+00 0. -1.
</event>
<event>
 7    1  0.2941727E-013  0.7246155E+02  0.7816164E-02  0.1226708E+00
        -11   -1    0    0    0    0  0.00000000000E+00  0.00000000000E+00  0.45593999997E+02  0.45594000000E+02  0.51100000000E-03 0.  1.
         11   -1    0    0    0    0 -0.00000000000E+00 -0.00000000000E+00 -0.45593999997E+02  0.45594000000E+02  0.51100000000E-03 0. -1.
    9900012    2    1    2    0    0 -0.18205711092E+02 -0.15753934281E+00  0.43825931435E+01  0.72461551921E+02  0.69999976065E+02 0.  0.
         12    1    1    2    0    0  0.18205711092E+02  0.15753934281E+00 -0.43825931435E+01  0.18726448079E+02  0.00000000000E+00 0. -1.
         11    1    3    3    0    0  0.13443806838E+02 -0.15691136992E+02  0.89566955806E+01  0.22520437792E+02  0.51100000000E-03 0. -1.
        -11    1    3    3    0    0  0.59431762052E+01 -0.69674942884E+00  0.51053807127E+01  0.78658575918E+01  0.51100000000E-03 0.  1.
        -12    1    3    3    0    0 -0.37592694135E+02  0.16230347078E+02 -0.96794831497E+01  0.42075256536E+02  0.00000000000E+00 0.  1.
</event>
<event>
 7    1  0.2941727E-013  0.7246155E+02  0.7816164E-02  0.1226708E+00
        -11   -1    0    0    0    0  0.00000000000E+00  0.00000000000E+00  0.45593999997E+02  0.45594000000E+02  0.51100000000E-03 0.  1.
         11   -1    0    0    0    0 -0.00000000000E+00 -0.00000000000E+00 -0.45593999997E+02  0.45594000000E+02  0.51100000000E-03 0. -1.
    9900012    2    1    2    0    0 -0.10281234431E+02 -0.15383589927E+02  0.28847001162E+01  0.72461545044E+02  0.69999967107E+02 0.  0.
         12    1    1    2    0    0  0.10281234431E+02  0.15383589927E+02 -0.28847001162E+01  0.18726454956E+02  0.00000000000E+00 0. -1.
         11    1    3    3    0    0  0.93496465810E+01 -0.52535707450E+00  0.10588601109E+02  0.14135429422E+02  0.51100000000E-03 0.  1.
        -11    1    3    3    0    0  0.96427418076E+01  0.54628697574E+01  0.13023598212E+02  0.17100863317E+02  0.51100000000E-03 0. -1.
        -12    1    3    3    0    0 -0.29273622819E+02 -0.20321102610E+02 -0.20727499205E+02  0.41225252304E+02  0.00000000000E+00 0.  1.
</event>
<event>
 7    1  0.2941727E-013  0.7246156E+02  0.7816164E-02  0.1226708E+00
        -11   -1    0    0    0    0  0.00000000000E+00  0.00000000000E+00  0.45593999997E+02  0.45594000000E+02  0.51100000000E-03 0. -1.
         11   -1    0    0    0    0 -0.00000000000E+00 -0.00000000000E+00 -0.45593999997E+02  0.45594000000E+02  0.51100000000E-03 0.  1.
    9900012    2    1    2    0    0 -0.55037764674E+01  0.25108064671E+01 -0.17722411416E+02  0.72461559577E+02  0.69999986038E+02 0.  0.
         12    1    1    2    0    0  0.55037764674E+01 -0.25108064671E+01  0.17722411416E+02  0.18726440423E+02  0.00000000000E+00 0. -1.
         11    1    3    3    0    0 -0.61683224292E+01  0.11318457782E+02 -0.56707071388E+00  0.12902606621E+02  0.51100000000E-03 0. -1.
        -11    1    3    3    0    0 -0.24630200496E+02  0.79287106328E+01 -0.28724285348E+01  0.26033863999E+02  0.51100000000E-03 0.  1.
         12    1    3    3    0    0  0.25294746458E+02 -0.16736361948E+02 -0.14282912168E+02  0.33525088957E+02  0.00000000000E+00 0. -1.
</event>
<event>
 7    1  0.2941727E-013  0.7246143E+02  0.7816164E-02  0.1226708E+00
        -11   -1    0    0    0    0  0.00000000000E+00  0.00000000000E+00  0.45593999997E+02  0.45594000000E+02  0.51100000000E-03 0.  1.
         11   -1    0    0    0    0 -0.00000000000E+00 -0.00000000000E+00 -0.45593999997E+02  0.45594000000E+02  0.51100000000E-03 0. -1.
    9900012    2    1    2    0    0 -0.15361799348E+02 -0.96115852932E+01 -0.47240783722E+01  0.72461431507E+02  0.69999819204E+02 0.  0.
         12    1    1    2    0    0  0.15361799348E+02  0.96115852932E+01  0.47240783722E+01  0.18726568493E+02  0.00000000000E+00 0. -1.
         11    1    3    3    0    0 -0.59128632287E+01 -0.15608724957E+02  0.85062482213E+01  0.18733673036E+02  0.51100000000E-03 0. -1.
        -11    1    3    3    0    0 -0.76171487295E+00 -0.20084655277E+02  0.50378891210E+01  0.20720856985E+02  0.51100000000E-03 0.  1.
         12    1    3    3    0    0 -0.86872212459E+01  0.26081794941E+02 -0.18268215715E+02  0.33006901486E+02  0.00000000000E+00 0. -1.
</event>
<event>
 7    1  0.2941727E-013  0.7246153E+02  0.7816164E-02  0.1226708E+00
        -11   -1    0    0    0    0  0.00000000000E+00  0.00000000000E+00  0.45593999997E+02  0.45594000000E+02  0.51100000000E-03 0.  1.
         11   -1    0    0    0    0 -0.00000000000E+00 -0.00000000000E+00 -0.45593999997E+02  0.45594000000E+02  0.51100000000E-03 0. -1.
    9900012    2    1    2    0    0 -0.11172803835E+02  0.14752233281E+02 -0.28671524717E+01  0.72461534888E+02  0.69999953876E+02 0.  0.
         12    1    1    2    0    0  0.11172803835E+02 -0.14752233281E+02  0.28671524717E+01  0.18726465112E+02  0.00000000000E+00 0. -1.
         11    1    3    3    0    0  0.12645550199E+00  0.25893694221E+01  0.90730812097E+01  0.94361871483E+01  0.51100000000E-03 0. -1.
        -11    1    3    3    0    0  0.29105411799E+01  0.36960247086E+01  0.23472849836E+02  0.23939643446E+02  0.51100000000E-03 0.  1.
         12    1    3    3    0    0 -0.14209800517E+02  0.84668391503E+01 -0.35413083518E+02  0.39085704294E+02  0.00000000000E+00 0. -1.
</event>
<event>
 7    1  0.2941727E-013  0.7246152E+02  0.7816164E-02  0.1226708E+00
        -11   -1    0    0    0    0  0.00000000000E+00  0.00000000000E+00  0.45593999997E+02  0.45594000000E+02  0.51100000000E-03 0. -1.
         11   -1    0    0    0    0 -0.00000000000E+00 -0.00000000000E+00 -0.45593999997E+02  0.45594000000E+02  0.51100000000E-03 0.  1.
    9900012    2    1    2    0    0  0.71523798096E+01 -0.17060675319E+02  0.29082233120E+01  0.72461522966E+02  0.69999938346E+02 0.  0.
         12    1    1    2    0    0 -0.71523798096E+01  0.17060675319E+02 -0.29082233120E+01  0.18726477034E+02  0.00000000000E+00 0. -1.
         11    1    3    3    0    0  0.45420644360E+01  0.14588781895E+02  0.27286867721E+00  0.15281929332E+02  0.51100000000E-03 0. -1.
        -11    1    3    3    0    0  0.48184041479E+01 -0.20236349657E+02  0.24668062246E+02  0.32268253148E+02  0.51100000000E-03 0.  1.
        -12    1    3    3    0    0 -0.22080887743E+01 -0.11413107557E+02 -0.22032707611E+02  0.24911340486E+02  0.00000000000E+00 0.  1.
</event>
<event>
 7    1  0.2941727E-013  0.7246160E+02  0.7816164E-02  0.1226708E+00
        -11   -1    0    0    0    0  0.00000000000E+00  0.00000000000E+00  0.45593999997E+02  0.45594000000E+02  0.51100000000E-03 0.  1.
         11   -1    0    0    0    0 -0.00000000000E+00 -0.00000000000E+00 -0.45593999997E+02  0.45594000000E+02  0.51100000000E-03 0. -1.
    9900012    2    1    2    0    0 -0.17592435194E+02  0.19600571664E+01  0.61108412960E+01  0.72461602015E+02  0.70000041322E+02 0.  0.
         12    1    1    2    0    0  0.17592435194E+02 -0.19600571664E+01 -0.61108412960E+01  0.18726397985E+02  0.00000000000E+00 0. -1.
         11    1    3    3    0    0 -0.14580001811E+02 -0.15158889182E+02 -0.67583550255E+01  0.22091711952E+02  0.51100000000E-03 0. -1.
        -11    1    3    3    0    0 -0.32707726672E+01 -0.15453391746E+02  0.14888732763E+01  0.15865749721E+02  0.51100000000E-03 0.  1.
         12    1    3    3    0    0  0.25833928426E+00  0.32572338095E+02  0.11380323045E+02  0.34504140343E+02  0.00000000000E+00 0. -1.
</event>
<event>
 7    1  0.2941727E-013  0.7246165E+02  0.7816164E-02  0.1226708E+00
        -11   -1    0    0    0    0  0.00000000000E+00  0.00000000000E+00  0.45593999997E+02  0.45594000000E+02  0.51100000000E-03 0.  1.
         11   -1    0    0    0    0 -0.00000000000E+00 -0.00000000000E+00 -0.45593999997E+02  0.45594000000E+02  0.51100000000E-03 0. -1.
    9900012    2    1    2    0    0  0.11578841257E+02 -0.44257127363E+01  0.14036366297E+02  0.72461652868E+02  0.70000107568E+02 0.  0.
         12    1    1    2    0    0 -0.11578841257E+02  0.44257127363E+01 -0.14036366297E+02  0.18726347132E+02  0.00000000000E+00 0. -1.
         11    1    3    3    0    0  0.21312946437E+02 -0.20476658791E+02  0.89189885661E+01  0.30872052060E+02  0.51100000000E-03 0. -1.
        -11    1    3    3    0    0  0.11783231514E+02 -0.29965247397E+01  0.41135535744E+01  0.12835303997E+02  0.51100000000E-03 0.  1.
         12    1    3    3    0    0 -0.21517336695E+02  0.19047470795E+02  0.10038241569E+01  0.28754296810E+02  0.00000000000E+00 0. -1.
</event>
<event>
 7    1  0.2941727E-013  0.7246160E+02  0.7816164E-02  0.1226708E+00
        -11   -1    0    0    0    0  0.00000000000E+00  0.00000000000E+00  0.45593999997E+02  0.45594000000E+02  0.51100000000E-03 0.  1.
         11   -1    0    0    0    0 -0.00000000000E+00 -0.00000000000E+00 -0.45593999997E+02  0.45594000000E+02  0.51100000000E-03 0. -1.
    9900012    2    1    2    0    0 -0.90697926695E+01 -0.42663919132E+01  0.15818185485E+02  0.72461595352E+02  0.70000032642E+02 0.  0.
         12    1    1    2    0    0  0.90697926695E+01  0.42663919132E+01 -0.15818185485E+02  0.18726404648E+02  0.00000000000E+00 0. -1.
         11    1    3    3    0    0  0.34007418511E+01 -0.48638980425E+01  0.84557194189E+00  0.59947928634E+01  0.51100000000E-03 0. -1.
        -11    1    3    3    0    0  0.22207611225E+02  0.73448795945E+01  0.20008869788E+02  0.30781165069E+02  0.51100000000E-03 0.  1.
         12    1    3    3    0    0 -0.34678145745E+02 -0.67473734652E+01 -0.50362562452E+01  0.35685637419E+02  0.00000000000E+00 0. -1.
</event>
<event>
 7    1  0.2941727E-013  0.7246158E+02  0.7816164E-02  0.1226708E+00
        -11   -1    0    0    0    0  0.00000000000E+00  0.00000000000E+00  0.45593999997E+02  0.45594000000E+02  0.51100000000E-03 0. -1.
         11   -1    0    0    0    0 -0.00000000000E+00 -0.00000000000E+00 -0.45593999997E+02  0.45594000000E+02  0.51100000000E-03 0.  1.
    9900012    2    1    2    0    0 -0.89627530487E+01  0.92345249245E+01  0.13604092690E+02  0.72461582010E+02  0.70000015262E+02 0.  0.
         12    1    1    2    0    0  0.89627530487E+01 -0.92345249245E+01 -0.13604092690E+02  0.18726417990E+02  0.00000000000E+00 0. -1.
         11    1    3    3    0    0 -0.51081133787E+01  0.29794552158E+02  0.14178473390E+02  0.33389178914E+02  0.51100000000E-03 0. -1.
        -11    1    3    3    0    0  0.12344628804E+02  0.46496543513E+00 -0.18944830515E+01  0.12497804585E+02  0.51100000000E-03 0.  1.
         12    1    3    3    0    0 -0.16199268474E+02 -0.21024992669E+02  0.13201023522E+01  0.26574598511E+02  0.00000000000E+00 0. -1.
</event>
<event>
 7    1  0.2941727E-013  0.7246157E+02  0.7816164E-02  0.1226708E+00
        -11   -1    0    0    0    0  0.00000000000E+00  0.00000000000E+00  0.45593999997E+02  0.45594000000E+02  0.51100000000E-03 0. -1.
         11   -1    0    0    0    0 -0.00000000000E+00 -0.00000000000E+00 -0.45593999997E+02  0.45594000000E+02  0.51100000000E-03 0.  1.
    9900012    2    1    2    0    0 -0.12692774275E+02 -0.12848713657E+02 -0.49480607090E+01  0.72461567713E+02  0.69999996637E+02 0.  0.
         12    1    1    2    0    0  0.12692774275E+02  0.12848713657E+02  0.49480607090E+01  0.18726432287E+02  0.00000000000E+00 0. -1.
         11    1    3    3    0    0  0.57679624094E+01 -0.15103175129E+02 -0.16844607254E+02  0.23347721155E+02  0.51100000000E-03 0. -1.
        -11    1    3    3    0    0 -0.13294642496E+02 -0.33858791353E+00 -0.15896625662E+02  0.20725946748E+02  0.51100000000E-03 0.  1.
         12    1    3    3    0    0 -0.51660941879E+01  0.25930493852E+01  0.27793172207E+02  0.28387899810E+02  0.00000000000E+00 0. -1.
</event>
<event>
 7    1  0.2941727E-013  0.7246160E+02  0.7816164E-02  0.1226708E+00
        -11   -1    0    0    0    0  0.00000000000E+00  0.00000000000E+00  0.45593999997E+02  0.45594000000E+02  0.51100000000E-03 0.  1.
         11   -1    0    0    0    0 -0.00000000000E+00 -0.00000000000E+00 -0.45593999997E+02  0.45594000000E+02  0.51100000000E-03 0. -1.
    9900012    2    1    2    0    0  0.11024105274E+02  0.11993536145E+02  0.92359195987E+01  0.72461601062E+02  0.70000040081E+02 0.  0.
         12    1    1    2    0    0 -0.11024105274E+02 -0.11993536145E+02 -0.92359195987E+01  0.18726398938E+02  0.00000000000E+00 0. -1.
         11    1    3    3    0    0 -0.23052477013E+02  0.12317671479E+02 -0.90241130809E+01  0.27650973658E+02  0.51100000000E-03 0. -1.
        -11    1    3    3    0    0 -0.20924368385E+01 -0.30734913087E+01 -0.84587840397E+00  0.38131550301E+01  0.51100000000E-03 0.  1.
        -12    1    3    3    0    0  0.36169019125E+02  0.27493559746E+01  0.19105911084E+02  0.40997472374E+02  0.00000000000E+00 0.  1.
</event>
<event>
 7    1  0.2941727E-013  0.7246156E+02  0.7816164E-02  0.1226708E+00
        -11   -1    0    0    0    0  0.00000000000E+00  0.00000000000E+00  0.45593999997E+02  0.45594000000E+02  0.51100000000E-03 0.  1.
         11   -1    0    0    0    0 -0.00000000000E+00 -0.00000000000E+00 -0.45593999997E+02  0.45594000000E+02  0.51100000000E-03 0. -1.
    9900012    2    1    2    0    0 -0.16635224436E+02 -0.18988642352E+01  0.83870890448E+01  0.72461557731E+02  0.69999983634E+02 0.  0.
         12    1    1    2    0    0  0.16635224436E+02  0.18988642352E+01 -0.83870890448E+01  0.18726442269E+02  0.00000000000E+00 0. -1.
         11    1    3    3    0    0  0.23482792501E+02 -0.13705153094E+02  0.57920146090E+01  0.27799643855E+02  0.51100000000E-03 0. -1.
        -11    1    3    3    0    0 -0.14003240944E+02 -0.33386305431E+01  0.63310901987E+00  0.14409650868E+02  0.51100000000E-03 0.  1.
        -12    1    3    3    0    0 -0.26114775992E+02  0.15144919402E+02  0.19619654159E+01  0.30252263008E+02  0.00000000000E+00 0.  1.
</event>
<event>
 7    1  0.2941727E-013  0.7246149E+02  0.7816164E-02  0.1226708E+00
        -11   -1    0    0    0    0  0.00000000000E+00  0.00000000000E+00  0.45593999997E+02  0.45594000000E+02  0.51100000000E-03 0.  1.
         11   -1    0    0    0    0 -0.00000000000E+00 -0.00000000000E+00 -0.45593999997E+02  0.45594000000E+02  0.51100000000E-03 0. -1.
    9900012    2    1    2    0    0  0.62772700779E+01  0.25484489669E+01  0.17458050397E+02  0.72461488434E+02  0.69999893362E+02 0.  0.
         12    1    1    2    0    0 -0.62772700779E+01 -0.25484489669E+01 -0.17458050397E+02  0.18726511566E+02  0.00000000000E+00 0. -1.
         11    1    3    3    0    0  0.13944114390E+02 -0.73661465721E+01  0.64202587961E+01  0.17026983430E+02  0.51100000000E-03 0. -1.
        -11    1    3    3    0    0 -0.13944248135E+02 -0.16878411529E+02  0.16455050783E+02  0.27387798896E+02  0.51100000000E-03 0.  1.
        -12    1    3    3    0    0  0.62774038231E+01  0.26793007068E+02 -0.54172591828E+01  0.28046706109E+02  0.00000000000E+00 0.  1.
</event>
<event>
 7    1  0.2941727E-013  0.7246150E+02  0.7816164E-02  0.1226708E+00
        -11   -1    0    0    0    0  0.00000000000E+00  0.00000000000E+00  0.45593999997E+02  0.45594000000E+02  0.51100000000E-03 0. -1.
         11   -1    0    0    0    0 -0.00000000000E+00 -0.00000000000E+00 -0.45593999997E+02  0.45594000000E+02  0.51100000000E-03 0.  1.
    9900012    2    1    2    0    0 -0.10384589101E+02 -0.15480772882E+02  0.17854400664E+01  0.72461499632E+02  0.69999907949E+02 0.  0.
         12    1    1    2    0    0  0.10384589101E+02  0.15480772882E+02 -0.17854400664E+01  0.18726500368E+02  0.00000000000E+00 0. -1.
         11    1    3    3    0    0 -0.39073843653E+01 -0.27855710022E+01 -0.13735108649E+02  0.14549236002E+02  0.51100000000E-03 0.  1.
        -11    1    3    3    0    0 -0.80096238307E+00 -0.18336847006E+02  0.33518722944E+02  0.38215000811E+02  0.51100000000E-03 0. -1.
         12    1    3    3    0    0 -0.56762423526E+01  0.56416451268E+01 -0.17998174229E+02  0.19697262819E+02  0.00000000000E+00 0. -1.
</event>
<event>
 7    1  0.2941727E-013  0.7246155E+02  0.7816164E-02  0.1226708E+00
        -11   -1    0    0    0    0  0.00000000000E+00  0.00000000000E+00  0.45593999997E+02  0.45594000000E+02  0.51100000000E-03 0.  1.
         11   -1    0    0    0    0 -0.00000000000E+00 -0.00000000000E+00 -0.45593999997E+02  0.45594000000E+02  0.51100000000E-03 0. -1.
    9900012    2    1    2    0    0 -0.11710331939E+02  0.14571088872E+02  0.11097496825E+01  0.72461546802E+02  0.69999969396E+02 0.  0.
         12    1    1    2    0    0  0.11710331939E+02 -0.14571088872E+02 -0.11097496825E+01  0.18726453198E+02  0.00000000000E+00 0. -1.
         11    1    3    3    0    0 -0.43913195499E+01  0.61399749683E+01 -0.71613792464E+01  0.10405207012E+02  0.51100000000E-03 0. -1.
        -11    1    3    3    0    0  0.70160915892E+01 -0.14267626869E+02 -0.18328674350E+02  0.24263780030E+02  0.51100000000E-03 0.  1.
        -12    1    3    3    0    0 -0.14335103978E+02  0.22698740772E+02  0.26599803279E+02  0.37792559760E+02  0.00000000000E+00 0.  1.
</event>
<event>
 7    1  0.2941727E-013  0.7246158E+02  0.7816164E-02  0.1226708E+00
        -11   -1    0    0    0    0  0.00000000000E+00  0.00000000000E+00  0.45593999997E+02  0.45594000000E+02  0.51100000000E-03 0. -1.
         11   -1    0    0    0    0 -0.00000000000E+00 -0.00000000000E+00 -0.45593999997E+02  0.45594000000E+02  0.51100000000E-03 0.  1.
    9900012    2    1    2    0    0 -0.18408803845E+01  0.12456828166E+02 -0.13860640727E+02  0.72461580964E+02  0.70000013899E+02 0.  0.
         12    1    1    2    0    0  0.18408803845E+01 -0.12456828166E+02  0.13860640727E+02  0.18726419036E+02  0.00000000000E+00 0. -1.
         11    1    3    3    0    0 -0.13924454564E+02  0.34441840983E+01  0.25571871458E+01  0.14570245206E+02  0.51100000000E-03 0. -1.
        -11    1    3    3    0    0 -0.50463303905E+01  0.14142443479E+02  0.15326984636E+02  0.21456714946E+02  0.51100000000E-03 0.  1.
         12    1    3    3    0    0  0.17129904570E+02 -0.51297994112E+01 -0.31744812508E+02  0.36434620812E+02  0.00000000000E+00 0. -1.
</event>
<event>
 7    1  0.2941727E-013  0.7246158E+02  0.7816164E-02  0.1226708E+00
        -11   -1    0    0    0    0  0.00000000000E+00  0.00000000000E+00  0.45593999997E+02  0.45594000000E+02  0.51100000000E-03 0.  1.
         11   -1    0    0    0    0 -0.00000000000E+00 -0.00000000000E+00 -0.45593999997E+02  0.45594000000E+02  0.51100000000E-03 0. -1.
    9900012    2    1    2    0    0  0.24894374994E+01  0.11000940057E+02  0.14948608273E+02  0.72461578278E+02  0.70000010400E+02 0.  0.
         12    1    1    2    0    0 -0.24894374994E+01 -0.11000940057E+02 -0.14948608273E+02  0.18726421722E+02  0.00000000000E+00 0. -1.
         11    1    3    3    0    0  0.65957224909E+01  0.11175136655E+02 -0.43936538593E+01  0.13700052151E+02  0.51100000000E-03 0. -1.
        -11    1    3    3    0    0  0.19071889794E+02  0.13992581672E+02 -0.26607939215E+01  0.23803553237E+02  0.51100000000E-03 0.  1.
        -12    1    3    3    0    0 -0.23178174785E+02 -0.14166778269E+02  0.22003056054E+02  0.34957972891E+02  0.00000000000E+00 0.  1.
</event>
<event>
 7    1  0.2941727E-013  0.7246156E+02  0.7816164E-02  0.1226708E+00
        -11   -1    0    0    0    0  0.00000000000E+00  0.00000000000E+00  0.45593999997E+02  0.45594000000E+02  0.51100000000E-03 0. -1.
         11   -1    0    0    0    0 -0.00000000000E+00 -0.00000000000E+00 -0.45593999997E+02  0.45594000000E+02  0.51100000000E-03 0.  1.
    9900012    2    1    2    0    0 -0.10270995614E+02  0.11251767385E+02 -0.10889629516E+02  0.72461557434E+02  0.69999983247E+02 0.  0.
         12    1    1    2    0    0  0.10270995614E+02 -0.11251767385E+02  0.10889629516E+02  0.18726442566E+02  0.00000000000E+00 0. -1.
         11    1    3    3    0    0 -0.19268993345E+02  0.19711117255E+02  0.13334913649E+02  0.30620943328E+02  0.51100000000E-03 0. -1.
        -11    1    3    3    0    0 -0.50790533208E+01 -0.80345477569E+01 -0.25964855890E+02  0.27650035840E+02  0.51100000000E-03 0.  1.
        -12    1    3    3    0    0  0.14077051052E+02 -0.42480211361E+00  0.17403127252E+01  0.14190578266E+02  0.00000000000E+00 0.  1.
</event>
<event>
 7    1  0.2941727E-013  0.7246165E+02  0.7816164E-02  0.1226708E+00
        -11   -1    0    0    0    0  0.00000000000E+00  0.00000000000E+00  0.45593999997E+02  0.45594000000E+02  0.51100000000E-03 0.  1.
         11   -1    0    0    0    0 -0.00000000000E+00 -0.00000000000E+00 -0.45593999997E+02  0.45594000000E+02  0.51100000000E-03 0. -1.
    9900012    2    1    2    0    0  0.13133933470E+02 -0.13052932761E+02 -0.27923150262E+01  0.72461647305E+02  0.70000100320E+02 0.  0.
         12    1    1    2    0    0 -0.13133933470E+02  0.13052932761E+02  0.27923150262E+01  0.18726352695E+02  0.00000000000E+00 0. -1.
         11    1    3    3    0    0  0.16474555758E+02  0.52088305957E+01 -0.14635151767E+02  0.22643554736E+02  0.51100000000E-03 0. -1.
        -11    1    3    3    0    0  0.27638868557E+01  0.13822372983E+02  0.96542561875E+01  0.17085131789E+02  0.51100000000E-03 0.  1.
        -12    1    3    3    0    0 -0.61045091436E+01 -0.32084136340E+02  0.21885805530E+01  0.32732960780E+02  0.00000000000E+00 0.  1.
</event>
<event>
 7    1  0.2980137E-013  0.7246154E+02  0.7816164E-02  0.1226708E+00
        -11   -1    0    0    0    0  0.00000000000E+00  0.00000000000E+00  0.45593999997E+02  0.45594000000E+02  0.51100000000E-03 0.  1.
         11   -1    0    0    0    0 -0.00000000000E+00 -0.00000000000E+00 -0.45593999997E+02  0.45594000000E+02  0.51100000000E-03 0. -1.
    9900012    2    1    2    0    0  0.74530344668E+01 -0.72556185656E+01  0.15572041991E+02  0.72461542372E+02  0.69999963626E+02 0.  0.
         12    1    1    2    0    0 -0.74530344668E+01  0.72556185656E+01 -0.15572041991E+02  0.18726457628E+02  0.00000000000E+00 0. -1.
         11    1    3    3    0    0 -0.98226351078E+01 -0.61309825215E+00 -0.19227998965E+02  0.21600370237E+02  0.51100000000E-03 0. -1.
        -11    1    3    3    0    0  0.22382039522E+02 -0.22630437070E+01  0.90523374226E+01  0.24249162316E+02  0.51100000000E-03 0.  1.
        -12    1    3    3    0    0 -0.51063699471E+01 -0.43794766065E+01  0.25747703533E+02  0.26612009819E+02  0.00000000000E+00 0.  1.
</event>
<event>
 7    1  0.2941727E-013  0.7246160E+02  0.7816164E-02  0.1226708E+00
        -11   -1    0    0    0    0  0.00000000000E+00  0.00000000000E+00  0.45593999997E+02  0.45594000000E+02  0.51100000000E-03 0.  1.
         11   -1    0    0    0    0 -0.00000000000E+00 -0.00000000000E+00 -0.45593999997E+02  0.45594000000E+02  0.51100000000E-03 0. -1.
    9900012    2    1    2    0    0 -0.93053728953E+01  0.15343020062E+02 -0.53553722022E+01  0.72461595092E+02  0.70000032304E+02 0.  0.
         12    1    1    2    0    0  0.93053728953E+01 -0.15343020062E+02  0.53553722022E+01  0.18726404908E+02  0.00000000000E+00 0. -1.
         11    1    3    3    0    0  0.14308918812E+02  0.12832395865E+01  0.24179530296E+02  0.28125460831E+02  0.51100000000E-03 0. -1.
        -11    1    3    3    0    0 -0.58188134665E+01 -0.42460501519E+01 -0.40530688645E+01  0.82652827860E+01  0.51100000000E-03 0.  1.
        -12    1    3    3    0    0 -0.17795478241E+02  0.18305830628E+02 -0.25481833633E+02  0.36070851475E+02  0.00000000000E+00 0.  1.
</event>
<event>
 7    1  0.2941727E-013  0.7246162E+02  0.7816164E-02  0.1226708E+00
        -11   -1    0    0    0    0  0.00000000000E+00  0.00000000000E+00  0.45593999997E+02  0.45594000000E+02  0.51100000000E-03 0.  1.
         11   -1    0    0    0    0 -0.00000000000E+00 -0.00000000000E+00 -0.45593999997E+02  0.45594000000E+02  0.51100000000E-03 0. -1.
    9900012    2    1    2    0    0 -0.16851810293E+02 -0.38932627357E+01  0.71788787519E+01  0.72461620077E+02  0.70000064851E+02 0.  0.
         12    1    1    2    0    0  0.16851810293E+02  0.38932627357E+01 -0.71788787519E+01  0.18726379923E+02  0.00000000000E+00 0. -1.
         11    1    3    3    0    0 -0.23384434506E+02 -0.40052009769E+01 -0.11055086480E+02  0.26174192430E+02  0.51100000000E-03 0. -1.
        -11    1    3    3    0    0 -0.49624569188E+01 -0.95574122260E+01  0.26879162599E+02  0.28956164963E+02  0.51100000000E-03 0.  1.
         12    1    3    3    0    0  0.11495081132E+02  0.96693504672E+01 -0.86451973666E+01  0.17331262683E+02  0.00000000000E+00 0. -1.
</event>
<event>
 7    1  0.2941727E-013  0.7246158E+02  0.7816164E-02  0.1226708E+00
        -11   -1    0    0    0    0  0.00000000000E+00  0.00000000000E+00  0.45593999997E+02  0.45594000000E+02  0.51100000000E-03 0.  1.
         11   -1    0    0    0    0 -0.00000000000E+00 -0.00000000000E+00 -0.45593999997E+02  0.45594000000E+02  0.51100000000E-03 0. -1.
    9900012    2    1    2    0    0 -0.14058378336E+02  0.62999199014E+00 -0.12354915577E+02  0.72461579353E+02  0.70000011801E+02 0.  0.
         12    1    1    2    0    0  0.14058378336E+02 -0.62999199014E+00  0.12354915577E+02  0.18726420647E+02  0.00000000000E+00 0. -1.
         11    1    3    3    0    0 -0.31418354281E+01  0.13436427795E+02 -0.19792358404E+02  0.24127705510E+02  0.51100000000E-03 0. -1.
        -11    1    3    3    0    0  0.36186669439E+01 -0.82497563778E+01 -0.17171998651E+02  0.19391512800E+02  0.51100000000E-03 0.  1.
        -12    1    3    3    0    0 -0.14535209851E+02 -0.45566794266E+01  0.24609441478E+02  0.28942361042E+02  0.00000000000E+00 0.  1.
</event>
<event>
 7    1  0.2941727E-013  0.7246154E+02  0.7816164E-02  0.1226708E+00
        -11   -1    0    0    0    0  0.00000000000E+00  0.00000000000E+00  0.45593999997E+02  0.45594000000E+02  0.51100000000E-03 0. -1.
         11   -1    0    0    0    0 -0.00000000000E+00 -0.00000000000E+00 -0.45593999997E+02  0.45594000000E+02  0.51100000000E-03 0.  1.
    9900012    2    1    2    0    0  0.13629054464E+02  0.93790453544E+01 -0.87728436583E+01  0.72461537355E+02  0.69999957090E+02 0.  0.
         12    1    1    2    0    0 -0.13629054464E+02 -0.93790453544E+01  0.87728436583E+01  0.18726462645E+02  0.00000000000E+00 0. -1.
         11    1    3    3    0    0  0.22603348412E+02  0.79923925063E+01  0.11531349243E+02  0.26603791328E+02  0.51100000000E-03 0. -1.
        -11    1    3    3    0    0  0.85682054054E+01  0.15962993359E+02 -0.67974313889E+01  0.19350358513E+02  0.51100000000E-03 0.  1.
         12    1    3    3    0    0 -0.17542499353E+02 -0.14576340511E+02 -0.13506761512E+02  0.26507387514E+02  0.00000000000E+00 0. -1.
</event>
<event>
 7    1  0.2941727E-013  0.7246159E+02  0.7816164E-02  0.1226708E+00
        -11   -1    0    0    0    0  0.00000000000E+00  0.00000000000E+00  0.45593999997E+02  0.45594000000E+02  0.51100000000E-03 0.  1.
         11   -1    0    0    0    0 -0.00000000000E+00 -0.00000000000E+00 -0.45593999997E+02  0.45594000000E+02  0.51100000000E-03 0. -1.
    9900012    2    1    2    0    0  0.11977004861E+02  0.14349981175E+02  0.11435397753E+01  0.72461593821E+02  0.70000030648E+02 0.  0.
         12    1    1    2    0    0 -0.11977004861E+02 -0.14349981175E+02 -0.11435397753E+01  0.18726406179E+02  0.00000000000E+00 0. -1.
         11    1    3    3    0    0 -0.32957641616E+01 -0.32763510198E+01  0.49993608355E+01  0.68256975056E+01  0.51100000000E-03 0. -1.
        -11    1    3    3    0    0 -0.15680906258E+02 -0.62949313260E+01  0.14646287854E+02  0.22361366900E+02  0.51100000000E-03 0.  1.
         12    1    3    3    0    0  0.30953675281E+02  0.23921263521E+02 -0.18502108914E+02  0.43274529415E+02  0.00000000000E+00 0. -1.
</event>
<event>
 7    1  0.2941727E-013  0.7246157E+02  0.7816164E-02  0.1226708E+00
        -11   -1    0    0    0    0  0.00000000000E+00  0.00000000000E+00  0.45593999997E+02  0.45594000000E+02  0.51100000000E-03 0.  1.
         11   -1    0    0    0    0 -0.00000000000E+00 -0.00000000000E+00 -0.45593999997E+02  0.45594000000E+02  0.51100000000E-03 0. -1.
    9900012    2    1    2    0    0 -0.63988809522E+00  0.85719881509E+01  0.16637034896E+02  0.72461565001E+02  0.69999993104E+02 0.  0.
         12    1    1    2    0    0  0.63988809522E+00 -0.85719881509E+01 -0.16637034896E+02  0.18726434999E+02  0.00000000000E+00 0. -1.
         11    1    3    3    0    0  0.35146955878E+00  0.86436899879E+01  0.46271895873E+01  0.98105958634E+01  0.51100000000E-03 0. -1.
        -11    1    3    3    0    0  0.16918865408E+02  0.23896585620E+02  0.14411118903E+02  0.32633957150E+02  0.51100000000E-03 0.  1.
         12    1    3    3    0    0 -0.17910223062E+02 -0.23968287457E+02 -0.24012735939E+01  0.30017011987E+02  0.00000000000E+00 0. -1.
</event>
<event>
 7    1  0.2941727E-013  0.7246156E+02  0.7816164E-02  0.1226708E+00
        -11   -1    0    0    0    0  0.00000000000E+00  0.00000000000E+00  0.45593999997E+02  0.45594000000E+02  0.51100000000E-03 0.  1.
         11   -1    0    0    0    0 -0.00000000000E+00 -0.00000000000E+00 -0.45593999997E+02  0.45594000000E+02  0.51100000000E-03 0. -1.
    9900012    2    1    2    0    0 -0.12310418840E+01  0.27874079835E+01  0.18476867227E+02  0.72461555331E+02  0.69999980508E+02 0.  0.
         12    1    1    2    0    0  0.12310418840E+01 -0.27874079835E+01 -0.18476867227E+02  0.18726444669E+02  0.00000000000E+00 0. -1.
         11    1    3    3    0    0  0.48784323414E+01 -0.15643464882E+02  0.14069767510E+02  0.21598042821E+02  0.51100000000E-03 0.  1.
        -11    1    3    3    0    0 -0.15303781568E+02  0.36124806754E+01  0.21372402305E+02  0.26533664042E+02  0.51100000000E-03 0. -1.
        -12    1    3    3    0    0  0.91943073428E+01  0.14818392190E+02 -0.16965302588E+02  0.24329848469E+02  0.00000000000E+00 0.  1.
</event>
<event>
 7    1  0.2941727E-013  0.7246156E+02  0.7816164E-02  0.1226708E+00
        -11   -1    0    0    0    0  0.00000000000E+00  0.00000000000E+00  0.45593999997E+02  0.45594000000E+02  0.51100000000E-03 0.  1.
         11   -1    0    0    0    0 -0.00000000000E+00 -0.00000000000E+00 -0.45593999997E+02  0.45594000000E+02  0.51100000000E-03 0. -1.
    9900012    2    1    2    0    0 -0.18807787707E+01 -0.17392565824E+02 -0.66813744807E+01  0.72461563081E+02  0.69999990603E+02 0.  0.
         12    1    1    2    0    0  0.18807787707E+01  0.17392565824E+02  0.66813744807E+01  0.18726436919E+02  0.00000000000E+00 0. -1.
         11    1    3    3    0    0 -0.72298259542E+01  0.10022054847E+01 -0.12572219349E+02  0.14537382804E+02  0.51100000000E-03 0. -1.
        -11    1    3    3    0    0  0.77546078969E+01  0.40274011190E+01 -0.21049574855E+02  0.22791193590E+02  0.51100000000E-03 0.  1.
        -12    1    3    3    0    0 -0.24055607135E+01 -0.22422172428E+02  0.26940419723E+02  0.35132986688E+02  0.00000000000E+00 0.  1.
</event>
<event>
 7    1  0.2941727E-013  0.7246156E+02  0.7816164E-02  0.1226708E+00
        -11   -1    0    0    0    0  0.00000000000E+00  0.00000000000E+00  0.45593999997E+02  0.45594000000E+02  0.51100000000E-03 0. -1.
         11   -1    0    0    0    0 -0.00000000000E+00 -0.00000000000E+00 -0.45593999997E+02  0.45594000000E+02  0.51100000000E-03 0.  1.
    9900012    2    1    2    0    0 -0.26891492419E+01 -0.11607302754E+02 -0.14447092713E+02  0.72461561771E+02  0.69999988897E+02 0.  0.
         12    1    1    2    0    0  0.26891492419E+01  0.11607302754E+02  0.14447092713E+02  0.18726438229E+02  0.00000000000E+00 0. -1.
         11    1    3    3    0    0  0.19969032008E+02  0.39659692009E+01  0.23543420245E+01  0.20494732925E+02  0.51100000000E-03 0. -1.
        -11    1    3    3    0    0  0.83834907077E+01  0.16515360915E+01  0.53885874794E+01  0.10101849494E+02  0.51100000000E-03 0.  1.
        -12    1    3    3    0    0 -0.31041671958E+02 -0.17224808046E+02 -0.22190022217E+02  0.41864979352E+02  0.00000000000E+00 0.  1.
</event>
<event>
 7    1  0.2941727E-013  0.7246146E+02  0.7816164E-02  0.1226708E+00
        -11   -1    0    0    0    0  0.00000000000E+00  0.00000000000E+00  0.45593999997E+02  0.45594000000E+02  0.51100000000E-03 0. -1.
         11   -1    0    0    0    0 -0.00000000000E+00 -0.00000000000E+00 -0.45593999997E+02  0.45594000000E+02  0.51100000000E-03 0.  1.
    9900012    2    1    2    0    0 -0.35636487921E-01  0.18539867992E+02  0.26372810204E+01  0.72461461978E+02  0.69999858898E+02 0.  0.
         12    1    1    2    0    0  0.35636487921E-01 -0.18539867992E+02 -0.26372810204E+01  0.18726538022E+02  0.00000000000E+00 0. -1.
         11    1    3    3    0    0  0.35786356630E+01 -0.66807411112E+01 -0.76835629411E+01  0.10792408199E+02  0.51100000000E-03 0. -1.
        -11    1    3    3    0    0  0.70096212891E+01 -0.64200002116E+01 -0.16372107092E+02  0.18931378297E+02  0.51100000000E-03 0.  1.
         12    1    3    3    0    0 -0.10623893440E+02  0.31640609314E+02  0.26692951054E+02  0.42737675482E+02  0.00000000000E+00 0. -1.
</event>
<event>
 7    1  0.2941727E-013  0.7246170E+02  0.7816164E-02  0.1226708E+00
        -11   -1    0    0    0    0  0.00000000000E+00  0.00000000000E+00  0.45593999997E+02  0.45594000000E+02  0.51100000000E-03 0.  1.
         11   -1    0    0    0    0 -0.00000000000E+00 -0.00000000000E+00 -0.45593999997E+02  0.45594000000E+02  0.51100000000E-03 0. -1.
    9900012    2    1    2    0    0  0.89445983383E+01 -0.13134846401E+02 -0.99067793627E+01  0.72461700132E+02  0.70000169137E+02 0.  0.
         12    1    1    2    0    0 -0.89445983383E+01  0.13134846401E+02  0.99067793627E+01  0.18726299868E+02  0.00000000000E+00 0. -1.
         11    1    3    3    0    0 -0.20542065809E+02 -0.29749277107E+01 -0.36580757296E+01  0.21076246840E+02  0.51100000000E-03 0. -1.
        -11    1    3    3    0    0 -0.87568113195E+01  0.28516404834E+00  0.51143261161E+01  0.10144919660E+02  0.51100000000E-03 0.  1.
        -12    1    3    3    0    0  0.38243475466E+02 -0.10445082739E+02 -0.11363029749E+02  0.41240533632E+02  0.00000000000E+00 0.  1.
</event>
<event>
 7    1  0.2941727E-013  0.7246147E+02  0.7816164E-02  0.1226708E+00
        -11   -1    0    0    0    0  0.00000000000E+00  0.00000000000E+00  0.45593999997E+02  0.45594000000E+02  0.51100000000E-03 0. -1.
         11   -1    0    0    0    0 -0.00000000000E+00 -0.00000000000E+00 -0.45593999997E+02  0.45594000000E+02  0.51100000000E-03 0.  1.
    9900012    2    1    2    0    0 -0.18006498490E+02  0.26738282629E+00 -0.51358813478E+01  0.72461474464E+02  0.69999875163E+02 0.  0.
         12    1    1    2    0    0  0.18006498490E+02 -0.26738282629E+00  0.51358813478E+01  0.18726525536E+02  0.00000000000E+00 0. -1.
         11    1    3    3    0    0 -0.18552868279E+02 -0.22129938287E+01 -0.15515875974E+02  0.24286800336E+02  0.51100000000E-03 0. -1.
        -11    1    3    3    0    0 -0.99500594630E+01 -0.48221922775E+00 -0.16439576120E+02  0.19222275671E+02  0.51100000000E-03 0.  1.
         12    1    3    3    0    0  0.10496429252E+02  0.29625958827E+01  0.26819570746E+02  0.28952398457E+02  0.00000000000E+00 0. -1.
</event>
<event>
 7    1  0.2941727E-013  0.7246124E+02  0.7816164E-02  0.1226709E+00
        -11   -1    0    0    0    0  0.00000000000E+00  0.00000000000E+00  0.45593999997E+02  0.45594000000E+02  0.51100000000E-03 0. -1.
         11   -1    0    0    0    0 -0.00000000000E+00 -0.00000000000E+00 -0.45593999997E+02  0.45594000000E+02  0.51100000000E-03 0.  1.
    9900012    2    1    2    0    0 -0.44836810925E+01  0.12090757023E+02 -0.13579463697E+02  0.72461237444E+02  0.69999566399E+02 0.  0.
         12    1    1    2    0    0  0.44836810925E+01 -0.12090757023E+02  0.13579463697E+02  0.18726762556E+02  0.00000000000E+00 0. -1.
         11    1    3    3    0    0  0.64546727683E+01 -0.20428148231E+01  0.84421361576E+01  0.10821532059E+02  0.51100000000E-03 0. -1.
        -11    1    3    3    0    0 -0.58784967677E+01 -0.19921775559E+02 -0.15325077081E-02  0.20770986214E+02  0.51100000000E-03 0.  1.
        -12    1    3    3    0    0 -0.50598570931E+01  0.34055347406E+02 -0.22020067347E+02  0.40868719171E+02  0.00000000000E+00 0.  1.
</event>
<event>
 7    1  0.2941727E-013  0.7246156E+02  0.7816164E-02  0.1226708E+00
        -11   -1    0    0    0    0  0.00000000000E+00  0.00000000000E+00  0.45593999997E+02  0.45594000000E+02  0.51100000000E-03 0. -1.
         11   -1    0    0    0    0 -0.00000000000E+00 -0.00000000000E+00 -0.45593999997E+02  0.45594000000E+02  0.51100000000E-03 0.  1.
    9900012    2    1    2    0    0  0.12754949821E+00  0.15637617783E+02 -0.10301850162E+02  0.72461562122E+02  0.69999989355E+02 0.  0.
         12    1    1    2    0    0 -0.12754949821E+00 -0.15637617783E+02  0.10301850162E+02  0.18726437878E+02  0.00000000000E+00 0. -1.
         11    1    3    3    0    0  0.17583834039E+02  0.16766043121E+02  0.18394600254E+02  0.30473804164E+02  0.51100000000E-03 0. -1.
        -11    1    3    3    0    0  0.65030244724E+01  0.32062098189E+00 -0.78247138822E+01  0.10179306101E+02  0.51100000000E-03 0.  1.
        -12    1    3    3    0    0 -0.23959309013E+02 -0.14490463191E+01 -0.20871736534E+02  0.31808451858E+02  0.00000000000E+00 0.  1.
</event>
<event>
 7    1  0.2941727E-013  0.7246158E+02  0.7816164E-02  0.1226708E+00
        -11   -1    0    0    0    0  0.00000000000E+00  0.00000000000E+00  0.45593999997E+02  0.45594000000E+02  0.51100000000E-03 0.  1.
         11   -1    0    0    0    0 -0.00000000000E+00 -0.00000000000E+00 -0.45593999997E+02  0.45594000000E+02  0.51100000000E-03 0. -1.
    9900012    2    1    2    0    0  0.18356908685E+01  0.80840305433E+01  0.16791594182E+02  0.72461576263E+02  0.70000007775E+02 0.  0.
         12    1    1    2    0    0 -0.18356908685E+01 -0.80840305433E+01 -0.16791594182E+02  0.18726423737E+02  0.00000000000E+00 0. -1.
         11    1    3    3    0    0  0.69907906485E+01 -0.78911318575E+01  0.67273277372E+01  0.12505920783E+02  0.51100000000E-03 0.  1.
        -11    1    3    3    0    0 -0.28327380716E+02  0.19818726259E+02  0.11469225150E+02  0.36424792855E+02  0.51100000000E-03 0. -1.
         12    1    3    3    0    0  0.23172280936E+02 -0.38435638583E+01 -0.14049587049E+01  0.23530862625E+02  0.00000000000E+00 0. -1.
</event>
<event>
 7    1  0.2941727E-013  0.7246156E+02  0.7816164E-02  0.1226708E+00
        -11   -1    0    0    0    0  0.00000000000E+00  0.00000000000E+00  0.45593999997E+02  0.45594000000E+02  0.51100000000E-03 0.  1.
         11   -1    0    0    0    0 -0.00000000000E+00 -0.00000000000E+00 -0.45593999997E+02  0.45594000000E+02  0.51100000000E-03 0. -1.
    9900012    2    1    2    0    0 -0.12089480298E+02 -0.13275624944E+02  0.53180746293E+01  0.72461556950E+02  0.69999982616E+02 0.  0.
         12    1    1    2    0    0  0.12089480298E+02  0.13275624944E+02 -0.53180746293E+01  0.18726443050E+02  0.00000000000E+00 0. -1.
         11    1    3    3    0    0  0.61803401951E+01 -0.26571905200E+01  0.61832150134E+01  0.91372542128E+01  0.51100000000E-03 0. -1.
        -11    1    3    3    0    0  0.11643882589E+02  0.73291593021E+01  0.18785997745E+02  0.23285409366E+02  0.51100000000E-03 0.  1.
         12    1    3    3    0    0 -0.29913703082E+02 -0.17947593727E+02 -0.19651138129E+02  0.40038893371E+02  0.00000000000E+00 0. -1.
</event>
<event>
 7    1  0.2941727E-013  0.7246153E+02  0.7816164E-02  0.1226708E+00
        -11   -1    0    0    0    0  0.00000000000E+00  0.00000000000E+00  0.45593999997E+02  0.45594000000E+02  0.51100000000E-03 0. -1.
         11   -1    0    0    0    0 -0.00000000000E+00 -0.00000000000E+00 -0.45593999997E+02  0.45594000000E+02  0.51100000000E-03 0.  1.
    9900012    2    1    2    0    0 -0.14131361723E+02  0.88796380036E+01  0.84933703440E+01  0.72461529564E+02  0.69999946941E+02 0.  0.
         12    1    1    2    0    0  0.14131361723E+02 -0.88796380036E+01 -0.84933703440E+01  0.18726470436E+02  0.00000000000E+00 0. -1.
         11    1    3    3    0    0  0.12870156208E+02  0.17580684305E+01  0.67438720318E+01  0.14635967193E+02  0.51100000000E-03 0. -1.
        -11    1    3    3    0    0 -0.71283890911E+01 -0.10232605315E+02  0.21508992559E+02  0.24862761386E+02  0.51100000000E-03 0.  1.
        -12    1    3    3    0    0 -0.19873128839E+02  0.17354174888E+02 -0.19759494247E+02  0.32962800985E+02  0.00000000000E+00 0.  1.
</event>
<event>
 7    1  0.2941727E-013  0.7246156E+02  0.7816164E-02  0.1226708E+00
        -11   -1    0    0    0    0  0.00000000000E+00  0.00000000000E+00  0.45593999997E+02  0.45594000000E+02  0.51100000000E-03 0.  1.
         11   -1    0    0    0    0 -0.00000000000E+00 -0.00000000000E+00 -0.45593999997E+02  0.45594000000E+02  0.51100000000E-03 0. -1.
    9900012    2    1    2    0    0 -0.38339504907E+01  0.17410558621E+01  0.18246890354E+02  0.72461562553E+02  0.69999989915E+02 0.  0.
         12    1    1    2    0    0  0.38339504907E+01 -0.17410558621E+01 -0.18246890354E+02  0.18726437447E+02  0.00000000000E+00 0. -1.
         11    1    3    3    0    0  0.13829393889E+02 -0.47002859158E+01 -0.42952106305E+01  0.15224771185E+02  0.51100000000E-03 0. -1.
        -11    1    3    3    0    0 -0.70278647025E+00  0.19759514350E+02  0.28662378170E+02  0.34820457188E+02  0.51100000000E-03 0.  1.
         12    1    3    3    0    0 -0.16960557909E+02 -0.13318172572E+02 -0.61202771854E+01  0.22416334180E+02  0.00000000000E+00 0. -1.
</event>
<event>
 7    1  0.2941727E-013  0.7246159E+02  0.7816164E-02  0.1226708E+00
        -11   -1    0    0    0    0  0.00000000000E+00  0.00000000000E+00  0.45593999997E+02  0.45594000000E+02  0.51100000000E-03 0. -1.
         11   -1    0    0    0    0 -0.00000000000E+00 -0.00000000000E+00 -0.45593999997E+02  0.45594000000E+02  0.51100000000E-03 0.  1.
    9900012    2    1    2    0    0  0.61934800966E+00 -0.11664172144E+02 -0.14637004749E+02  0.72461590527E+02  0.70000026356E+02 0.  0.
         12    1    1    2    0    0 -0.61934800966E+00  0.11664172144E+02  0.14637004749E+02  0.18726409473E+02  0.00000000000E+00 0. -1.
         11    1    3    3    0    0  0.40063962840E+01 -0.13259709486E+02 -0.42430751487E+01  0.14487056079E+02  0.51100000000E-03 0. -1.
        -11    1    3    3    0    0  0.10423257980E+02 -0.24953228438E+02 -0.63326734891E+01  0.27774280732E+02  0.51100000000E-03 0.  1.
         12    1    3    3    0    0 -0.13810306254E+02  0.26548765781E+02 -0.40612561109E+01  0.30200253716E+02  0.00000000000E+00 0. -1.
</event>
<event>
 7    1  0.2941727E-013  0.7246154E+02  0.7816164E-02  0.1226708E+00
        -11   -1    0    0    0    0  0.00000000000E+00  0.00000000000E+00  0.45593999997E+02  0.45594000000E+02  0.51100000000E-03 0. -1.
         11   -1    0    0    0    0 -0.00000000000E+00 -0.00000000000E+00 -0.45593999997E+02  0.45594000000E+02  0.51100000000E-03 0.  1.
    9900012    2    1    2    0    0  0.41512979901E+01  0.45401347750E+00 -0.18254887318E+02  0.72461539731E+02  0.69999960185E+02 0.  0.
         12    1    1    2    0    0 -0.41512979901E+01 -0.45401347750E+00  0.18254887318E+02  0.18726460269E+02  0.00000000000E+00 0. -1.
         11    1    3    3    0    0  0.10722890395E+02  0.37373913132E+01  0.71112350616E+00  0.11377792807E+02  0.51100000000E-03 0. -1.
        -11    1    3    3    0    0  0.10672998452E+02  0.10963619811E+02 -0.31803816057E+02  0.35293010234E+02  0.51100000000E-03 0.  1.
         12    1    3    3    0    0 -0.17244590858E+02 -0.14246997647E+02  0.12837805233E+02  0.25790736690E+02  0.00000000000E+00 0. -1.
</event>
<event>
 7    1  0.2941727E-013  0.7246155E+02  0.7816164E-02  0.1226708E+00
        -11   -1    0    0    0    0  0.00000000000E+00  0.00000000000E+00  0.45593999997E+02  0.45594000000E+02  0.51100000000E-03 0. -1.
         11   -1    0    0    0    0 -0.00000000000E+00 -0.00000000000E+00 -0.45593999997E+02  0.45594000000E+02  0.51100000000E-03 0.  1.
    9900012    2    1    2    0    0  0.11814879874E+02  0.88406320515E+01 -0.11529607213E+02  0.72461548014E+02  0.69999970975E+02 0.  0.
         12    1    1    2    0    0 -0.11814879874E+02 -0.88406320515E+01  0.11529607213E+02  0.18726451986E+02  0.00000000000E+00 0. -1.
         11    1    3    3    0    0 -0.41797952541E+00 -0.21765781333E+02 -0.84884241039E+00  0.21786336948E+02  0.51100000000E-03 0.  1.
        -11    1    3    3    0    0  0.12916146911E+02  0.11357695753E+01  0.85018579754E+01  0.15504786772E+02  0.51100000000E-03 0. -1.
        -12    1    3    3    0    0 -0.68328751166E+00  0.29470643809E+02 -0.19182622778E+02  0.35170424294E+02  0.00000000000E+00 0.  1.
</event>
<event>
 7    1  0.2941727E-013  0.7246162E+02  0.7816164E-02  0.1226708E+00
        -11   -1    0    0    0    0  0.00000000000E+00  0.00000000000E+00  0.45593999997E+02  0.45594000000E+02  0.51100000000E-03 0. -1.
         11   -1    0    0    0    0 -0.00000000000E+00 -0.00000000000E+00 -0.45593999997E+02  0.45594000000E+02  0.51100000000E-03 0.  1.
    9900012    2    1    2    0    0  0.53744602028E+01  0.15751375653E+02  0.85841015046E+01  0.72461616044E+02  0.70000059597E+02 0.  0.
         12    1    1    2    0    0 -0.53744602028E+01 -0.15751375653E+02 -0.85841015046E+01  0.18726383956E+02  0.00000000000E+00 0. -1.
         11    1    3    3    0    0 -0.25402910366E+02  0.18116449431E+02 -0.81203866797E+01  0.32240568778E+02  0.51100000000E-03 0.  1.
        -11    1    3    3    0    0  0.11330630999E+02  0.68819803633E+01  0.49049547202E+00  0.13265950347E+02  0.51100000000E-03 0. -1.
        -12    1    3    3    0    0  0.19446739570E+02 -0.92470541415E+01  0.16213992712E+02  0.26955096919E+02  0.00000000000E+00 0.  1.
</event>
<event>
 7    1  0.2941727E-013  0.7246156E+02  0.7816164E-02  0.1226708E+00
        -11   -1    0    0    0    0  0.00000000000E+00  0.00000000000E+00  0.45593999997E+02  0.45594000000E+02  0.51100000000E-03 0.  1.
         11   -1    0    0    0    0 -0.00000000000E+00 -0.00000000000E+00 -0.45593999997E+02  0.45594000000E+02  0.51100000000E-03 0. -1.
    9900012    2    1    2    0    0  0.14232110220E+02 -0.10966541392E+02 -0.52783945422E+01  0.72461563063E+02  0.69999990580E+02 0.  0.
         12    1    1    2    0    0 -0.14232110220E+02  0.10966541392E+02  0.52783945422E+01  0.18726436937E+02  0.00000000000E+00 0. -1.
         11    1    3    3    0    0 -0.20673066553E+02 -0.58139492416E+01  0.13548564493E+02  0.25391756272E+02  0.51100000000E-03 0. -1.
        -11    1    3    3    0    0 -0.20262687191E+01 -0.18479556157E+01  0.29830188773E+01  0.40520496990E+01  0.51100000000E-03 0.  1.
        -12    1    3    3    0    0  0.36931445492E+02 -0.33046365344E+01 -0.21809977913E+02  0.43017757093E+02  0.00000000000E+00 0.  1.
</event>
<event>
 7    1  0.2941727E-013  0.7246169E+02  0.7816164E-02  0.1226708E+00
        -11   -1    0    0    0    0  0.00000000000E+00  0.00000000000E+00  0.45593999997E+02  0.45594000000E+02  0.51100000000E-03 0.  1.
         11   -1    0    0    0    0 -0.00000000000E+00 -0.00000000000E+00 -0.45593999997E+02  0.45594000000E+02  0.51100000000E-03 0. -1.
    9900012    2    1    2    0    0 -0.57873848663E+01 -0.56054468067E+01  0.16904434845E+02  0.72461687631E+02  0.70000152853E+02 0.  0.
         12    1    1    2    0    0  0.57873848663E+01  0.56054468067E+01 -0.16904434845E+02  0.18726312369E+02  0.00000000000E+00 0. -1.
         11    1    3    3    0    0 -0.16256480999E+02 -0.33150355910E+01 -0.16697034940E+02  0.23538343431E+02  0.51100000000E-03 0. -1.
        -11    1    3    3    0    0 -0.10309470439E+02  0.29801365611E+01  0.22840191136E+01  0.10971925001E+02  0.51100000000E-03 0.  1.
        -12    1    3    3    0    0  0.20778566572E+02 -0.52705477768E+01  0.31317450671E+02  0.37951419199E+02  0.00000000000E+00 0.  1.
</event>
<event>
 7    1  0.2941727E-013  0.7246161E+02  0.7816164E-02  0.1226708E+00
        -11   -1    0    0    0    0  0.00000000000E+00  0.00000000000E+00  0.45593999997E+02  0.45594000000E+02  0.51100000000E-03 0.  1.
         11   -1    0    0    0    0 -0.00000000000E+00 -0.00000000000E+00 -0.45593999997E+02  0.45594000000E+02  0.51100000000E-03 0. -1.
    9900012    2    1    2    0    0 -0.11640878958E+02 -0.74829796950E+01  0.12616365381E+02  0.72461608905E+02  0.70000050297E+02 0.  0.
         12    1    1    2    0    0  0.11640878958E+02  0.74829796950E+01 -0.12616365381E+02  0.18726391095E+02  0.00000000000E+00 0. -1.
         11    1    3    3    0    0 -0.77732655683E+01  0.19091344693E+02 -0.18690257907E+02  0.27824967937E+02  0.51100000000E-03 0. -1.
        -11    1    3    3    0    0 -0.15789258348E+00  0.22917214900E+00 -0.18325343555E+01  0.18535458901E+01  0.51100000000E-03 0.  1.
        -12    1    3    3    0    0 -0.37097208059E+01 -0.26803496537E+02  0.33139157644E+02  0.42783095078E+02  0.00000000000E+00 0.  1.
</event>
<event>
 7    1  0.2941727E-013  0.7246157E+02  0.7816164E-02  0.1226708E+00
        -11   -1    0    0    0    0  0.00000000000E+00  0.00000000000E+00  0.45593999997E+02  0.45594000000E+02  0.51100000000E-03 0.  1.
         11   -1    0    0    0    0 -0.00000000000E+00 -0.00000000000E+00 -0.45593999997E+02  0.45594000000E+02  0.51100000000E-03 0. -1.
    9900012    2    1    2    0    0  0.51904805959E+01 -0.85256837361E+00  0.17972512029E+02  0.72461570808E+02  0.70000000670E+02 0.  0.
         12    1    1    2    0    0 -0.51904805959E+01  0.85256837361E+00 -0.17972512029E+02  0.18726429192E+02  0.00000000000E+00 0. -1.
         11    1    3    3    0    0 -0.21040450218E+01 -0.98475640600E+01 -0.24201635315E+01  0.10356578351E+02  0.51100000000E-03 0. -1.
        -11    1    3    3    0    0 -0.19087745968E+02 -0.82834369802E+01  0.22313426222E+02  0.30509774899E+02  0.51100000000E-03 0.  1.
         12    1    3    3    0    0  0.26382271586E+02  0.17278432667E+02 -0.19207506622E+01  0.31595217558E+02  0.00000000000E+00 0. -1.
</event>
<event>
 7    1  0.2941727E-013  0.7246159E+02  0.7816164E-02  0.1226708E+00
        -11   -1    0    0    0    0  0.00000000000E+00  0.00000000000E+00  0.45593999997E+02  0.45594000000E+02  0.51100000000E-03 0. -1.
         11   -1    0    0    0    0 -0.00000000000E+00 -0.00000000000E+00 -0.45593999997E+02  0.45594000000E+02  0.51100000000E-03 0.  1.
    9900012    2    1    2    0    0  0.38007675546E+00  0.44441813921E+01 -0.18187448300E+02  0.72461588644E+02  0.70000023904E+02 0.  0.
         12    1    1    2    0    0 -0.38007675546E+00 -0.44441813921E+01  0.18187448300E+02  0.18726411356E+02  0.00000000000E+00 0. -1.
         11    1    3    3    0    0 -0.22195279295E+02 -0.15091332274E+02  0.51381179114E+01  0.27327257249E+02  0.51100000000E-03 0. -1.
        -11    1    3    3    0    0  0.11685081680E+02 -0.42158518348E+01 -0.61091789638E+01  0.13843287487E+02  0.51100000000E-03 0.  1.
        -12    1    3    3    0    0  0.10890274370E+02  0.23751365501E+02 -0.17216387248E+02  0.31291043909E+02  0.00000000000E+00 0.  1.
</event>
<event>
 7    1  0.2941727E-013  0.7246157E+02  0.7816164E-02  0.1226708E+00
        -11   -1    0    0    0    0  0.00000000000E+00  0.00000000000E+00  0.45593999997E+02  0.45594000000E+02  0.51100000000E-03 0.  1.
         11   -1    0    0    0    0 -0.00000000000E+00 -0.00000000000E+00 -0.45593999997E+02  0.45594000000E+02  0.51100000000E-03 0. -1.
    9900012    2    1    2    0    0 -0.15249244144E+01  0.10748421829E+02  0.15258610980E+02  0.72461570139E+02  0.69999999798E+02 0.  0.
         12    1    1    2    0    0  0.15249244144E+01 -0.10748421829E+02 -0.15258610980E+02  0.18726429861E+02  0.00000000000E+00 0. -1.
         11    1    3    3    0    0 -0.31967472267E+01  0.25673424838E+02 -0.11234926467E+02  0.28205806294E+02  0.51100000000E-03 0. -1.
        -11    1    3    3    0    0 -0.70197473674E+01  0.80196347324E+01  0.10540343713E+02  0.14989671117E+02  0.51100000000E-03 0.  1.
         12    1    3    3    0    0  0.86915701796E+01 -0.22944637741E+02  0.15953193733E+02  0.29266092728E+02  0.00000000000E+00 0. -1.
</event>
<event>
 7    1  0.2941727E-013  0.7246151E+02  0.7816164E-02  0.1226708E+00
        -11   -1    0    0    0    0  0.00000000000E+00  0.00000000000E+00  0.45593999997E+02  0.45594000000E+02  0.51100000000E-03 0.  1.
         11   -1    0    0    0    0 -0.00000000000E+00 -0.00000000000E+00 -0.45593999997E+02  0.45594000000E+02  0.51100000000E-03 0. -1.
    9900012    2    1    2    0    0 -0.17138111059E+02 -0.58974713076E+01 -0.47102501420E+01  0.72461508741E+02  0.69999919815E+02 0.  0.
         12    1    1    2    0    0  0.17138111059E+02  0.58974713076E+01  0.47102501420E+01  0.18726491259E+02  0.00000000000E+00 0. -1.
         11    1    3    3    0    0 -0.84560371764E+01 -0.19979091538E+02 -0.44179360047E+01  0.22140163103E+02  0.51100000000E-03 0. -1.
        -11    1    3    3    0    0 -0.84951807664E+01  0.15528801278E+02  0.21856200151E+02  0.28124815567E+02  0.51100000000E-03 0.  1.
         12    1    3    3    0    0 -0.18689311575E+00 -0.14471810477E+01 -0.22148514288E+02  0.22196530071E+02  0.00000000000E+00 0. -1.
</event>
<event>
 7    1  0.2941727E-013  0.7246148E+02  0.7816164E-02  0.1226708E+00
        -11   -1    0    0    0    0  0.00000000000E+00  0.00000000000E+00  0.45593999997E+02  0.45594000000E+02  0.51100000000E-03 0.  1.
         11   -1    0    0    0    0 -0.00000000000E+00 -0.00000000000E+00 -0.45593999997E+02  0.45594000000E+02  0.51100000000E-03 0. -1.
    9900012    2    1    2    0    0  0.23503661633E+00  0.96724913647E+01  0.16033414485E+02  0.72461475724E+02  0.69999876804E+02 0.  0.
         12    1    1    2    0    0 -0.23503661633E+00 -0.96724913647E+01 -0.16033414485E+02  0.18726524276E+02  0.00000000000E+00 0. -1.
         11    1    3    3    0    0 -0.70611956482E+01  0.11967919307E+02 -0.16163448313E+01  0.13989429845E+02  0.51100000000E-03 0. -1.
        -11    1    3    3    0    0 -0.13824088214E+02  0.20083634266E+02  0.36040848383E+01  0.24646444126E+02  0.51100000000E-03 0.  1.
        -12    1    3    3    0    0  0.21120320478E+02 -0.22379062208E+02  0.14045674478E+02  0.33825601753E+02  0.00000000000E+00 0.  1.
</event>
<event>
 7    1  0.2941727E-013  0.7246166E+02  0.7816164E-02  0.1226708E+00
        -11   -1    0    0    0    0  0.00000000000E+00  0.00000000000E+00  0.45593999997E+02  0.45594000000E+02  0.51100000000E-03 0.  1.
         11   -1    0    0    0    0 -0.00000000000E+00 -0.00000000000E+00 -0.45593999997E+02  0.45594000000E+02  0.51100000000E-03 0. -1.
    9900012    2    1    2    0    0  0.10506295506E+02  0.50882901954E+01  0.14642499279E+02  0.72461662197E+02  0.70000119720E+02 0.  0.
         12    1    1    2    0    0 -0.10506295506E+02 -0.50882901954E+01 -0.14642499279E+02  0.18726337803E+02  0.00000000000E+00 0. -1.
         11    1    3    3    0    0  0.20422561670E+02  0.42213218980E+01 -0.94007772009E+01  0.22875209201E+02  0.51100000000E-03 0. -1.
        -11    1    3    3    0    0  0.11451213728E+02 -0.56218359095E+01 -0.43370687512E+01  0.13473882159E+02  0.51100000000E-03 0.  1.
        -12    1    3    3    0    0 -0.21367479892E+02  0.64888042069E+01  0.28380345232E+02  0.36112570837E+02  0.00000000000E+00 0.  1.
</event>
<event>
 7    1  0.2941727E-013  0.7246156E+02  0.7816164E-02  0.1226708E+00
        -11   -1    0    0    0    0  0.00000000000E+00  0.00000000000E+00  0.45593999997E+02  0.45594000000E+02  0.51100000000E-03 0.  1.
         11   -1    0    0    0    0 -0.00000000000E+00 -0.00000000000E+00 -0.45593999997E+02  0.45594000000E+02  0.51100000000E-03 0. -1.
    9900012    2    1    2    0    0 -0.17852307424E+02 -0.56533513711E+01  0.11990947273E+00  0.72461557723E+02  0.69999983623E+02 0.  0.
         12    1    1    2    0    0  0.17852307424E+02  0.56533513711E+01 -0.11990947273E+00  0.18726442277E+02  0.00000000000E+00 0. -1.
         11    1    3    3    0    0  0.16737914443E+02 -0.13773599746E+02 -0.89278014050E+01  0.23443026001E+02  0.51100000000E-03 0. -1.
        -11    1    3    3    0    0 -0.29788566450E+01  0.83655478756E+01 -0.89782622840E+01  0.12627952014E+02  0.51100000000E-03 0.  1.
        -12    1    3    3    0    0 -0.31611365222E+02 -0.24529950081E+00  0.18025973162E+02  0.36390579708E+02  0.00000000000E+00 0.  1.
</event>
<event>
 7    1  0.2941727E-013  0.7246175E+02  0.7816164E-02  0.1226708E+00
        -11   -1    0    0    0    0  0.00000000000E+00  0.00000000000E+00  0.45593999997E+02  0.45594000000E+02  0.51100000000E-03 0. -1.
         11   -1    0    0    0    0 -0.00000000000E+00 -0.00000000000E+00 -0.45593999997E+02  0.45594000000E+02  0.51100000000E-03 0.  1.
    9900012    2    1    2    0    0  0.99729950136E+01 -0.35801807831E+01 -0.15440020930E+02  0.72461746496E+02  0.70000229535E+02 0.  0.
         12    1    1    2    0    0 -0.99729950136E+01  0.35801807831E+01  0.15440020930E+02  0.18726253504E+02  0.00000000000E+00 0. -1.
         11    1    3    3    0    0 -0.70017006354E+01 -0.37437373403E+01  0.56107821018E+00  0.79595345391E+01  0.51100000000E-03 0. -1.
        -11    1    3    3    0    0  0.31010045417E+02 -0.15261340684E+02 -0.24094982974E+02  0.42131931370E+02  0.51100000000E-03 0.  1.
         12    1    3    3    0    0 -0.14035349768E+02  0.15424897241E+02  0.80938838337E+01  0.22370280586E+02  0.00000000000E+00 0. -1.
</event>
<event>
 7    1  0.2941727E-013  0.7246161E+02  0.7816164E-02  0.1226708E+00
        -11   -1    0    0    0    0  0.00000000000E+00  0.00000000000E+00  0.45593999997E+02  0.45594000000E+02  0.51100000000E-03 0.  1.
         11   -1    0    0    0    0 -0.00000000000E+00 -0.00000000000E+00 -0.45593999997E+02  0.45594000000E+02  0.51100000000E-03 0. -1.
    9900012    2    1    2    0    0  0.47605329450E+01 -0.12729088760E+02  0.12883526697E+02  0.72461611274E+02  0.70000053383E+02 0.  0.
         12    1    1    2    0    0 -0.47605329450E+01  0.12729088760E+02 -0.12883526697E+02  0.18726388726E+02  0.00000000000E+00 0. -1.
         11    1    3    3    0    0 -0.34926555737E+01 -0.51247289427E+01  0.50626536936E+01  0.80057449606E+01  0.51100000000E-03 0. -1.
        -11    1    3    3    0    0  0.19184782145E+02 -0.29372442266E+02 -0.72333004766E+01  0.35820620691E+02  0.51100000000E-03 0.  1.
         12    1    3    3    0    0 -0.10931593626E+02  0.21768082448E+02  0.15054173480E+02  0.28635245622E+02  0.00000000000E+00 0. -1.
</event>
<event>
 7    1  0.2941727E-013  0.7246153E+02  0.7816164E-02  0.1226708E+00
        -11   -1    0    0    0    0  0.00000000000E+00  0.00000000000E+00  0.45593999997E+02  0.45594000000E+02  0.51100000000E-03 0.  1.
         11   -1    0    0    0    0 -0.00000000000E+00 -0.00000000000E+00 -0.45593999997E+02  0.45594000000E+02  0.51100000000E-03 0. -1.
    9900012    2    1    2    0    0 -0.13033608440E+02  0.36679224244E+01  0.12936462765E+02  0.72461530158E+02  0.69999947715E+02 0.  0.
         12    1    1    2    0    0  0.13033608440E+02 -0.36679224244E+01 -0.12936462765E+02  0.18726469842E+02  0.00000000000E+00 0. -1.
         11    1    3    3    0    0  0.74866371351E+01 -0.38332773516E+01  0.16447190512E+01  0.85702305608E+01  0.51100000000E-03 0. -1.
        -11    1    3    3    0    0  0.16714212326E+02  0.95368449697E+01  0.17591864263E+02  0.26072782632E+02  0.51100000000E-03 0.  1.
         12    1    3    3    0    0 -0.37234457901E+02 -0.20356451937E+01 -0.63001205486E+01  0.37818516965E+02  0.00000000000E+00 0. -1.
</event>
<event>
 7    1  0.2941727E-013  0.7246162E+02  0.7816164E-02  0.1226708E+00
        -11   -1    0    0    0    0  0.00000000000E+00  0.00000000000E+00  0.45593999997E+02  0.45594000000E+02  0.51100000000E-03 0.  1.
         11   -1    0    0    0    0 -0.00000000000E+00 -0.00000000000E+00 -0.45593999997E+02  0.45594000000E+02  0.51100000000E-03 0. -1.
    9900012    2    1    2    0    0 -0.41106651922E+01 -0.18165645122E+02  0.19465668481E+01  0.72461618782E+02  0.70000063165E+02 0.  0.
         12    1    1    2    0    0  0.41106651922E+01  0.18165645122E+02 -0.19465668481E+01  0.18726381218E+02  0.00000000000E+00 0. -1.
         11    1    3    3    0    0  0.31604769503E+01 -0.39758148088E+01 -0.33581343469E+01  0.60887424400E+01  0.51100000000E-03 0. -1.
        -11    1    3    3    0    0 -0.60590070391E+01 -0.20831161880E+02  0.32098166360E+02  0.38741981822E+02  0.51100000000E-03 0.  1.
         12    1    3    3    0    0 -0.12121351035E+01  0.66413315668E+01 -0.26793465165E+02  0.27630894521E+02  0.00000000000E+00 0. -1.
</event>
<event>
 7    1  0.2941727E-013  0.7246157E+02  0.7816164E-02  0.1226708E+00
        -11   -1    0    0    0    0  0.00000000000E+00  0.00000000000E+00  0.45593999997E+02  0.45594000000E+02  0.51100000000E-03 0.  1.
         11   -1    0    0    0    0 -0.00000000000E+00 -0.00000000000E+00 -0.45593999997E+02  0.45594000000E+02  0.51100000000E-03 0. -1.
    9900012    2    1    2    0    0  0.96937876509E+01 -0.14431368508E+02 -0.69602528171E+01  0.72461573877E+02  0.70000004668E+02 0.  0.
         12    1    1    2    0    0 -0.96937876509E+01  0.14431368508E+02  0.69602528171E+01  0.18726426123E+02  0.00000000000E+00 0. -1.
         11    1    3    3    0    0 -0.82474648381E+01 -0.57288399482E+01 -0.22011598099E+02  0.24194022703E+02  0.51100000000E-03 0. -1.
        -11    1    3    3    0    0 -0.12965033914E+02 -0.82348268053E+00  0.89991009416E+01  0.15803608643E+02  0.51100000000E-03 0.  1.
         12    1    3    3    0    0  0.30906286403E+02 -0.78790458797E+01  0.60522443402E+01  0.32463942532E+02  0.00000000000E+00 0. -1.
</event>
<event>
 7    1  0.2941727E-013  0.7246105E+02  0.7816164E-02  0.1226709E+00
        -11   -1    0    0    0    0  0.00000000000E+00  0.00000000000E+00  0.45593999997E+02  0.45594000000E+02  0.51100000000E-03 0. -1.
         11   -1    0    0    0    0 -0.00000000000E+00 -0.00000000000E+00 -0.45593999997E+02  0.45594000000E+02  0.51100000000E-03 0.  1.
    9900012    2    1    2    0    0  0.77892430484E+01  0.17018953931E+02  0.61780533522E+00  0.72461046601E+02  0.69999317789E+02 0.  0.
         12    1    1    2    0    0 -0.77892430484E+01 -0.17018953931E+02 -0.61780533522E+00  0.18726953399E+02  0.00000000000E+00 0. -1.
         11    1    3    3    0    0 -0.91009912138E+01  0.25082001216E+00 -0.26343012723E+02  0.27871944161E+02  0.51100000000E-03 0. -1.
        -11    1    3    3    0    0  0.11569581017E+02  0.12922947674E+02  0.52798105466E+00  0.17353286310E+02  0.51100000000E-03 0.  1.
         12    1    3    3    0    0  0.53206532452E+01  0.38451862444E+01  0.26432837003E+02  0.27235816130E+02  0.00000000000E+00 0. -1.
</event>
<event>
 7    1  0.2941727E-013  0.7246157E+02  0.7816164E-02  0.1226708E+00
        -11   -1    0    0    0    0  0.00000000000E+00  0.00000000000E+00  0.45593999997E+02  0.45594000000E+02  0.51100000000E-03 0. -1.
         11   -1    0    0    0    0 -0.00000000000E+00 -0.00000000000E+00 -0.45593999997E+02  0.45594000000E+02  0.51100000000E-03 0.  1.
    9900012    2    1    2    0    0  0.69467954490E+01  0.14495980235E+02 -0.96066606022E+01  0.72461565798E+02  0.69999994143E+02 0.  0.
         12    1    1    2    0    0 -0.69467954490E+01 -0.14495980235E+02  0.96066606022E+01  0.18726434202E+02  0.00000000000E+00 0. -1.
         11    1    3    3    0    0 -0.15768078950E+02 -0.97785682836E+01 -0.10613173858E+01  0.18584378018E+02  0.51100000000E-03 0. -1.
        -11    1    3    3    0    0 -0.26385025095E+01  0.37391970770E+00  0.12760882472E+02  0.13036166352E+02  0.51100000000E-03 0.  1.
        -12    1    3    3    0    0  0.25353376909E+02  0.23900628811E+02 -0.21306225688E+02  0.40841021428E+02  0.00000000000E+00 0.  1.
</event>
<event>
 7    1  0.2941727E-013  0.7246154E+02  0.7816164E-02  0.1226708E+00
        -11   -1    0    0    0    0  0.00000000000E+00  0.00000000000E+00  0.45593999997E+02  0.45594000000E+02  0.51100000000E-03 0. -1.
         11   -1    0    0    0    0 -0.00000000000E+00 -0.00000000000E+00 -0.45593999997E+02  0.45594000000E+02  0.51100000000E-03 0.  1.
    9900012    2    1    2    0    0  0.70324628921E+01 -0.13921650123E+02 -0.10363992659E+02  0.72461542239E+02  0.69999963452E+02 0.  0.
         12    1    1    2    0    0 -0.70324628921E+01  0.13921650123E+02  0.10363992659E+02  0.18726457761E+02  0.00000000000E+00 0. -1.
         11    1    3    3    0    0 -0.19279809811E+02 -0.22011718427E+02  0.78623357395E+01  0.30299226690E+02  0.51100000000E-03 0. -1.
        -11    1    3    3    0    0  0.18808757320E+02 -0.42394938218E+01 -0.47868433826E+00  0.19286570424E+02  0.51100000000E-03 0.  1.
        -12    1    3    3    0    0  0.75035153837E+01  0.12329562126E+02 -0.17747644060E+02  0.22875745124E+02  0.00000000000E+00 0.  1.
</event>
<event>
 7    1  0.2941727E-013  0.7246122E+02  0.7816164E-02  0.1226709E+00
        -11   -1    0    0    0    0  0.00000000000E+00  0.00000000000E+00  0.45593999997E+02  0.45594000000E+02  0.51100000000E-03 0.  1.
         11   -1    0    0    0    0 -0.00000000000E+00 -0.00000000000E+00 -0.45593999997E+02  0.45594000000E+02  0.51100000000E-03 0. -1.
    9900012    2    1    2    0    0 -0.37629712814E+00 -0.17319897695E+02  0.71113954391E+01  0.72461217020E+02  0.69999539793E+02 0.  0.
         12    1    1    2    0    0  0.37629712814E+00  0.17319897695E+02 -0.71113954391E+01  0.18726782980E+02  0.00000000000E+00 0. -1.
         11    1    3    3    0    0 -0.12790896011E+02 -0.86785851930E+01  0.46063069122E+01  0.16128946815E+02  0.51100000000E-03 0. -1.
        -11    1    3    3    0    0 -0.10875131723E+02 -0.87538537588E+01  0.21935568202E+02  0.26001299934E+02  0.51100000000E-03 0.  1.
         12    1    3    3    0    0  0.23289730606E+02  0.11254125733E+00 -0.19430479675E+02  0.30330970272E+02  0.00000000000E+00 0. -1.
</event>
<event>
 7    1  0.2941727E-013  0.7246150E+02  0.7816164E-02  0.1226708E+00
        -11   -1    0    0    0    0  0.00000000000E+00  0.00000000000E+00  0.45593999997E+02  0.45594000000E+02  0.51100000000E-03 0.  1.
         11   -1    0    0    0    0 -0.00000000000E+00 -0.00000000000E+00 -0.45593999997E+02  0.45594000000E+02  0.51100000000E-03 0. -1.
    9900012    2    1    2    0    0  0.10595221526E+02  0.10111252388E+02  0.11669859939E+02  0.72461500726E+02  0.69999909375E+02 0.  0.
         12    1    1    2    0    0 -0.10595221526E+02 -0.10111252388E+02 -0.11669859939E+02  0.18726499274E+02  0.00000000000E+00 0. -1.
         11    1    3    3    0    0 -0.18081065614E+02  0.14630695905E+02 -0.56068911991E+01  0.23925288411E+02  0.51100000000E-03 0. -1.
        -11    1    3    3    0    0  0.12691556801E+02 -0.18581727174E+02  0.25437978196E+01  0.22645686265E+02  0.51100000000E-03 0.  1.
        -12    1    3    3    0    0  0.15984730339E+02  0.14062283658E+02  0.14732953318E+02  0.25890526050E+02  0.00000000000E+00 0.  1.
</event>
<event>
 7    1  0.2941727E-013  0.7246154E+02  0.7816164E-02  0.1226708E+00
        -11   -1    0    0    0    0  0.00000000000E+00  0.00000000000E+00  0.45593999997E+02  0.45594000000E+02  0.51100000000E-03 0. -1.
         11   -1    0    0    0    0 -0.00000000000E+00 -0.00000000000E+00 -0.45593999997E+02  0.45594000000E+02  0.51100000000E-03 0.  1.
    9900012    2    1    2    0    0  0.83194718546E+00 -0.17916962409E+02 -0.53824275540E+01  0.72461542662E+02  0.69999964003E+02 0.  0.
         12    1    1    2    0    0 -0.83194718546E+00  0.17916962409E+02  0.53824275540E+01  0.18726457338E+02  0.00000000000E+00 0. -1.
         11    1    3    3    0    0 -0.10713460950E+02 -0.39656477362E+02  0.10623598540E+02  0.42429651053E+02  0.51100000000E-03 0. -1.
        -11    1    3    3    0    0  0.71171030480E+00 -0.34969097714E+00 -0.69009727728E+00  0.10512135134E+01  0.51100000000E-03 0.  1.
        -12    1    3    3    0    0  0.10833697831E+02  0.22089205931E+02 -0.15315928816E+02  0.28980678095E+02  0.00000000000E+00 0.  1.
</event>
<event>
 7    1  0.2941727E-013  0.7246163E+02  0.7816164E-02  0.1226708E+00
        -11   -1    0    0    0    0  0.00000000000E+00  0.00000000000E+00  0.45593999997E+02  0.45594000000E+02  0.51100000000E-03 0. -1.
         11   -1    0    0    0    0 -0.00000000000E+00 -0.00000000000E+00 -0.45593999997E+02  0.45594000000E+02  0.51100000000E-03 0.  1.
    9900012    2    1    2    0    0  0.15339804616E+01  0.14967215411E+02 -0.11149281720E+02  0.72461625122E+02  0.70000071423E+02 0.  0.
         12    1    1    2    0    0 -0.15339804616E+01 -0.14967215411E+02  0.11149281720E+02  0.18726374878E+02  0.00000000000E+00 0. -1.
         11    1    3    3    0    0 -0.23967596910E+01  0.38377450648E+02 -0.14052385028E+02  0.40939500491E+02  0.51100000000E-03 0. -1.
        -11    1    3    3    0    0 -0.25277429304E+01 -0.90629135450E+01 -0.80242031253E+01  0.12365828816E+02  0.51100000000E-03 0.  1.
        -12    1    3    3    0    0  0.64584830831E+01 -0.14347321692E+02  0.10927306433E+02  0.19156295815E+02  0.00000000000E+00 0.  1.
</event>
<event>
 7    1  0.2941727E-013  0.7246159E+02  0.7816164E-02  0.1226708E+00
        -11   -1    0    0    0    0  0.00000000000E+00  0.00000000000E+00  0.45593999997E+02  0.45594000000E+02  0.51100000000E-03 0. -1.
         11   -1    0    0    0    0 -0.00000000000E+00 -0.00000000000E+00 -0.45593999997E+02  0.45594000000E+02  0.51100000000E-03 0.  1.
    9900012    2    1    2    0    0 -0.17203351988E+02 -0.47875825837E+00 -0.73819986262E+01  0.72461589965E+02  0.70000025624E+02 0.  0.
         12    1    1    2    0    0  0.17203351988E+02  0.47875825837E+00  0.73819986262E+01  0.18726410035E+02  0.00000000000E+00 0. -1.
         11    1    3    3    0    0 -0.35572864221E+01 -0.25802003896E+02  0.54024202854E+01  0.26600448059E+02  0.51100000000E-03 0. -1.
        -11    1    3    3    0    0  0.35802681651E+01 -0.53822203114E+01 -0.80692957874E+01  0.10339252893E+02  0.51100000000E-03 0.  1.
        -12    1    3    3    0    0 -0.17226333731E+02  0.30705465949E+02 -0.47151231243E+01  0.35521889013E+02  0.00000000000E+00 0.  1.
</event>
<event>
 7    1  0.2941727E-013  0.7246156E+02  0.7816164E-02  0.1226708E+00
        -11   -1    0    0    0    0  0.00000000000E+00  0.00000000000E+00  0.45593999997E+02  0.45594000000E+02  0.51100000000E-03 0.  1.
         11   -1    0    0    0    0 -0.00000000000E+00 -0.00000000000E+00 -0.45593999997E+02  0.45594000000E+02  0.51100000000E-03 0. -1.
    9900012    2    1    2    0    0 -0.11255951558E+02 -0.75423961579E+01  0.12926540077E+02  0.72461558169E+02  0.69999984205E+02 0.  0.
         12    1    1    2    0    0  0.11255951558E+02  0.75423961579E+01 -0.12926540077E+02  0.18726441831E+02  0.00000000000E+00 0. -1.
         11    1    3    3    0    0  0.34217814321E+00  0.22232590521E+01  0.39756080827E+01  0.45678689323E+01  0.51100000000E-03 0. -1.
        -11    1    3    3    0    0  0.30497871738E+01  0.17414657191E+02  0.26892358626E+02  0.32183387634E+02  0.51100000000E-03 0.  1.
         12    1    3    3    0    0 -0.14647916875E+02 -0.27180312401E+02 -0.17941426632E+02  0.35710301603E+02  0.00000000000E+00 0. -1.
</event>
<event>
 7    1  0.2941727E-013  0.7246156E+02  0.7816164E-02  0.1226708E+00
        -11   -1    0    0    0    0  0.00000000000E+00  0.00000000000E+00  0.45593999997E+02  0.45594000000E+02  0.51100000000E-03 0.  1.
         11   -1    0    0    0    0 -0.00000000000E+00 -0.00000000000E+00 -0.45593999997E+02  0.45594000000E+02  0.51100000000E-03 0. -1.
    9900012    2    1    2    0    0  0.17118063132E+02  0.61838377128E+01  0.44058594379E+01  0.72461560625E+02  0.69999987404E+02 0.  0.
         12    1    1    2    0    0 -0.17118063132E+02 -0.61838377128E+01 -0.44058594379E+01  0.18726439375E+02  0.00000000000E+00 0. -1.
         11    1    3    3    0    0  0.12815035277E+02 -0.16775344026E+02  0.10927259848E+02  0.23770618511E+02  0.51100000000E-03 0. -1.
        -11    1    3    3    0    0 -0.74493208593E+01 -0.98693192907E+01  0.26291313368E+01  0.12641525872E+02  0.51100000000E-03 0.  1.
        -12    1    3    3    0    0  0.11752348714E+02  0.32828501030E+02 -0.91505317470E+01  0.36049416242E+02  0.00000000000E+00 0.  1.
</event>
<event>
 7    1  0.2941727E-013  0.7246160E+02  0.7816164E-02  0.1226708E+00
        -11   -1    0    0    0    0  0.00000000000E+00  0.00000000000E+00  0.45593999997E+02  0.45594000000E+02  0.51100000000E-03 0. -1.
         11   -1    0    0    0    0 -0.00000000000E+00 -0.00000000000E+00 -0.45593999997E+02  0.45594000000E+02  0.51100000000E-03 0.  1.
    9900012    2    1    2    0    0  0.74607716474E+01  0.62874215158E+01 -0.15983847237E+02  0.72461597372E+02  0.70000035273E+02 0.  0.
         12    1    1    2    0    0 -0.74607716474E+01 -0.62874215158E+01  0.15983847237E+02  0.18726402628E+02  0.00000000000E+00 0. -1.
         11    1    3    3    0    0 -0.42421250654E-01 -0.72459963747E+01  0.12947700373E+02  0.14837425930E+02  0.51100000000E-03 0. -1.
        -11    1    3    3    0    0  0.20275134719E+02  0.18516785182E+00 -0.32977410427E+02  0.38712077880E+02  0.51100000000E-03 0.  1.
         12    1    3    3    0    0 -0.12771941821E+02  0.13348250039E+02  0.40458628174E+01  0.18912093562E+02  0.00000000000E+00 0. -1.
</event>
<event>
 7    1  0.2941727E-013  0.7246160E+02  0.7816164E-02  0.1226708E+00
        -11   -1    0    0    0    0  0.00000000000E+00  0.00000000000E+00  0.45593999997E+02  0.45594000000E+02  0.51100000000E-03 0.  1.
         11   -1    0    0    0    0 -0.00000000000E+00 -0.00000000000E+00 -0.45593999997E+02  0.45594000000E+02  0.51100000000E-03 0. -1.
    9900012    2    1    2    0    0  0.13098780394E+02  0.86730863014E+01  0.10192030975E+02  0.72461602343E+02  0.70000041750E+02 0.  0.
         12    1    1    2    0    0 -0.13098780394E+02 -0.86730863014E+01 -0.10192030975E+02  0.18726397657E+02  0.00000000000E+00 0. -1.
         11    1    3    3    0    0 -0.60353519588E+01  0.23535322824E+02 -0.10026139113E+02  0.26284222634E+02  0.51100000000E-03 0. -1.
        -11    1    3    3    0    0  0.98440134958E+01  0.10564665819E+02  0.66938195823E+01  0.15916154889E+02  0.51100000000E-03 0.  1.
        -12    1    3    3    0    0  0.92901188569E+01 -0.25426902342E+02  0.13524350506E+02  0.30261224821E+02  0.00000000000E+00 0.  1.
</event>
<event>
 7    1  0.2941727E-013  0.7246206E+02  0.7816164E-02  0.1226707E+00
        -11   -1    0    0    0    0  0.00000000000E+00  0.00000000000E+00  0.45593999997E+02  0.45594000000E+02  0.51100000000E-03 0.  1.
         11   -1    0    0    0    0 -0.00000000000E+00 -0.00000000000E+00 -0.45593999997E+02  0.45594000000E+02  0.51100000000E-03 0. -1.
    9900012    2    1    2    0    0  0.12519582220E+02  0.47945403906E+01  0.13074140668E+02  0.72462063155E+02  0.70000642040E+02 0.  0.
         12    1    1    2    0    0 -0.12519582220E+02 -0.47945403906E+01 -0.13074140668E+02  0.18725936845E+02  0.00000000000E+00 0. -1.
         11    1    3    3    0    0  0.96521787957E+01  0.60545281621E+00  0.68127308584E+01  0.11829811099E+02  0.51100000000E-03 0. -1.
        -11    1    3    3    0    0 -0.68560605370E+01 -0.50733383006E+01  0.31179989093E+02  0.32325470572E+02  0.51100000000E-03 0.  1.
         12    1    3    3    0    0  0.97234639610E+01  0.92624258749E+01 -0.24918579283E+02  0.28306781484E+02  0.00000000000E+00 0. -1.
</event>
<event>
 7    1  0.2941727E-013  0.7246156E+02  0.7816164E-02  0.1226708E+00
        -11   -1    0    0    0    0  0.00000000000E+00  0.00000000000E+00  0.45593999997E+02  0.45594000000E+02  0.51100000000E-03 0.  1.
         11   -1    0    0    0    0 -0.00000000000E+00 -0.00000000000E+00 -0.45593999997E+02  0.45594000000E+02  0.51100000000E-03 0. -1.
    9900012    2    1    2    0    0 -0.31303395048E+01  0.18442322791E+02  0.87250296003E+00  0.72461559955E+02  0.69999986531E+02 0.  0.
         12    1    1    2    0    0  0.31303395048E+01 -0.18442322791E+02 -0.87250296003E+00  0.18726440045E+02  0.00000000000E+00 0. -1.
         11    1    3    3    0    0 -0.11386231252E+01  0.88716636855E+01 -0.15543473680E+02  0.17933277823E+02  0.51100000000E-03 0. -1.
        -11    1    3    3    0    0 -0.24658706406E+02  0.82702271053E+01 -0.82197260451E+00  0.26021608275E+02  0.51100000000E-03 0.  1.
        -12    1    3    3    0    0  0.22666990026E+02  0.13004320001E+01  0.17237949245E+02  0.28506673857E+02  0.00000000000E+00 0.  1.
</event>
<event>
 7    1  0.2941727E-013  0.7246156E+02  0.7816164E-02  0.1226708E+00
        -11   -1    0    0    0    0  0.00000000000E+00  0.00000000000E+00  0.45593999997E+02  0.45594000000E+02  0.51100000000E-03 0.  1.
         11   -1    0    0    0    0 -0.00000000000E+00 -0.00000000000E+00 -0.45593999997E+02  0.45594000000E+02  0.51100000000E-03 0. -1.
    9900012    2    1    2    0    0 -0.50227204500E+01  0.17918956812E+02  0.20887336017E+01  0.72461560349E+02  0.69999987044E+02 0.  0.
         12    1    1    2    0    0  0.50227204500E+01 -0.17918956812E+02 -0.20887336017E+01  0.18726439651E+02  0.00000000000E+00 0. -1.
         11    1    3    3    0    0 -0.83717871201E+01  0.14683119823E+02 -0.67673769449E+01  0.18206543282E+02  0.51100000000E-03 0. -1.
        -11    1    3    3    0    0  0.11435417310E+02  0.20233291804E+02  0.21434347720E+02  0.31616232045E+02  0.51100000000E-03 0.  1.
         12    1    3    3    0    0 -0.80863506404E+01 -0.16997454814E+02 -0.12578237174E+02  0.22638785021E+02  0.00000000000E+00 0. -1.
</event>
<event>
 7    1  0.2941727E-013  0.7246139E+02  0.7816164E-02  0.1226708E+00
        -11   -1    0    0    0    0  0.00000000000E+00  0.00000000000E+00  0.45593999997E+02  0.45594000000E+02  0.51100000000E-03 0.  1.
         11   -1    0    0    0    0 -0.00000000000E+00 -0.00000000000E+00 -0.45593999997E+02  0.45594000000E+02  0.51100000000E-03 0. -1.
    9900012    2    1    2    0    0 -0.89924718889E-01  0.18725424189E+02 -0.19026442283E+00  0.72461393312E+02  0.69999769447E+02 0.  0.
         12    1    1    2    0    0  0.89924718889E-01 -0.18725424189E+02  0.19026442283E+00  0.18726606688E+02  0.00000000000E+00 0. -1.
         11    1    3    3    0    0 -0.72843320115E+01 -0.14378664966E+02  0.13681641020E+01  0.16176506803E+02  0.51100000000E-03 0. -1.
        -11    1    3    3    0    0 -0.91494852028E+01  0.10443962759E+02 -0.18861857163E+02  0.23421338422E+02  0.51100000000E-03 0.  1.
        -12    1    3    3    0    0  0.16343892495E+02  0.22660126396E+02  0.17303428639E+02  0.32863548087E+02  0.00000000000E+00 0.  1.
</event>
<event>
 7    1  0.2941727E-013  0.7246156E+02  0.7816164E-02  0.1226708E+00
        -11   -1    0    0    0    0  0.00000000000E+00  0.00000000000E+00  0.45593999997E+02  0.45594000000E+02  0.51100000000E-03 0. -1.
         11   -1    0    0    0    0 -0.00000000000E+00 -0.00000000000E+00 -0.45593999997E+02  0.45594000000E+02  0.51100000000E-03 0.  1.
    9900012    2    1    2    0    0 -0.15877165773E+02  0.80440004090E+01  0.58214586444E+01  0.72461555695E+02  0.69999980982E+02 0.  0.
         12    1    1    2    0    0  0.15877165773E+02 -0.80440004090E+01 -0.58214586444E+01  0.18726444305E+02  0.00000000000E+00 0. -1.
         11    1    3    3    0    0 -0.25120271531E+02  0.12103936415E+02 -0.15347231490E+01  0.27926487318E+02  0.51100000000E-03 0. -1.
        -11    1    3    3    0    0 -0.43178741043E+01  0.13571784779E+02  0.15311916673E+02  0.20911532017E+02  0.51100000000E-03 0.  1.
        -12    1    3    3    0    0  0.13560979862E+02 -0.17631720785E+02 -0.79557348792E+01  0.23623536360E+02  0.00000000000E+00 0.  1.
</event>
<event>
 7    1  0.2941727E-013  0.7246156E+02  0.7816164E-02  0.1226708E+00
        -11   -1    0    0    0    0  0.00000000000E+00  0.00000000000E+00  0.45593999997E+02  0.45594000000E+02  0.51100000000E-03 0.  1.
         11   -1    0    0    0    0 -0.00000000000E+00 -0.00000000000E+00 -0.45593999997E+02  0.45594000000E+02  0.51100000000E-03 0. -1.
    9900012    2    1    2    0    0 -0.80419938231E+01 -0.13737167897E+02 -0.98638749426E+01  0.72461562128E+02  0.69999989362E+02 0.  0.
         12    1    1    2    0    0  0.80419938231E+01  0.13737167897E+02  0.98638749426E+01  0.18726437872E+02  0.00000000000E+00 0. -1.
         11    1    3    3    0    0 -0.21017984189E+01  0.19442232859E+01 -0.30144727166E+02  0.30280391955E+02  0.51100000000E-03 0. -1.
        -11    1    3    3    0    0  0.89483090678E+01 -0.12552388888E+01 -0.43154104668E+01  0.10013522237E+02  0.51100000000E-03 0.  1.
        -12    1    3    3    0    0 -0.14888504472E+02 -0.14426152294E+02  0.24596262690E+02  0.32167647936E+02  0.00000000000E+00 0.  1.
</event>
<event>
 7    1  0.2941727E-013  0.7246155E+02  0.7816164E-02  0.1226708E+00
        -11   -1    0    0    0    0  0.00000000000E+00  0.00000000000E+00  0.45593999997E+02  0.45594000000E+02  0.51100000000E-03 0. -1.
         11   -1    0    0    0    0 -0.00000000000E+00 -0.00000000000E+00 -0.45593999997E+02  0.45594000000E+02  0.51100000000E-03 0.  1.
    9900012    2    1    2    0    0 -0.29792766792E+01 -0.13352740058E+01 -0.18439657775E+02  0.72461547451E+02  0.69999970243E+02 0.  0.
         12    1    1    2    0    0  0.29792766792E+01  0.13352740058E+01  0.18439657775E+02  0.18726452549E+02  0.00000000000E+00 0. -1.
         11    1    3    3    0    0  0.14751312738E+02  0.75217349256E+01 -0.34187353794E+01  0.16907556762E+02  0.51100000000E-03 0. -1.
        -11    1    3    3    0    0  0.52553429382E+01 -0.15953057726E+02  0.11030378185E+02  0.20094474947E+02  0.51100000000E-03 0.  1.
         12    1    3    3    0    0 -0.22985932356E+02  0.70960487950E+01 -0.26051300580E+02  0.35459515743E+02  0.00000000000E+00 0. -1.
</event>
<event>
 7    1  0.2941727E-013  0.7246159E+02  0.7816164E-02  0.1226708E+00
        -11   -1    0    0    0    0  0.00000000000E+00  0.00000000000E+00  0.45593999997E+02  0.45594000000E+02  0.51100000000E-03 0.  1.
         11   -1    0    0    0    0 -0.00000000000E+00 -0.00000000000E+00 -0.45593999997E+02  0.45594000000E+02  0.51100000000E-03 0. -1.
    9900012    2    1    2    0    0  0.14993376191E+02 -0.81640911547E+01 -0.76957698285E+01  0.72461585842E+02  0.70000020253E+02 0.  0.
         12    1    1    2    0    0 -0.14993376191E+02  0.81640911547E+01  0.76957698285E+01  0.18726414158E+02  0.00000000000E+00 0. -1.
         11    1    3    3    0    0 -0.60711946529E-01  0.81928584604E+01 -0.24324236769E+02  0.25667004312E+02  0.51100000000E-03 0. -1.
        -11    1    3    3    0    0 -0.88858141848E+01  0.20117518169E+01 -0.42977885568E+01  0.10073521025E+02  0.51100000000E-03 0.  1.
        -12    1    3    3    0    0  0.23939902322E+02 -0.18368701432E+02  0.20926255497E+02  0.36721060505E+02  0.00000000000E+00 0.  1.
</event>
<event>
 7    1  0.2941727E-013  0.7246175E+02  0.7816164E-02  0.1226708E+00
        -11   -1    0    0    0    0  0.00000000000E+00  0.00000000000E+00  0.45593999997E+02  0.45594000000E+02  0.51100000000E-03 0. -1.
         11   -1    0    0    0    0 -0.00000000000E+00 -0.00000000000E+00 -0.45593999997E+02  0.45594000000E+02  0.51100000000E-03 0.  1.
    9900012    2    1    2    0    0 -0.15903749217E+02  0.88962508882E+00  0.98463997591E+01  0.72461754777E+02  0.70000240322E+02 0.  0.
         12    1    1    2    0    0  0.15903749217E+02 -0.88962508882E+00 -0.98463997591E+01  0.18726245223E+02  0.00000000000E+00 0. -1.
         11    1    3    3    0    0  0.16322928421E+02  0.56267047098E+01  0.87677646859E+01  0.19364180747E+02  0.51100000000E-03 0. -1.
        -11    1    3    3    0    0 -0.14378886432E+02 -0.18427716690E+02  0.13911555093E+02  0.27200450048E+02  0.51100000000E-03 0.  1.
        -12    1    3    3    0    0 -0.17847791207E+02  0.13690637069E+02 -0.12832920020E+02  0.25897123982E+02  0.00000000000E+00 0.  1.
</event>
<event>
 7    1  0.2941727E-013  0.7246159E+02  0.7816164E-02  0.1226708E+00
        -11   -1    0    0    0    0  0.00000000000E+00  0.00000000000E+00  0.45593999997E+02  0.45594000000E+02  0.51100000000E-03 0. -1.
         11   -1    0    0    0    0 -0.00000000000E+00 -0.00000000000E+00 -0.45593999997E+02  0.45594000000E+02  0.51100000000E-03 0.  1.
    9900012    2    1    2    0    0  0.57028515239E+01  0.11096203608E+02 -0.13965319311E+02  0.72461591015E+02  0.70000026993E+02 0.  0.
         12    1    1    2    0    0 -0.57028515239E+01 -0.11096203608E+02  0.13965319311E+02  0.18726408985E+02  0.00000000000E+00 0. -1.
         11    1    3    3    0    0  0.10513130196E+02  0.15438840070E+02  0.20292882775E+01  0.18788339480E+02  0.51100000000E-03 0. -1.
        -11    1    3    3    0    0  0.20905237521E+02 -0.67524033741E+01  0.22019786708E+01  0.22078782065E+02  0.51100000000E-03 0.  1.
        -12    1    3    3    0    0 -0.25715516193E+02  0.24097669121E+01 -0.18196586259E+02  0.31594469471E+02  0.00000000000E+00 0.  1.
</event>
<event>
 7    1  0.2941727E-013  0.7246156E+02  0.7816164E-02  0.1226708E+00
        -11   -1    0    0    0    0  0.00000000000E+00  0.00000000000E+00  0.45593999997E+02  0.45594000000E+02  0.51100000000E-03 0.  1.
         11   -1    0    0    0    0 -0.00000000000E+00 -0.00000000000E+00 -0.45593999997E+02  0.45594000000E+02  0.51100000000E-03 0. -1.
    9900012    2    1    2    0    0  0.10883636988E+02  0.10852469574E+01  0.15200270440E+02  0.72461560497E+02  0.69999987237E+02 0.  0.
         12    1    1    2    0    0 -0.10883636988E+02 -0.10852469574E+01 -0.15200270440E+02  0.18726439503E+02  0.00000000000E+00 0. -1.
         11    1    3    3    0    0  0.28116053334E+01  0.19585340404E+02 -0.24320077159E+01  0.19935028093E+02  0.51100000000E-03 0.  1.
        -11    1    3    3    0    0  0.26670609298E+02 -0.78831064309E+01  0.73256117746E+01  0.28759856666E+02  0.51100000000E-03 0. -1.
        -12    1    3    3    0    0 -0.18598577644E+02 -0.10616987016E+02  0.10306666381E+02  0.23766675737E+02  0.00000000000E+00 0.  1.
</event>
<event>
 7    1  0.2941727E-013  0.7246157E+02  0.7816164E-02  0.1226708E+00
        -11   -1    0    0    0    0  0.00000000000E+00  0.00000000000E+00  0.45593999997E+02  0.45594000000E+02  0.51100000000E-03 0. -1.
         11   -1    0    0    0    0 -0.00000000000E+00 -0.00000000000E+00 -0.45593999997E+02  0.45594000000E+02  0.51100000000E-03 0.  1.
    9900012    2    1    2    0    0 -0.79870539223E+01  0.15156778124E+02  0.75603122907E+01  0.72461567468E+02  0.69999996318E+02 0.  0.
         12    1    1    2    0    0  0.79870539223E+01 -0.15156778124E+02 -0.75603122907E+01  0.18726432532E+02  0.00000000000E+00 0. -1.
         11    1    3    3    0    0 -0.45645951526E+00  0.99617078508E+00 -0.59796061149E-01  0.10974002698E+01  0.51100000000E-03 0. -1.
        -11    1    3    3    0    0  0.16510301600E+02  0.33945389544E+02 -0.43707379783E+01  0.37999774749E+02  0.51100000000E-03 0.  1.
         12    1    3    3    0    0 -0.24040896007E+02 -0.19784782206E+02  0.11990846330E+02  0.33364392449E+02  0.00000000000E+00 0. -1.
</event>
<event>
 7    1  0.2941727E-013  0.7246154E+02  0.7816164E-02  0.1226708E+00
        -11   -1    0    0    0    0  0.00000000000E+00  0.00000000000E+00  0.45593999997E+02  0.45594000000E+02  0.51100000000E-03 0. -1.
         11   -1    0    0    0    0 -0.00000000000E+00 -0.00000000000E+00 -0.45593999997E+02  0.45594000000E+02  0.51100000000E-03 0.  1.
    9900012    2    1    2    0    0  0.13875994528E+01 -0.44858046538E+01 -0.18128223585E+02  0.72461538349E+02  0.69999958385E+02 0.  0.
         12    1    1    2    0    0 -0.13875994528E+01  0.44858046538E+01  0.18128223585E+02  0.18726461651E+02  0.00000000000E+00 0. -1.
         11    1    3    3    0    0 -0.30871697904E+01 -0.10237021780E+02 -0.84499535938E+01  0.13628240834E+02  0.51100000000E-03 0. -1.
        -11    1    3    3    0    0 -0.12105689642E+02 -0.20684550390E+02 -0.13315038909E+02  0.27416940164E+02  0.51100000000E-03 0.  1.
         12    1    3    3    0    0  0.16580458886E+02  0.26435767516E+02  0.36367689173E+01  0.31416357351E+02  0.00000000000E+00 0. -1.
</event>
<event>
 7    1  0.2941727E-013  0.7246163E+02  0.7816164E-02  0.1226708E+00
        -11   -1    0    0    0    0  0.00000000000E+00  0.00000000000E+00  0.45593999997E+02  0.45594000000E+02  0.51100000000E-03 0.  1.
         11   -1    0    0    0    0 -0.00000000000E+00 -0.00000000000E+00 -0.45593999997E+02  0.45594000000E+02  0.51100000000E-03 0. -1.
    9900012    2    1    2    0    0  0.15201763196E+02  0.60471767656E+01  0.91112549976E+01  0.72461630391E+02  0.70000078287E+02 0.  0.
         12    1    1    2    0    0 -0.15201763196E+02 -0.60471767656E+01 -0.91112549976E+01  0.18726369609E+02  0.00000000000E+00 0. -1.
         11    1    3    3    0    0  0.20737556386E+01 -0.22761128114E+02  0.38879974580E+01  0.23183743010E+02  0.51100000000E-03 0. -1.
        -11    1    3    3    0    0 -0.14093162591E+01 -0.77879504989E+01 -0.39503462937E+01  0.88455401979E+01  0.51100000000E-03 0.  1.
        -12    1    3    3    0    0  0.14537323816E+02  0.36596255378E+02  0.91736038333E+01  0.40432347183E+02  0.00000000000E+00 0.  1.
</event>
<event>
 7    1  0.2941727E-013  0.7246154E+02  0.7816164E-02  0.1226708E+00
        -11   -1    0    0    0    0  0.00000000000E+00  0.00000000000E+00  0.45593999997E+02  0.45594000000E+02  0.51100000000E-03 0.  1.
         11   -1    0    0    0    0 -0.00000000000E+00 -0.00000000000E+00 -0.45593999997E+02  0.45594000000E+02  0.51100000000E-03 0. -1.
    9900012    2    1    2    0    0  0.17738014983E+02 -0.50081219577E+01  0.33108507797E+01  0.72461542941E+02  0.69999964368E+02 0.  0.
         12    1    1    2    0    0 -0.17738014983E+02  0.50081219577E+01 -0.33108507797E+01  0.18726457059E+02  0.00000000000E+00 0. -1.
         11    1    3    3    0    0 -0.45580253174E+01 -0.16898866833E+01 -0.11462295173E+01  0.49945124050E+01  0.51100000000E-03 0. -1.
        -11    1    3    3    0    0 -0.20365488430E+02  0.15824728448E+01 -0.92034528468E+01  0.22404483566E+02  0.51100000000E-03 0.  1.
         12    1    3    3    0    0  0.42661528730E+02 -0.49007081192E+01  0.13660533144E+02  0.45062546970E+02  0.00000000000E+00 0. -1.
</event>
<event>
 7    1  0.2941727E-013  0.7246167E+02  0.7816164E-02  0.1226708E+00
        -11   -1    0    0    0    0  0.00000000000E+00  0.00000000000E+00  0.45593999997E+02  0.45594000000E+02  0.51100000000E-03 0.  1.
         11   -1    0    0    0    0 -0.00000000000E+00 -0.00000000000E+00 -0.45593999997E+02  0.45594000000E+02  0.51100000000E-03 0. -1.
    9900012    2    1    2    0    0  0.90837519493E+01  0.15137414730E+02 -0.62465558788E+01  0.72461672690E+02  0.70000133389E+02 0.  0.
         12    1    1    2    0    0 -0.90837519493E+01 -0.15137414730E+02  0.62465558788E+01  0.18726327310E+02  0.00000000000E+00 0. -1.
         11    1    3    3    0    0  0.13049811322E+02 -0.11291512274E+00 -0.18218816178E+02  0.22410613301E+02  0.51100000000E-03 0. -1.
        -11    1    3    3    0    0 -0.20292707742E+01  0.24768185173E+02 -0.94044990948E+01  0.26571141114E+02  0.51100000000E-03 0.  1.
        -12    1    3    3    0    0 -0.19367885986E+01 -0.95178553200E+01  0.21376759394E+02  0.23479918274E+02  0.00000000000E+00 0.  1.
</event>
<event>
 7    1  0.2941727E-013  0.7246157E+02  0.7816164E-02  0.1226708E+00
        -11   -1    0    0    0    0  0.00000000000E+00  0.00000000000E+00  0.45593999997E+02  0.45594000000E+02  0.51100000000E-03 0.  1.
         11   -1    0    0    0    0 -0.00000000000E+00 -0.00000000000E+00 -0.45593999997E+02  0.45594000000E+02  0.51100000000E-03 0. -1.
    9900012    2    1    2    0    0 -0.11625212303E+02  0.13919640994E+02 -0.46666197688E+01  0.72461566635E+02  0.69999995233E+02 0.  0.
         12    1    1    2    0    0  0.11625212303E+02 -0.13919640994E+02  0.46666197688E+01  0.18726433365E+02  0.00000000000E+00 0. -1.
         11    1    3    3    0    0 -0.32107624177E+00 -0.30264013352E+01  0.36819509267E+01  0.47769192878E+01  0.51100000000E-03 0. -1.
        -11    1    3    3    0    0 -0.16652066970E+01 -0.14718967748E+02  0.19458297571E+02  0.24454984554E+02  0.51100000000E-03 0.  1.
         12    1    3    3    0    0 -0.96389293644E+01  0.31665010077E+02 -0.27806868266E+02  0.43229662794E+02  0.00000000000E+00 0. -1.
</event>
<event>
 7    1  0.2941727E-013  0.7246158E+02  0.7816164E-02  0.1226708E+00
        -11   -1    0    0    0    0  0.00000000000E+00  0.00000000000E+00  0.45593999997E+02  0.45594000000E+02  0.51100000000E-03 0.  1.
         11   -1    0    0    0    0 -0.00000000000E+00 -0.00000000000E+00 -0.45593999997E+02  0.45594000000E+02  0.51100000000E-03 0. -1.
    9900012    2    1    2    0    0  0.15818237024E+02  0.84459281663E+01  0.53970858875E+01  0.72461578526E+02  0.70000010723E+02 0.  0.
         12    1    1    2    0    0 -0.15818237024E+02 -0.84459281663E+01 -0.53970858875E+01  0.18726421474E+02  0.00000000000E+00 0. -1.
         11    1    3    3    0    0  0.91662136369E+01  0.62765447629E+01 -0.17013494656E+02  0.20319288552E+02  0.51100000000E-03 0. -1.
        -11    1    3    3    0    0  0.24553483232E+02 -0.11117797071E+01  0.17971480736E+01  0.24644255606E+02  0.51100000000E-03 0.  1.
        -12    1    3    3    0    0 -0.17901459844E+02  0.32811631106E+01  0.20613432470E+02  0.27498034368E+02  0.00000000000E+00 0.  1.
</event>
<event>
 7    1  0.2941727E-013  0.7246150E+02  0.7816164E-02  0.1226708E+00
        -11   -1    0    0    0    0  0.00000000000E+00  0.00000000000E+00  0.45593999997E+02  0.45594000000E+02  0.51100000000E-03 0.  1.
         11   -1    0    0    0    0 -0.00000000000E+00 -0.00000000000E+00 -0.45593999997E+02  0.45594000000E+02  0.51100000000E-03 0. -1.
    9900012    2    1    2    0    0  0.44847406032E+01 -0.71071222759E+01  0.16734924440E+02  0.72461500558E+02  0.69999909156E+02 0.  0.
         12    1    1    2    0    0 -0.44847406032E+01  0.71071222759E+01 -0.16734924440E+02  0.18726499442E+02  0.00000000000E+00 0. -1.
         11    1    3    3    0    0 -0.52397190595E+01  0.45603670682E+00  0.10515106198E+02  0.11757129068E+02  0.51100000000E-03 0.  1.
        -11    1    3    3    0    0  0.19292434335E+02  0.21871327164E+02  0.58847579561E+01  0.29752031039E+02  0.51100000000E-03 0. -1.
         12    1    3    3    0    0 -0.95679746719E+01 -0.29434486147E+02  0.33506028642E+00  0.30952340452E+02  0.00000000000E+00 0. -1.
</event>
<event>
 7    1  0.2941727E-013  0.7246159E+02  0.7816164E-02  0.1226708E+00
        -11   -1    0    0    0    0  0.00000000000E+00  0.00000000000E+00  0.45593999997E+02  0.45594000000E+02  0.51100000000E-03 0. -1.
         11   -1    0    0    0    0 -0.00000000000E+00 -0.00000000000E+00 -0.45593999997E+02  0.45594000000E+02  0.51100000000E-03 0.  1.
    9900012    2    1    2    0    0 -0.13417759394E+02 -0.45072974304E+01 -0.12260769705E+02  0.72461588944E+02  0.70000024295E+02 0.  0.
         12    1    1    2    0    0  0.13417759394E+02  0.45072974304E+01  0.12260769705E+02  0.18726411056E+02  0.00000000000E+00 0. -1.
         11    1    3    3    0    0  0.16471732509E+02 -0.95922049861E+01 -0.26945730913E+02  0.33006071912E+02  0.51100000000E-03 0. -1.
        -11    1    3    3    0    0 -0.13620449214E+01  0.78177006397E+01  0.38196245687E+01  0.88068803652E+01  0.51100000000E-03 0.  1.
        -12    1    3    3    0    0 -0.28527446981E+02 -0.27327930840E+01  0.10865336639E+02  0.30648636667E+02  0.00000000000E+00 0.  1.
</event>
<event>
 7    1  0.2941727E-013  0.7246160E+02  0.7816164E-02  0.1226708E+00
        -11   -1    0    0    0    0  0.00000000000E+00  0.00000000000E+00  0.45593999997E+02  0.45594000000E+02  0.51100000000E-03 0.  1.
         11   -1    0    0    0    0 -0.00000000000E+00 -0.00000000000E+00 -0.45593999997E+02  0.45594000000E+02  0.51100000000E-03 0. -1.
    9900012    2    1    2    0    0  0.45289114117E+01  0.18108609729E+02 -0.14984145671E+01  0.72461600690E+02  0.70000039596E+02 0.  0.
         12    1    1    2    0    0 -0.45289114117E+01 -0.18108609729E+02  0.14984145671E+01  0.18726399310E+02  0.00000000000E+00 0. -1.
         11    1    3    3    0    0  0.21182955256E+02  0.30691972667E+02 -0.14472072755E+02  0.40001945823E+02  0.51100000000E-03 0. -1.
        -11    1    3    3    0    0 -0.77583068426E+01 -0.34344082224E+01 -0.54237091414E+01  0.10069910924E+02  0.51100000000E-03 0.  1.
        -12    1    3    3    0    0 -0.88957370018E+01 -0.91489547150E+01  0.18397367329E+02  0.22389743943E+02  0.00000000000E+00 0.  1.
</event>
<event>
 7    1  0.2941727E-013  0.7246155E+02  0.7816164E-02  0.1226708E+00
        -11   -1    0    0    0    0  0.00000000000E+00  0.00000000000E+00  0.45593999997E+02  0.45594000000E+02  0.51100000000E-03 0. -1.
         11   -1    0    0    0    0 -0.00000000000E+00 -0.00000000000E+00 -0.45593999997E+02  0.45594000000E+02  0.51100000000E-03 0.  1.
    9900012    2    1    2    0    0 -0.91961078135E+00  0.16900021304E+02 -0.80139653269E+01  0.72461546936E+02  0.69999969572E+02 0.  0.
         12    1    1    2    0    0  0.91961078135E+00 -0.16900021304E+02  0.80139653269E+01  0.18726453064E+02  0.00000000000E+00 0. -1.
         11    1    3    3    0    0  0.17795304141E+01  0.64960440857E+01 -0.20056862028E+01  0.70276663740E+01  0.51100000000E-03 0. -1.
        -11    1    3    3    0    0 -0.61465665046E+01  0.28194633981E+02 -0.25721939273E+02  0.38656640119E+02  0.51100000000E-03 0.  1.
         12    1    3    3    0    0  0.34474253092E+01 -0.17790656762E+02  0.19713660149E+02  0.26777240443E+02  0.00000000000E+00 0. -1.
</event>
<event>
 7    1  0.2941727E-013  0.7246163E+02  0.7816164E-02  0.1226708E+00
        -11   -1    0    0    0    0  0.00000000000E+00  0.00000000000E+00  0.45593999997E+02  0.45594000000E+02  0.51100000000E-03 0.  1.
         11   -1    0    0    0    0 -0.00000000000E+00 -0.00000000000E+00 -0.45593999997E+02  0.45594000000E+02  0.51100000000E-03 0. -1.
    9900012    2    1    2    0    0  0.64288233611E+01  0.77778907543E+01  0.15775024687E+02  0.72461634675E+02  0.70000083868E+02 0.  0.
         12    1    1    2    0    0 -0.64288233611E+01 -0.77778907543E+01 -0.15775024687E+02  0.18726365325E+02  0.00000000000E+00 0. -1.
         11    1    3    3    0    0  0.11011497619E+02  0.22240702295E+02 -0.51272701609E+01  0.25341484131E+02  0.51100000000E-03 0. -1.
        -11    1    3    3    0    0  0.14676368180E+02  0.37281377336E+01  0.38830232991E+01  0.15632423488E+02  0.51100000000E-03 0.  1.
        -12    1    3    3    0    0 -0.19259042438E+02 -0.18190949274E+02  0.17019271549E+02  0.31487727056E+02  0.00000000000E+00 0.  1.
</event>
<event>
 7    1  0.2941727E-013  0.7246155E+02  0.7816164E-02  0.1226708E+00
        -11   -1    0    0    0    0  0.00000000000E+00  0.00000000000E+00  0.45593999997E+02  0.45594000000E+02  0.51100000000E-03 0. -1.
         11   -1    0    0    0    0 -0.00000000000E+00 -0.00000000000E+00 -0.45593999997E+02  0.45594000000E+02  0.51100000000E-03 0.  1.
    9900012    2    1    2    0    0 -0.16276433670E+02  0.10173671782E+01  0.92044859643E+01  0.72461551034E+02  0.69999974910E+02 0.  0.
         12    1    1    2    0    0  0.16276433670E+02 -0.10173671782E+01 -0.92044859643E+01  0.18726448966E+02  0.00000000000E+00 0. -1.
         11    1    3    3    0    0 -0.14184475705E+02  0.67278471113E+01 -0.11800749658E+02  0.19639780308E+02  0.51100000000E-03 0. -1.
        -11    1    3    3    0    0 -0.22329157949E+02  0.36679731211E+01  0.66952871242E+00  0.22638321282E+02  0.51100000000E-03 0.  1.
         12    1    3    3    0    0  0.20237199983E+02 -0.93784530542E+01  0.20335706910E+02  0.30183449445E+02  0.00000000000E+00 0. -1.
</event>
<event>
 7    1  0.2941727E-013  0.7246160E+02  0.7816164E-02  0.1226708E+00
        -11   -1    0    0    0    0  0.00000000000E+00  0.00000000000E+00  0.45593999997E+02  0.45594000000E+02  0.51100000000E-03 0. -1.
         11   -1    0    0    0    0 -0.00000000000E+00 -0.00000000000E+00 -0.45593999997E+02  0.45594000000E+02  0.51100000000E-03 0.  1.
    9900012    2    1    2    0    0 -0.10283129073E+02 -0.10007250597E+02 -0.12032875189E+02  0.72461604368E+02  0.70000044388E+02 0.  0.
         12    1    1    2    0    0  0.10283129073E+02  0.10007250597E+02  0.12032875189E+02  0.18726395632E+02  0.00000000000E+00 0. -1.
         11    1    3    3    0    0 -0.24676215106E+02  0.75193124703E+01 -0.15316687653E+02  0.30000942867E+02  0.51100000000E-03 0. -1.
        -11    1    3    3    0    0  0.32762431446E+01 -0.20913083145E+01 -0.15348929372E+02  0.15833413174E+02  0.51100000000E-03 0.  1.
         12    1    3    3    0    0  0.11116842889E+02 -0.15435254753E+02  0.18632741837E+02  0.26627248327E+02  0.00000000000E+00 0. -1.
</event>
<event>
 7    1  0.2941727E-013  0.7246159E+02  0.7816164E-02  0.1226708E+00
        -11   -1    0    0    0    0  0.00000000000E+00  0.00000000000E+00  0.45593999997E+02  0.45594000000E+02  0.51100000000E-03 0. -1.
         11   -1    0    0    0    0 -0.00000000000E+00 -0.00000000000E+00 -0.45593999997E+02  0.45594000000E+02  0.51100000000E-03 0.  1.
    9900012    2    1    2    0    0  0.36278003121E+01 -0.16414454877E+02 -0.82512595771E+01  0.72461586872E+02  0.70000021596E+02 0.  0.
         12    1    1    2    0    0 -0.36278003121E+01  0.16414454877E+02  0.82512595771E+01  0.18726413128E+02  0.00000000000E+00 0. -1.
         11    1    3    3    0    0  0.55689513558E+01  0.93789350158E+00 -0.25120548633E+02  0.25747520800E+02  0.51100000000E-03 0. -1.
        -11    1    3    3    0    0 -0.18864787463E+02 -0.43390925773E+01 -0.23498726264E+00  0.19358800316E+02  0.51100000000E-03 0.  1.
        -12    1    3    3    0    0  0.16923636419E+02 -0.13013255801E+02  0.17104276319E+02  0.27355265756E+02  0.00000000000E+00 0.  1.
</event>
<event>
 7    1  0.2941727E-013  0.7246100E+02  0.7816164E-02  0.1226710E+00
        -11   -1    0    0    0    0  0.00000000000E+00  0.00000000000E+00  0.45593999997E+02  0.45594000000E+02  0.51100000000E-03 0. -1.
         11   -1    0    0    0    0 -0.00000000000E+00 -0.00000000000E+00 -0.45593999997E+02  0.45594000000E+02  0.51100000000E-03 0.  1.
    9900012    2    1    2    0    0  0.95715550533E+00 -0.16905956766E+01 -0.18625952004E+02  0.72461004820E+02  0.69999263361E+02 0.  0.
         12    1    1    2    0    0 -0.95715550533E+00  0.16905956766E+01  0.18625952004E+02  0.18726995180E+02  0.00000000000E+00 0. -1.
         11    1    3    3    0    0  0.20429010562E+02 -0.12570269411E+02 -0.56821097891E+01  0.24650406032E+02  0.51100000000E-03 0. -1.
        -11    1    3    3    0    0  0.10322258812E+02  0.12276485791E+02 -0.64334567309E+01  0.17281507346E+02  0.51100000000E-03 0.  1.
         12    1    3    3    0    0 -0.29794113869E+02 -0.13968120566E+01 -0.65103854844E+01  0.30529091442E+02  0.00000000000E+00 0. -1.
</event>
<event>
 7    1  0.2941727E-013  0.7246156E+02  0.7816164E-02  0.1226708E+00
        -11   -1    0    0    0    0  0.00000000000E+00  0.00000000000E+00  0.45593999997E+02  0.45594000000E+02  0.51100000000E-03 0.  1.
         11   -1    0    0    0    0 -0.00000000000E+00 -0.00000000000E+00 -0.45593999997E+02  0.45594000000E+02  0.51100000000E-03 0. -1.
    9900012    2    1    2    0    0 -0.11147940118E+02 -0.14139861417E+02 -0.51446519051E+01  0.72461556317E+02  0.69999981792E+02 0.  0.
         12    1    1    2    0    0  0.11147940118E+02  0.14139861417E+02  0.51446519051E+01  0.18726443683E+02  0.00000000000E+00 0. -1.
         11    1    3    3    0    0 -0.15084791986E+01  0.17408422773E+01  0.94991839907E+01  0.97744840313E+01  0.51100000000E-03 0. -1.
        -11    1    3    3    0    0  0.46981865895E+01 -0.11762076199E+01  0.20999223599E+02  0.21550494510E+02  0.51100000000E-03 0.  1.
         12    1    3    3    0    0 -0.14337647509E+02 -0.14704496075E+02 -0.35643059495E+02  0.41136577776E+02  0.00000000000E+00 0. -1.
</event>
<event>
 7    1  0.2941727E-013  0.7246156E+02  0.7816164E-02  0.1226708E+00
        -11   -1    0    0    0    0  0.00000000000E+00  0.00000000000E+00  0.45593999997E+02  0.45594000000E+02  0.51100000000E-03 0. -1.
         11   -1    0    0    0    0 -0.00000000000E+00 -0.00000000000E+00 -0.45593999997E+02  0.45594000000E+02  0.51100000000E-03 0.  1.
    9900012    2    1    2    0    0  0.18401165089E+02  0.34033345134E+01 -0.70293241209E+00  0.72461556760E+02  0.69999982369E+02 0.  0.
         12    1    1    2    0    0 -0.18401165089E+02 -0.34033345134E+01  0.70293241209E+00  0.18726443240E+02  0.00000000000E+00 0. -1.
         11    1    3    3    0    0 -0.61900854577E+00 -0.17076919371E+02 -0.14516504659E+02  0.22421713908E+02  0.51100000000E-03 0. -1.
        -11    1    3    3    0    0  0.47696240525E+01 -0.46085731064E+01 -0.10425373614E+02  0.12356240323E+02  0.51100000000E-03 0.  1.
        -12    1    3    3    0    0  0.14250549582E+02  0.25088826990E+02  0.24238945861E+02  0.37683602529E+02  0.00000000000E+00 0.  1.
</event>
<event>
 7    1  0.2941727E-013  0.7246159E+02  0.7816164E-02  0.1226708E+00
        -11   -1    0    0    0    0  0.00000000000E+00  0.00000000000E+00  0.45593999997E+02  0.45594000000E+02  0.51100000000E-03 0. -1.
         11   -1    0    0    0    0 -0.00000000000E+00 -0.00000000000E+00 -0.45593999997E+02  0.45594000000E+02  0.51100000000E-03 0.  1.
    9900012    2    1    2    0    0 -0.66962932489E+01  0.69186211858E+01 -0.16061474221E+02  0.72461585059E+02  0.70000019234E+02 0.  0.
         12    1    1    2    0    0  0.66962932489E+01 -0.69186211858E+01  0.16061474221E+02  0.18726414941E+02  0.00000000000E+00 0. -1.
         11    1    3    3    0    0  0.45288382454E+01 -0.17449017392E+02  0.84425681657E+01  0.19906168423E+02  0.51100000000E-03 0. -1.
        -11    1    3    3    0    0 -0.74998209053E+01  0.91074679139E+01 -0.32752871002E+02  0.34812983850E+02  0.51100000000E-03 0.  1.
         12    1    3    3    0    0 -0.37253105891E+01  0.15260170664E+02  0.82488286152E+01  0.17742432787E+02  0.00000000000E+00 0. -1.
</event>
<event>
 7    1  0.2941727E-013  0.7246164E+02  0.7816164E-02  0.1226708E+00
        -11   -1    0    0    0    0  0.00000000000E+00  0.00000000000E+00  0.45593999997E+02  0.45594000000E+02  0.51100000000E-03 0.  1.
         11   -1    0    0    0    0 -0.00000000000E+00 -0.00000000000E+00 -0.45593999997E+02  0.45594000000E+02  0.51100000000E-03 0. -1.
    9900012    2    1    2    0    0 -0.17376622341E+02 -0.23091918714E+01  0.65876582931E+01  0.72461638558E+02  0.70000088925E+02 0.  0.
         12    1    1    2    0    0  0.17376622341E+02  0.23091918714E+01 -0.65876582931E+01  0.18726361442E+02  0.00000000000E+00 0. -1.
         11    1    3    3    0    0  0.94080253463E+01  0.21013591171E+02 -0.84041700303E+01  0.24509427349E+02  0.51100000000E-03 0. -1.
        -11    1    3    3    0    0 -0.20756382080E+02 -0.28594786207E+01 -0.14735816331E+01  0.21004177159E+02  0.51100000000E-03 0.  1.
        -12    1    3    3    0    0 -0.60282656074E+01 -0.20463304422E+02  0.16465409957E+02  0.26948034049E+02  0.00000000000E+00 0.  1.
</event>
<event>
 7    1  0.2941727E-013  0.7246158E+02  0.7816164E-02  0.1226708E+00
        -11   -1    0    0    0    0  0.00000000000E+00  0.00000000000E+00  0.45593999997E+02  0.45594000000E+02  0.51100000000E-03 0.  1.
         11   -1    0    0    0    0 -0.00000000000E+00 -0.00000000000E+00 -0.45593999997E+02  0.45594000000E+02  0.51100000000E-03 0. -1.
    9900012    2    1    2    0    0 -0.15030704776E+02  0.72965534556E+01  0.84567841565E+01  0.72461575444E+02  0.70000006708E+02 0.  0.
         12    1    1    2    0    0  0.15030704776E+02 -0.72965534556E+01 -0.84567841565E+01  0.18726424556E+02  0.00000000000E+00 0. -1.
         11    1    3    3    0    0 -0.35262552928E+01  0.73940759240E+01  0.54925437896E+01  0.98628024771E+01  0.51100000000E-03 0. -1.
        -11    1    3    3    0    0 -0.27917791755E+02  0.15223794906E+02 -0.13713005885E+02  0.34629662985E+02  0.51100000000E-03 0.  1.
         12    1    3    3    0    0  0.16413342272E+02 -0.15321317374E+02  0.16677246252E+02  0.27969109981E+02  0.00000000000E+00 0. -1.
</event>
<event>
 7    1  0.2941727E-013  0.7246156E+02  0.7816164E-02  0.1226708E+00
        -11   -1    0    0    0    0  0.00000000000E+00  0.00000000000E+00  0.45593999997E+02  0.45594000000E+02  0.51100000000E-03 0. -1.
         11   -1    0    0    0    0 -0.00000000000E+00 -0.00000000000E+00 -0.45593999997E+02  0.45594000000E+02  0.51100000000E-03 0.  1.
    9900012    2    1    2    0    0 -0.54737477005E+01  0.17383349131E+02 -0.43054426872E+01  0.72461559398E+02  0.69999985805E+02 0.  0.
         12    1    1    2    0    0  0.54737477005E+01 -0.17383349131E+02  0.43054426872E+01  0.18726440602E+02  0.00000000000E+00 0. -1.
         11    1    3    3    0    0 -0.10352170192E+00  0.16282516118E+02 -0.19402455517E+02  0.25329554441E+02  0.51100000000E-03 0. -1.
        -11    1    3    3    0    0  0.35874249053E+01 -0.15765969548E+02 -0.72637998954E+01  0.17725636869E+02  0.51100000000E-03 0.  1.
         12    1    3    3    0    0 -0.89576509039E+01  0.16866802561E+02  0.22360812725E+02  0.29406368087E+02  0.00000000000E+00 0. -1.
</event>
<event>
 7    1  0.2941727E-013  0.7246156E+02  0.7816164E-02  0.1226708E+00
        -11   -1    0    0    0    0  0.00000000000E+00  0.00000000000E+00  0.45593999997E+02  0.45594000000E+02  0.51100000000E-03 0.  1.
         11   -1    0    0    0    0 -0.00000000000E+00 -0.00000000000E+00 -0.45593999997E+02  0.45594000000E+02  0.51100000000E-03 0. -1.
    9900012    2    1    2    0    0 -0.82341956929E+01  0.13563956323E+02 -0.99446763398E+01  0.72461562076E+02  0.69999989294E+02 0.  0.
         12    1    1    2    0    0  0.82341956929E+01 -0.13563956323E+02  0.99446763398E+01  0.18726437924E+02  0.00000000000E+00 0. -1.
         11    1    3    3    0    0 -0.19870421803E+02  0.20867041352E+02 -0.55570197739E+01  0.29345315579E+02  0.51100000000E-03 0. -1.
        -11    1    3    3    0    0  0.10882461094E+02  0.15421583547E+02  0.32050329540E+01  0.19144854010E+02  0.51100000000E-03 0.  1.
        -12    1    3    3    0    0  0.75376501625E+00 -0.22724668577E+02 -0.75926895198E+01  0.23971392487E+02  0.00000000000E+00 0.  1.
</event>
<event>
 7    1  0.2941727E-013  0.7246166E+02  0.7816164E-02  0.1226708E+00
        -11   -1    0    0    0    0  0.00000000000E+00  0.00000000000E+00  0.45593999997E+02  0.45594000000E+02  0.51100000000E-03 0.  1.
         11   -1    0    0    0    0 -0.00000000000E+00 -0.00000000000E+00 -0.45593999997E+02  0.45594000000E+02  0.51100000000E-03 0. -1.
    9900012    2    1    2    0    0  0.81355768918E+01  0.16836566329E+02 -0.10090573226E+01  0.72461660961E+02  0.70000118111E+02 0.  0.
         12    1    1    2    0    0 -0.81355768918E+01 -0.16836566329E+02  0.10090573226E+01  0.18726339039E+02  0.00000000000E+00 0. -1.
         11    1    3    3    0    0  0.52853622623E+01 -0.53753100562E+00 -0.18453561038E+01  0.56239961981E+01  0.51100000000E-03 0. -1.
        -11    1    3    3    0    0  0.69442488221E+01 -0.16688132010E+02  0.20471020663E+02  0.27308955105E+02  0.51100000000E-03 0.  1.
         12    1    3    3    0    0 -0.40940341927E+01  0.34062229345E+02 -0.19634721881E+02  0.39528709658E+02  0.00000000000E+00 0. -1.
</event>
<event>
 7    1  0.2941727E-013  0.7246158E+02  0.7816164E-02  0.1226708E+00
        -11   -1    0    0    0    0  0.00000000000E+00  0.00000000000E+00  0.45593999997E+02  0.45594000000E+02  0.51100000000E-03 0.  1.
         11   -1    0    0    0    0 -0.00000000000E+00 -0.00000000000E+00 -0.45593999997E+02  0.45594000000E+02  0.51100000000E-03 0. -1.
    9900012    2    1    2    0    0 -0.62731167675E+01  0.16187248636E+02  0.70213755561E+01  0.72461582108E+02  0.70000015389E+02 0.  0.
         12    1    1    2    0    0  0.62731167675E+01 -0.16187248636E+02 -0.70213755561E+01  0.18726417892E+02  0.00000000000E+00 0. -1.
         11    1    3    3    0    0 -0.21446259765E+01  0.17268886846E+02 -0.12668862785E+02  0.21524728988E+02  0.51100000000E-03 0. -1.
        -11    1    3    3    0    0 -0.17140846277E+02 -0.13909688122E+02 -0.24727621813E+01  0.22212667283E+02  0.51100000000E-03 0.  1.
        -12    1    3    3    0    0  0.13012355486E+02  0.12828049912E+02  0.22163000522E+02  0.28724185837E+02  0.00000000000E+00 0.  1.
</event>
<event>
 7    1  0.2941727E-013  0.7246157E+02  0.7816164E-02  0.1226708E+00
        -11   -1    0    0    0    0  0.00000000000E+00  0.00000000000E+00  0.45593999997E+02  0.45594000000E+02  0.51100000000E-03 0.  1.
         11   -1    0    0    0    0 -0.00000000000E+00 -0.00000000000E+00 -0.45593999997E+02  0.45594000000E+02  0.51100000000E-03 0. -1.
    9900012    2    1    2    0    0  0.81424921301E+00  0.17885883566E+02 -0.54873957583E+01  0.72461565611E+02  0.69999993899E+02 0.  0.
         12    1    1    2    0    0 -0.81424921301E+00 -0.17885883566E+02  0.54873957583E+01  0.18726434389E+02  0.00000000000E+00 0. -1.
         11    1    3    3    0    0 -0.13532863736E+02  0.28039189047E+02 -0.16979860169E+02  0.35463363841E+02  0.51100000000E-03 0. -1.
        -11    1    3    3    0    0  0.34117268163E+01  0.49564048396E+01 -0.80061537514E+01  0.10015204789E+02  0.51100000000E-03 0.  1.
        -12    1    3    3    0    0  0.10935386133E+02 -0.15109710320E+02  0.19498618163E+02  0.26982996981E+02  0.00000000000E+00 0.  1.
</event>
<event>
 7    1  0.3043887E-013  0.7246155E+02  0.7816164E-02  0.1226708E+00
        -11   -1    0    0    0    0  0.00000000000E+00  0.00000000000E+00  0.45593999997E+02  0.45594000000E+02  0.51100000000E-03 0. -1.
         11   -1    0    0    0    0 -0.00000000000E+00 -0.00000000000E+00 -0.45593999997E+02  0.45594000000E+02  0.51100000000E-03 0.  1.
    9900012    2    1    2    0    0  0.77815175115E+00 -0.15974481343E+02 -0.97411750749E+01  0.72461546354E+02  0.69999968813E+02 0.  0.
         12    1    1    2    0    0 -0.77815175115E+00  0.15974481343E+02  0.97411750749E+01  0.18726453646E+02  0.00000000000E+00 0. -1.
         11    1    3    3    0    0  0.83401126430E+01 -0.97207346552E+01  0.24370530552E+02  0.27531308011E+02  0.51100000000E-03 0. -1.
        -11    1    3    3    0    0 -0.12632112419E+01 -0.15833212294E+02 -0.11603763414E+02  0.19670628862E+02  0.51100000000E-03 0.  1.
        -12    1    3    3    0    0 -0.62987496499E+01  0.95794656062E+01 -0.22507942213E+02  0.25259609481E+02  0.00000000000E+00 0.  1.
</event>
<event>
 7    1  0.2941727E-013  0.7246158E+02  0.7816164E-02  0.1226708E+00
        -11   -1    0    0    0    0  0.00000000000E+00  0.00000000000E+00  0.45593999997E+02  0.45594000000E+02  0.51100000000E-03 0.  1.
         11   -1    0    0    0    0 -0.00000000000E+00 -0.00000000000E+00 -0.45593999997E+02  0.45594000000E+02  0.51100000000E-03 0. -1.
    9900012    2    1    2    0    0  0.12674817400E+02 -0.13536102271E+02  0.26079877729E+01  0.72461583871E+02  0.70000017686E+02 0.  0.
         12    1    1    2    0    0 -0.12674817400E+02  0.13536102271E+02 -0.26079877729E+01  0.18726416129E+02  0.00000000000E+00 0. -1.
         11    1    3    3    0    0  0.33250802935E+01  0.93472912092E+01  0.22325944634E+02  0.24431042057E+02  0.51100000000E-03 0. -1.
        -11    1    3    3    0    0 -0.13928750341E+02 -0.69095222251E+01 -0.76268052827E+01  0.17318191087E+02  0.51100000000E-03 0.  1.
        -12    1    3    3    0    0  0.23278487448E+02 -0.15973871255E+02 -0.12091151578E+02  0.30712350728E+02  0.00000000000E+00 0.  1.
</event>
<event>
 7    1  0.2941727E-013  0.7246159E+02  0.7816164E-02  0.1226708E+00
        -11   -1    0    0    0    0  0.00000000000E+00  0.00000000000E+00  0.45593999997E+02  0.45594000000E+02  0.51100000000E-03 0.  1.
         11   -1    0    0    0    0 -0.00000000000E+00 -0.00000000000E+00 -0.45593999997E+02  0.45594000000E+02  0.51100000000E-03 0. -1.
    9900012    2    1    2    0    0 -0.66436614000E+01 -0.12159402309E+02  0.12597184444E+02  0.72461591983E+02  0.70000028253E+02 0.  0.
         12    1    1    2    0    0  0.66436614000E+01  0.12159402309E+02 -0.12597184444E+02  0.18726408017E+02  0.00000000000E+00 0. -1.
         11    1    3    3    0    0  0.42814484222E+01 -0.88342542586E+01  0.62997232610E+01  0.11664534381E+02  0.51100000000E-03 0. -1.
        -11    1    3    3    0    0  0.23553267585E+02 -0.94710361059E+01  0.12887339287E+01  0.25418846831E+02  0.51100000000E-03 0.  1.
         12    1    3    3    0    0 -0.34478377407E+02  0.61458880558E+01  0.50087272547E+01  0.35378210770E+02  0.00000000000E+00 0. -1.
</event>
<event>
 7    1  0.2941727E-013  0.7246152E+02  0.7816164E-02  0.1226708E+00
        -11   -1    0    0    0    0  0.00000000000E+00  0.00000000000E+00  0.45593999997E+02  0.45594000000E+02  0.51100000000E-03 0. -1.
         11   -1    0    0    0    0 -0.00000000000E+00 -0.00000000000E+00 -0.45593999997E+02  0.45594000000E+02  0.51100000000E-03 0.  1.
    9900012    2    1    2    0    0  0.14368537232E+02  0.12008407176E+02 -0.15553777043E+00  0.72461524168E+02  0.69999939911E+02 0.  0.
         12    1    1    2    0    0 -0.14368537232E+02 -0.12008407176E+02  0.15553777043E+00  0.18726475832E+02  0.00000000000E+00 0. -1.
         11    1    3    3    0    0  0.44207713861E+01  0.14950481960E+02  0.84798246838E+00  0.15613430277E+02  0.51100000000E-03 0. -1.
        -11    1    3    3    0    0  0.98204691771E+01  0.21708666318E+02  0.14342755002E+02  0.27810473377E+02  0.51100000000E-03 0.  1.
        -12    1    3    3    0    0  0.12729666887E+00 -0.24650741102E+02 -0.15346275241E+02  0.29037620513E+02  0.00000000000E+00 0.  1.
</event>
<event>
 7    1  0.2941727E-013  0.7246160E+02  0.7816164E-02  0.1226708E+00
        -11   -1    0    0    0    0  0.00000000000E+00  0.00000000000E+00  0.45593999997E+02  0.45594000000E+02  0.51100000000E-03 0. -1.
         11   -1    0    0    0    0 -0.00000000000E+00 -0.00000000000E+00 -0.45593999997E+02  0.45594000000E+02  0.51100000000E-03 0.  1.
    9900012    2    1    2    0    0 -0.16366776842E+02 -0.43332195990E+01  0.80018733078E+01  0.72461597443E+02  0.70000035367E+02 0.  0.
         12    1    1    2    0    0  0.16366776842E+02  0.43332195990E+01 -0.80018733078E+01  0.18726402557E+02  0.00000000000E+00 0. -1.
         11    1    3    3    0    0  0.40214505584E+01  0.29982895012E+01  0.26203193983E+01  0.56593178508E+01  0.51100000000E-03 0. -1.
        -11    1    3    3    0    0  0.22878510713E+02 -0.33723866675E+01  0.12675620906E+01  0.23160439507E+02  0.51100000000E-03 0.  1.
         12    1    3    3    0    0 -0.43266738113E+02 -0.39591224326E+01  0.41139918189E+01  0.43641840085E+02  0.00000000000E+00 0. -1.
</event>
<event>
 7    1  0.2941727E-013  0.7246153E+02  0.7816164E-02  0.1226708E+00
        -11   -1    0    0    0    0  0.00000000000E+00  0.00000000000E+00  0.45593999997E+02  0.45594000000E+02  0.51100000000E-03 0.  1.
         11   -1    0    0    0    0 -0.00000000000E+00 -0.00000000000E+00 -0.45593999997E+02  0.45594000000E+02  0.51100000000E-03 0. -1.
    9900012    2    1    2    0    0  0.59556047802E+01  0.10421118725E+02  0.14373991092E+02  0.72461533070E+02  0.69999951508E+02 0.  0.
         12    1    1    2    0    0 -0.59556047802E+01 -0.10421118725E+02 -0.14373991092E+02  0.18726466930E+02  0.00000000000E+00 0. -1.
         11    1    3    3    0    0  0.43093624935E+01 -0.37892980304E+01 -0.16470634650E+02  0.17441651031E+02  0.51100000000E-03 0. -1.
        -11    1    3    3    0    0 -0.20277561530E+02  0.10737563229E+02  0.19393696813E+02  0.30043139683E+02  0.51100000000E-03 0.  1.
         12    1    3    3    0    0  0.21923803816E+02  0.34728535257E+01  0.11450928929E+02  0.24976742356E+02  0.00000000000E+00 0. -1.
</event>
<event>
 7    1  0.2941727E-013  0.7246160E+02  0.7816164E-02  0.1226708E+00
        -11   -1    0    0    0    0  0.00000000000E+00  0.00000000000E+00  0.45593999997E+02  0.45594000000E+02  0.51100000000E-03 0.  1.
         11   -1    0    0    0    0 -0.00000000000E+00 -0.00000000000E+00 -0.45593999997E+02  0.45594000000E+02  0.51100000000E-03 0. -1.
    9900012    2    1    2    0    0 -0.21710796015E+01  0.15817660672E+01  0.18532742508E+02  0.72461598439E+02  0.70000036664E+02 0.  0.
         12    1    1    2    0    0  0.21710796015E+01 -0.15817660672E+01 -0.18532742508E+02  0.18726401561E+02  0.00000000000E+00 0. -1.
         11    1    3    3    0    0  0.14971481105E+02 -0.43758292630E+01  0.12771814179E+02  0.20159671771E+02  0.51100000000E-03 0. -1.
        -11    1    3    3    0    0 -0.14424543558E+01 -0.74966815176E+01  0.23718028991E+02  0.24916376298E+02  0.51100000000E-03 0.  1.
         12    1    3    3    0    0 -0.15700106350E+02  0.13454276848E+02 -0.17957100662E+02  0.27385550371E+02  0.00000000000E+00 0. -1.
</event>
<event>
 7    1  0.2941727E-013  0.7246158E+02  0.7816164E-02  0.1226708E+00
        -11   -1    0    0    0    0  0.00000000000E+00  0.00000000000E+00  0.45593999997E+02  0.45594000000E+02  0.51100000000E-03 0.  1.
         11   -1    0    0    0    0 -0.00000000000E+00 -0.00000000000E+00 -0.45593999997E+02  0.45594000000E+02  0.51100000000E-03 0. -1.
    9900012    2    1    2    0    0 -0.88337029062E+01  0.28331892267E+01  0.16267069117E+02  0.72461580004E+02  0.70000012648E+02 0.  0.
         12    1    1    2    0    0  0.88337029062E+01 -0.28331892267E+01 -0.16267069117E+02  0.18726419996E+02  0.00000000000E+00 0. -1.
         11    1    3    3    0    0  0.11406067411E+02 -0.51575536130E+01 -0.64117220383E+01  0.14064455653E+02  0.51100000000E-03 0. -1.
        -11    1    3    3    0    0 -0.21533250216E+02 -0.77105786939E+01 -0.77353471156E+01  0.24144761003E+02  0.51100000000E-03 0.  1.
         12    1    3    3    0    0  0.12934798985E+01  0.15701321534E+02  0.30414138270E+02  0.34252363347E+02  0.00000000000E+00 0. -1.
</event>
<event>
 7    1  0.2941727E-013  0.7246161E+02  0.7816164E-02  0.1226708E+00
        -11   -1    0    0    0    0  0.00000000000E+00  0.00000000000E+00  0.45593999997E+02  0.45594000000E+02  0.51100000000E-03 0.  1.
         11   -1    0    0    0    0 -0.00000000000E+00 -0.00000000000E+00 -0.45593999997E+02  0.45594000000E+02  0.51100000000E-03 0. -1.
    9900012    2    1    2    0    0 -0.82087544351E+01  0.18535335140E+00  0.16830321789E+02  0.72461608549E+02  0.70000049834E+02 0.  0.
         12    1    1    2    0    0  0.82087544351E+01 -0.18535335140E+00 -0.16830321789E+02  0.18726391451E+02  0.00000000000E+00 0. -1.
         11    1    3    3    0    0 -0.20082232211E+01  0.18914063199E+02 -0.93630785955E+01  0.21200046893E+02  0.51100000000E-03 0. -1.
        -11    1    3    3    0    0  0.12908487262E+02 -0.21772154798E+01 -0.21672777740E+01  0.13269001615E+02  0.51100000000E-03 0.  1.
        -12    1    3    3    0    0 -0.19109018476E+02 -0.16551494368E+02  0.28360678158E+02  0.37992560042E+02  0.00000000000E+00 0.  1.
</event>
<event>
 7    1  0.2941727E-013  0.7246130E+02  0.7816164E-02  0.1226709E+00
        -11   -1    0    0    0    0  0.00000000000E+00  0.00000000000E+00  0.45593999997E+02  0.45594000000E+02  0.51100000000E-03 0. -1.
         11   -1    0    0    0    0 -0.00000000000E+00 -0.00000000000E+00 -0.45593999997E+02  0.45594000000E+02  0.51100000000E-03 0.  1.
    9900012    2    1    2    0    0  0.88417273603E+01  0.18433603526E+01 -0.16404730053E+02  0.72461300125E+02  0.69999648053E+02 0.  0.
         12    1    1    2    0    0 -0.88417273603E+01 -0.18433603526E+01  0.16404730053E+02  0.18726699875E+02  0.00000000000E+00 0. -1.
         11    1    3    3    0    0 -0.22581202605E+02  0.35975747016E+01  0.71682126224E+00  0.22877217658E+02  0.51100000000E-03 0. -1.
        -11    1    3    3    0    0  0.77123455387E+01 -0.14375332521E+01 -0.23709104433E+02  0.24973353976E+02  0.51100000000E-03 0.  1.
         12    1    3    3    0    0  0.23710584426E+02 -0.31668109682E+00  0.65875531172E+01  0.24610728490E+02  0.00000000000E+00 0. -1.
</event>
<event>
 7    1  0.2941727E-013  0.7246156E+02  0.7816164E-02  0.1226708E+00
        -11   -1    0    0    0    0  0.00000000000E+00  0.00000000000E+00  0.45593999997E+02  0.45594000000E+02  0.51100000000E-03 0. -1.
         11   -1    0    0    0    0 -0.00000000000E+00 -0.00000000000E+00 -0.45593999997E+02  0.45594000000E+02  0.51100000000E-03 0.  1.
    9900012    2    1    2    0    0 -0.14000463031E+02 -0.21635974451E+01 -0.12246856376E+02  0.72461558531E+02  0.69999984676E+02 0.  0.
         12    1    1    2    0    0  0.14000463031E+02  0.21635974451E+01  0.12246856376E+02  0.18726441469E+02  0.00000000000E+00 0. -1.
         11    1    3    3    0    0  0.72005620997E+01  0.89486550644E+01 -0.26632409230E+01  0.11790647755E+02  0.51100000000E-03 0. -1.
        -11    1    3    3    0    0  0.15576673565E+02 -0.16493289158E+02 -0.48815399841E+01  0.23205404100E+02  0.51100000000E-03 0.  1.
         12    1    3    3    0    0 -0.36777698696E+02  0.53810366482E+01 -0.47020754690E+01  0.37465506676E+02  0.00000000000E+00 0. -1.
</event>
<event>
 7    1  0.2941727E-013  0.7246169E+02  0.7816164E-02  0.1226708E+00
        -11   -1    0    0    0    0  0.00000000000E+00  0.00000000000E+00  0.45593999997E+02  0.45594000000E+02  0.51100000000E-03 0.  1.
         11   -1    0    0    0    0 -0.00000000000E+00 -0.00000000000E+00 -0.45593999997E+02  0.45594000000E+02  0.51100000000E-03 0. -1.
    9900012    2    1    2    0    0  0.97043608702E+01 -0.14449973570E+02  0.69064063534E+01  0.72461686834E+02  0.70000151814E+02 0.  0.
         12    1    1    2    0    0 -0.97043608702E+01  0.14449973570E+02 -0.69064063534E+01  0.18726313166E+02  0.00000000000E+00 0. -1.
         11    1    3    3    0    0 -0.63539543722E+01  0.52518912339E+01  0.18365015274E+02  0.20130297662E+02  0.51100000000E-03 0. -1.
        -11    1    3    3    0    0 -0.11868251494E+02 -0.15665475476E+02  0.41475410329E+01  0.20086428560E+02  0.51100000000E-03 0.  1.
         12    1    3    3    0    0  0.27926566736E+02 -0.40363893281E+01 -0.15606149953E+02  0.32244960612E+02  0.00000000000E+00 0. -1.
</event>
<event>
 7    1  0.2941727E-013  0.7246155E+02  0.7816164E-02  0.1226708E+00
        -11   -1    0    0    0    0  0.00000000000E+00  0.00000000000E+00  0.45593999997E+02  0.45594000000E+02  0.51100000000E-03 0. -1.
         11   -1    0    0    0    0 -0.00000000000E+00 -0.00000000000E+00 -0.45593999997E+02  0.45594000000E+02  0.51100000000E-03 0.  1.
    9900012    2    1    2    0    0 -0.18530588122E+02  0.89875931716E+00 -0.25474330591E+01  0.72461551334E+02  0.69999975301E+02 0.  0.
         12    1    1    2    0    0  0.18530588122E+02 -0.89875931716E+00  0.25474330591E+01  0.18726448666E+02  0.00000000000E+00 0. -1.
         11    1    3    3    0    0 -0.27631553072E+02 -0.12539269110E+02 -0.72704414837E+01  0.31202488917E+02  0.51100000000E-03 0. -1.
        -11    1    3    3    0    0  0.12313907495E+02 -0.24534018945E+01 -0.12421916043E+02  0.17662261947E+02  0.51100000000E-03 0.  1.
        -12    1    3    3    0    0 -0.32129425448E+01  0.15891430322E+02  0.17144924467E+02  0.23596800471E+02  0.00000000000E+00 0.  1.
</event>
<event>
 7    1  0.3449508E-013  0.7246155E+02  0.7816164E-02  0.1226708E+00
        -11   -1    0    0    0    0  0.00000000000E+00  0.00000000000E+00  0.45593999997E+02  0.45594000000E+02  0.51100000000E-03 0. -1.
         11   -1    0    0    0    0 -0.00000000000E+00 -0.00000000000E+00 -0.45593999997E+02  0.45594000000E+02  0.51100000000E-03 0.  1.
    9900012    2    1    2    0    0  0.41086042654E+01 -0.11694977860E+02 -0.14036621989E+02  0.72461550977E+02  0.69999974835E+02 0.  0.
         12    1    1    2    0    0 -0.41086042654E+01  0.11694977860E+02  0.14036621989E+02  0.18726449023E+02  0.00000000000E+00 0. -1.
         11    1    3    3    0    0 -0.18040935716E+01  0.16081278434E+00  0.18649121182E+02  0.18736871016E+02  0.51100000000E-03 0. -1.
        -11    1    3    3    0    0  0.15422680094E+02 -0.59431179620E+01  0.25758479986E+01  0.16727662884E+02  0.51100000000E-03 0.  1.
        -12    1    3    3    0    0 -0.95099822570E+01 -0.59126726828E+01 -0.35261591169E+02  0.36997017076E+02  0.00000000000E+00 0.  1.
</event>
